Written by MDAnalysis
63000
    1BOLB   NC1    1  21.644  17.311  18.446  0.3011 -0.0901  0.2914
    1BOLB   PO1    2  21.981  17.120  18.229  0.3539 -0.1736 -0.0263
    1BOLB   GL1    3  21.787  16.814  18.451 -0.2350 -0.0160  0.3105
    1BOLB   GL2    4  21.375  16.904  18.389  0.2885  0.3049  0.1882
    1BOLB   C1A    5  21.685  16.332  18.542 -0.1092 -0.1372  0.0571
    1BOLB   C2A    6  21.491  16.013  18.911  0.0318 -0.5570  0.2503
    1BOLB   C3A    7  21.638  15.863  19.302  0.1810  0.2787 -0.0160
    1BOLB   C4A    8  22.029  15.887  19.569 -0.3333 -0.3156 -0.1659
    1BOLB   C1B    9  21.142  16.606  18.264 -0.0943  0.2762 -0.0501
    1BOLB   C2B   10  21.063  16.283  18.499  0.1316 -0.0155 -0.2546
    1BOLB   C3B   11  21.139  15.783  18.580  0.0743 -0.0965 -0.2767
    1BOLB   C4B   12  21.421  15.540  18.808  0.1370  0.1819 -0.1385
    1BOLB   NC2   13  24.136  17.070  19.017  0.2920 -0.0293  0.3077
    1BOLB   PO2   14  23.714  16.979  19.085 -0.1108  0.0299 -0.2770
    1BOLB   GL3   15  23.374  16.757  19.352  0.0735 -0.1937 -0.0101
    1BOLB   GL4   16  23.593  16.576  19.629  0.0822  0.0108 -0.3637
    1BOLB   C1C   17  23.030  16.491  19.401  0.2021  0.1503  0.2307
    1BOLB   C2C   18  23.039  16.105  19.379  0.0658  0.3137 -0.0734
    1BOLB   C3C   19  22.781  15.716  19.515  0.1862 -0.1958  0.0315
    1BOLB   C4C   20  22.373  15.616  19.525 -0.3714  0.0790  0.2685
    1BOLB   C1D   21  23.213  16.391  19.835  0.1364  0.0303  0.0230
    1BOLB   C2D   22  22.811  16.281  19.836 -0.0728  0.0275 -0.1451
    1BOLB   C3D   23  22.509  16.090  19.628 -0.0084 -0.0225 -0.0730
    1BOLB   C4D   24  22.390  16.062  19.284  0.1129  0.2496 -0.0734
    2BOLB   NC1   25  14.728  15.713  38.692  0.0950 -0.0245 -0.1085
    2BOLB   PO1   26  14.347  16.057  38.748  0.0983 -0.0775  0.0825
    2BOLB   GL1   27  14.464  16.359  39.061  0.2112 -0.0590  0.0347
    2BOLB   GL2   28  14.612  16.632  39.017  0.1764 -0.1232  0.1887
    2BOLB   C1A   29  14.225  16.797  39.326 -0.1748  0.1503  0.0136
    2BOLB   C2A   30  14.142  17.064  39.668 -0.0931 -0.2512  0.0379
    2BOLB   C3A   31  14.104  17.454  39.808 -0.1123  0.1741  0.1460
    2BOLB   C4A   32  13.753  17.448  39.930  0.1685 -0.3397 -0.2719
    2BOLB   C1B   33  14.666  16.960  39.412  0.0578  0.2365 -0.0083
    2BOLB   C2B   34  14.605  17.352  39.714  0.0167 -0.1748 -0.2149
    2BOLB   C3B   35  14.545  17.700  40.080 -0.0996 -0.0507  0.0122
    2BOLB   C4B   36  14.567  18.049  40.344  0.1729 -0.0622 -0.0867
    2BOLB   NC2   37  13.224  19.107  41.513 -0.2011 -0.0617 -0.2419
    2BOLB   PO2   38  12.809  18.960  41.621  0.0644 -0.1475 -0.2767
    2BOLB   GL3   39  12.813  18.796  41.176  0.1050 -0.0450  0.0762
    2BOLB   GL4   40  13.092  18.880  41.089  0.2513  0.2612 -0.0120
    2BOLB   C1C   41  12.921  18.668  40.699  0.2915 -0.2758  0.2691
    2BOLB   C2C   42  13.206  18.460  40.354 -0.0761 -0.1264  0.0549
    2BOLB   C3C   43  13.239  18.142  40.041  0.2601 -0.0143  0.1339
    2BOLB   C4C   44  13.403  17.747  40.101  0.2509 -0.1849  0.3084
    2BOLB   C1D   45  13.398  18.778  40.733  0.1168 -0.0503 -0.0662
    2BOLB   C2D   46  13.660  18.678  40.745 -0.1335  0.1643 -0.3615
    2BOLB   C3D   47  14.153  18.648  40.637  0.3315 -0.1179  0.2831
    2BOLB   C4D   48  14.431  18.959  40.795  0.0305 -0.1549 -0.1389
    3BOLB   NC1   49  10.055  18.165  34.113 -0.3587 -0.3075 -0.0715
    3BOLB   PO1   50   9.852  18.549  34.182  0.1854 -0.4027 -0.0959
    3BOLB   GL1   51   9.599  18.937  34.542 -0.0439 -0.0629  0.2230
    3BOLB   GL2   52   9.532  19.140  34.372  0.2634  0.0351 -0.0869
    3BOLB   C1A   53   9.319  18.910  34.827 -0.4595 -0.0247  0.2120
    3BOLB   C2A   54   9.121  19.203  35.187 -0.0580  0.0927  0.2040
    3BOLB   C3A   55   8.742  19.317  35.378 -0.2535 -0.1651 -0.1235
    3BOLB   C4A   56   8.388  19.245  35.526  0.2213 -0.1564 -0.2257
    3BOLB   C1B   57   9.274  19.387  34.568  0.0144  0.0551 -0.4035
    3BOLB   C2B   58   9.083  19.557  34.841  0.0806  0.1636 -0.3383
    3BOLB   C3B   59   8.671  19.632  35.005 -0.0807 -0.0818 -0.1366
    3BOLB   C4B   60   8.256  19.519  35.107  0.0302 -0.1959  0.2306
    3BOLB   NC2   61   6.415  20.517  36.233  0.0169  0.1916  0.1737
    3BOLB   PO2   62   6.641  20.754  35.933 -0.0485  0.0816 -0.0073
    3BOLB   GL3   63   7.050  20.533  35.924  0.1043  0.0313 -0.1538
    3BOLB   GL4   64   7.327  20.713  35.971 -0.1738 -0.1711 -0.1337
    3BOLB   C1C   65   7.147  20.092  36.157  0.0248  0.1336  0.0705
    3BOLB   C2C   66   7.402  19.743  35.950 -0.0945  0.1331 -0.2746
    3BOLB   C3C   67   7.548  19.555  35.714  0.1515 -0.0680  0.0358
    3BOLB   C4C   68   7.896  19.374  35.553 -0.0479 -0.3920  0.1934
    3BOLB   C1D   69   7.789  20.749  35.958  0.2293  0.1151 -0.1632
    3BOLB   C2D   70   8.082  20.479  35.905  0.0593  0.1281 -0.0385
    3BOLB   C3D   71   8.412  20.259  35.546  0.3337 -0.1302  0.0099
    3BOLB   C4D   72   8.473  20.082  35.156 -0.0281  0.2922 -0.1080
    4BOLB   NC1   73  11.164   6.551  31.621  0.1230  0.4929  0.2757
    4BOLB   PO1   74  10.939   6.276  31.418  0.0634 -0.0223  0.0086
    4BOLB   GL1   75  10.674   5.888  31.475 -0.1869 -0.2160  0.0279
    4BOLB   GL2   76  10.994   5.765  31.453 -0.3959 -0.1635 -0.1421
    4BOLB   C1A   77  10.354   5.691  31.425 -0.2221 -0.3735 -0.0239
    4BOLB   C2A   78  10.244   5.334  31.280  0.4397 -0.0305 -0.1674
    4BOLB   C3A   79  10.118   4.921  31.100 -0.0422  0.0519  0.0625
    4BOLB   C4A   80   9.890   4.666  31.275 -0.0660 -0.0581  0.0236
    4BOLB   C1B   81  10.736   5.424  31.717  0.1909 -0.0896  0.2009
    4BOLB   C2B   82  10.679   4.933  31.774  0.1498 -0.4058 -0.5211
    4BOLB   C3B   83  10.475   4.797  32.052 -0.1228  0.4528  0.0468
    4BOLB   C4B   84  10.090   4.712  32.193  0.2709  0.0502  0.1037
    4BOLB   NC2   85   7.770   3.203  32.063 -0.2154  0.0046 -0.0256
    4BOLB   PO2   86   7.690   3.571  31.882 -0.0910  0.0199 -0.0395
    4BOLB   GL3   87   7.949   3.972  32.078  0.0580  0.0541 -0.3334
    4BOLB   GL4   88   7.907   4.252  32.008 -0.0978 -0.0016  0.1353
    4BOLB   C1C   89   8.417   4.105  32.014  0.2487 -0.0449  0.3886
    4BOLB   C2C   90   8.685   4.209  31.701  0.0053  0.1338 -0.1418
    4BOLB   C3C   91   9.063   4.251  31.468 -0.3279 -0.1427 -0.0025
    4BOLB   C4C   92   9.397   4.597  31.514  0.1629  0.0066 -0.0138
    4BOLB   C1D   93   8.115   4.505  31.884 -0.2466  0.1502 -0.1096
    4BOLB   C2D   94   8.358   4.716  31.479 -0.3865  0.0815  0.0804
    4BOLB   C3D   95   8.733   4.659  31.526 -0.3010  0.0036  0.0326
    4BOLB   C4D   96   8.962   4.874  31.465 -0.2874 -0.2010  0.3255
    5BOLB   NC1   97  10.558  18.349  25.648  0.1800  0.3281  0.0299
    5BOLB   PO1   98  10.745  18.419  25.141  0.0301 -0.1802 -0.0827
    5BOLB   GL1   99  10.614  18.810  24.969 -0.2801  0.0410  0.0550
    5BOLB   GL2  100  10.470  18.686  24.647  0.1076 -0.1293 -0.0722
    5BOLB   C1A  101  10.401  19.194  25.036  0.1796  0.0828 -0.3297
    5BOLB   C2A  102  10.137  19.546  24.842  0.0567  0.1061 -0.3197
    5BOLB   C3A  103   9.964  19.875  24.671 -0.1456  0.2225 -0.1760
    5BOLB   C4A  104   9.808  20.288  24.486 -0.1769  0.3245 -0.0301
    5BOLB   C1B  105  10.178  19.133  24.543  0.2149  0.1772 -0.0155
    5BOLB   C2B  106   9.865  19.392  24.298  0.0336  0.1068 -0.0008
    5BOLB   C3B  107   9.633  19.812  24.275  0.3668  0.3454 -0.0368
    5BOLB   C4B  108   9.258  20.015  24.361  0.2697  0.2429  0.0569
    5BOLB   NC2  109   7.708  21.085  23.363  0.1861  0.0212  0.0753
    5BOLB   PO2  110   7.452  20.765  23.671  0.2224 -0.0633  0.0828
    5BOLB   GL3  111   7.806  20.811  23.788 -0.1715 -0.0428  0.3035
    5BOLB   GL4  112   8.156  20.682  23.498  0.0838 -0.2312  0.0495
    5BOLB   C1C  113   8.213  20.843  24.037  0.2528 -0.3913  0.2075
    5BOLB   C2C  114   8.562  20.808  24.212  0.0524  0.0248 -0.1632
    5BOLB   C3C  115   9.074  20.801  24.261  0.0977  0.3451 -0.1593
    5BOLB   C4C  116   9.378  20.483  24.444 -0.0925 -0.0301 -0.2796
    5BOLB   C1D  117   8.420  20.387  23.764  0.0201 -0.1445  0.1130
    5BOLB   C2D  118   8.531  19.954  23.833 -0.2212  0.3905 -0.2549
    5BOLB   C3D  119   8.558  19.481  23.893 -0.4885 -0.1674 -0.3536
    5BOLB   C4D  120   8.656  19.069  23.874  0.1387  0.1959  0.1578
    6BOLB   NC1  121  17.966   7.586  37.918  0.0484  0.3007  0.0441
    6BOLB   PO1  122  18.310   7.722  37.936  0.0821 -0.1127 -0.2554
    6BOLB   GL1  123  18.342   7.503  38.339 -0.2930  0.1082  0.1781
    6BOLB   GL2  124  18.220   7.500  38.587  0.2260 -0.1605  0.0054
    6BOLB   C1A  125  18.500   7.051  38.420  0.0883  0.2215  0.0171
    6BOLB   C2A  126  18.817   6.780  38.800 -0.2756  0.2005 -0.2055
    6BOLB   C3A  127  19.148   6.480  39.021 -0.1453  0.0111  0.3064
    6BOLB   C4A  128  19.555   6.350  39.189 -0.1988 -0.2275  0.0115
    6BOLB   C1B  129  18.432   7.253  38.891 -0.2433 -0.4383 -0.1653
    6BOLB   C2B  130  18.549   6.978  39.169 -0.1594 -0.0185  0.1899
    6BOLB   C3B  131  18.887   6.756  39.370 -0.3165  0.1575 -0.0489
    6BOLB   C4B  132  18.915   6.552  39.764  0.0856  0.0057 -0.1353
    6BOLB   NC2  133  20.029   4.743  41.410 -0.1990  0.2234 -0.0018
    6BOLB   PO2  134  20.097   5.176  41.146 -0.3586  0.1718 -0.1917
    6BOLB   GL3  135  20.260   5.245  40.739 -0.2158 -0.0182  0.4587
    6BOLB   GL4  136  20.596   5.477  40.615  0.3695 -0.0519 -0.0873
    6BOLB   C1C  137  20.269   5.228  40.272 -0.3347 -0.1888  0.0041
    6BOLB   C2C  138  20.067   5.375  39.957 -0.2564 -0.2797  0.1780
    6BOLB   C3C  139  19.817   5.659  39.730 -0.0608 -0.3116  0.2453
    6BOLB   C4C  140  19.557   5.997  39.484 -0.2330 -0.2231  0.0686
    6BOLB   C1D  141  20.278   5.735  40.536  0.1206 -0.0609 -0.0232
    6BOLB   C2D  142  19.904   5.773  40.236 -0.0511 -0.0503 -0.3773
    6BOLB   C3D  143  19.612   5.494  40.185 -0.0290  0.3659 -0.5210
    6BOLB   C4D  144  19.582   5.200  39.792 -0.2708 -0.1434 -0.0391
    7BOLB   NC1  145  16.233  26.531  28.775  0.2062 -0.0565  0.2372
    7BOLB   PO1  146  16.447  26.894  28.559 -0.1742 -0.1761  0.1358
    7BOLB   GL1  147  16.646   0.167  28.586  0.1966  0.3233  0.2556
    7BOLB   GL2  148  16.725   0.388  28.914  0.2368 -0.0699 -0.0531
    7BOLB   C1A  149  16.729   0.468  28.170  0.0732 -0.2073 -0.3096
    7BOLB   C2A  150  16.710   0.534  27.763 -0.0818  0.2011  0.2557
    7BOLB   C3A  151  16.447   0.712  27.405 -0.1956 -0.0773 -0.2759
    7BOLB   C4A  152  16.268   0.762  27.050  0.2964  0.4426  0.1191
    7BOLB   C1B  153  16.832   0.807  28.817 -0.2397  0.1479  0.1157
    7BOLB   C2B  154  16.723   1.138  28.624  0.1434 -0.0526  0.4017
    7BOLB   C3B  155  16.519   1.533  28.523  0.2755 -0.1881  0.0593
    7BOLB   C4B  156  16.627   1.881  28.168 -0.3709  0.1093  0.0141
    7BOLB   NC2  157  14.187   0.420  26.902 -0.0827 -0.0707  0.2808
    7BOLB   PO2  158  14.391   0.276  27.353  0.1540  0.0711 -0.0174
    7BOLB   GL3  159  14.259   0.753  27.394  0.3974 -0.1610 -0.0252
    7BOLB   GL4  160  13.939   0.957  27.533  0.0735 -0.1167  0.1525
    7BOLB   C1C  161  14.651   1.035  27.316  0.0773 -0.1533 -0.0872
    7BOLB   C2C  162  14.989   1.079  27.052 -0.3614  0.3887 -0.2031
    7BOLB   C3C  163  15.384   1.232  27.068 -0.1133 -0.3249  0.0869
    7BOLB   C4C  164  15.814   0.991  26.991 -0.1518  0.1124  0.1448
    7BOLB   C1D  165  14.290   1.112  27.712 -0.0981 -0.3542 -0.2019
    7BOLB   C2D  166  14.726   1.297  27.869  0.0983  0.1453 -0.0554
    7BOLB   C3D  167  14.922   1.610  28.016 -0.1812 -0.0039 -0.2327
    7BOLB   C4D  168  14.952   1.996  28.009 -0.0404 -0.0619  0.0070
    8BOLB   NC1  169  24.777  19.859  31.882  0.0098 -0.0360  0.1279
    8BOLB   PO1  170  25.083  19.883  32.191  0.2062  0.1657 -0.0395
    8BOLB   GL1  171  24.781  19.503  32.377 -0.2636 -0.0059  0.0991
    8BOLB   GL2  172  24.547  19.433  32.170 -0.1442  0.0963 -0.0134
    8BOLB   C1A  173  24.559  19.425  32.648  0.0648  0.1206  0.3753
    8BOLB   C2A  174  24.190  19.494  32.739  0.1720 -0.0595 -0.1847
    8BOLB   C3A  175  23.857  19.132  32.815 -0.2504  0.3193 -0.0615
    8BOLB   C4A  176  23.464  18.883  32.957  0.1745  0.3371 -0.1276
    8BOLB   C1B  177  24.473  19.101  32.312 -0.0858  0.0310  0.5171
    8BOLB   C2B  178  24.352  18.705  32.160  0.2184 -0.2454  0.0122
    8BOLB   C3B  179  24.143  18.408  31.876  0.0656  0.1877  0.1913
    8BOLB   C4B  180  23.677  18.164  31.844 -0.2293 -0.1286 -0.3073
    8BOLB   NC2  181  22.407  16.931  32.868 -0.0456  0.1582  0.0060
    8BOLB   PO2  182  22.010  16.939  33.110 -0.1212  0.0147 -0.4447
    8BOLB   GL3  183  22.382  17.288  33.156 -0.1801 -0.1853  0.2177
    8BOLB   GL4  184  22.387  17.443  32.832 -0.1073  0.0385 -0.1936
    8BOLB   C1C  185  22.657  17.487  33.431  0.2986 -0.0851 -0.0267
    8BOLB   C2C  186  22.886  17.960  33.532 -0.2743 -0.1913  0.2928
    8BOLB   C3C  187  23.064  18.375  33.584  0.1026  0.1197 -0.1503
    8BOLB   C4C  188  23.361  18.574  33.263 -0.0429 -0.0219  0.2900
    8BOLB   C1D  189  22.796  17.419  32.550  0.1565  0.0259  0.3694
    8BOLB   C2D  190  22.995  17.702  32.283 -0.3399  0.0134 -0.2706
    8BOLB   C3D  191  23.477  17.780  32.156  0.3175  0.2378 -0.1865
    8BOLB   C4D  192  23.932  17.930  32.173 -0.1765 -0.1180  0.1116
    9BOLB   NC1  193   7.331  14.722  32.292  0.0992 -0.1488 -0.1835
    9BOLB   PO1  194   7.580  14.905  31.933  0.1708  0.0154  0.2048
    9BOLB   GL1  195   7.181  14.919  31.850  0.2314  0.0529  0.2350
    9BOLB   GL2  196   7.112  14.956  31.582 -0.1436  0.1235 -0.2303
    9BOLB   C1A  197   6.746  15.006  31.913 -0.1881 -0.2958  0.0809
    9BOLB   C2A  198   6.316  15.077  31.674 -0.1736 -0.0778  0.1514
    9BOLB   C3A  199   5.969  15.378  31.610 -0.0835 -0.1051  0.0586
    9BOLB   C4A  200   5.627  15.724  31.446  0.1736  0.0621 -0.2585
    9BOLB   C1B  201   6.767  14.791  31.381  0.0659  0.0108  0.1917
    9BOLB   C2B  202   6.329  14.767  31.242 -0.0370  0.0464  0.1277
    9BOLB   C3B  203   5.939  14.884  31.369 -0.3243  0.1566 -0.0305
    9BOLB   C4B  204   5.748  15.210  31.183  0.0938 -0.3036  0.1645
    9BOLB   NC2  205   3.605  15.760  31.254  0.1742 -0.3188 -0.3408
    9BOLB   PO2  206   3.506  16.023  30.866 -0.3614 -0.2328  0.0170
    9BOLB   GL3  207   3.913  16.114  31.110  0.1187 -0.2891 -0.4986
    9BOLB   GL4  208   4.008  16.267  30.741  0.0700 -0.3306  0.0675
    9BOLB   C1C  209   4.342  16.027  30.965  0.3193  0.4537 -0.0251
    9BOLB   C2C  210   4.728  15.999  31.161 -0.0490 -0.0498  0.2759
    9BOLB   C3C  211   5.011  15.767  30.937  0.1257  0.1225 -0.0528
    9BOLB   C4C  212   5.469  15.796  30.978  0.2237 -0.2024 -0.0307
    9BOLB   C1D  213   4.427  16.289  30.528 -0.2870  0.0997  0.0054
    9BOLB   C2D  214   4.636  15.907  30.558  0.0122 -0.0305  0.1106
    9BOLB   C3D  215   4.936  15.495  30.480 -0.2912  0.1160 -0.0837
    9BOLB   C4D  216   4.977  15.235  30.894 -0.3169  0.1083 -0.0239
   10BOLB   NC1  217  22.291  12.379  37.079  0.2099 -0.2999  0.4395
   10BOLB   PO1  218  22.463  11.937  37.179 -0.0758 -0.3536  0.0090
   10BOLB   GL1  219  22.821  12.126  37.179  0.1027 -0.1433 -0.0407
   10BOLB   GL2  220  22.964  12.013  36.864  0.0059 -0.2075 -0.3153
   10BOLB   C1A  221  23.197  11.999  37.359 -0.2483  0.1261 -0.1534
   10BOLB   C2A  222  23.512  11.546  37.254 -0.3614 -0.0872 -0.3152
   10BOLB   C3A  223  23.706  11.273  36.933  0.0880 -0.2349 -0.2691
   10BOLB   C4A  224  24.065  11.148  36.645 -0.0131 -0.0195 -0.3485
   10BOLB   C1B  225  23.358  11.786  36.861  0.1276 -0.1769  0.2183
   10BOLB   C2B  226  23.684  11.679  36.700 -0.1080 -0.1001 -0.1416
   10BOLB   C3B  227  24.059  11.789  36.606  0.1955  0.1189 -0.1025
   10BOLB   C4B  228  24.410  11.816  36.174  0.1697 -0.3294 -0.0165
   10BOLB   NC2  229  25.893  10.823  37.880  0.3281  0.0897  0.0323
   10BOLB   PO2  230  25.805  10.383  37.938  0.1327  0.0317  0.1387
   10BOLB   GL3  231  25.355  10.574  37.817 -0.5498 -0.0262  0.0752
   10BOLB   GL4  232  25.203  10.251  37.768 -0.1523 -0.1152  0.1128
   10BOLB   C1C  233  25.161  10.631  37.405 -0.1215  0.1836 -0.2936
   10BOLB   C2C  234  24.921  10.441  37.076 -0.1224 -0.0622 -0.0532
   10BOLB   C3C  235  24.577  10.532  36.879 -0.3482 -0.1408 -0.0696
   10BOLB   C4C  236  24.389  10.922  36.879  0.0051 -0.0729 -0.1389
   10BOLB   C1D  237  24.768  10.301  37.639 -0.0051 -0.3780  0.0176
   10BOLB   C2D  238  24.463  10.222  37.332 -0.0871 -0.0161  0.2715
   10BOLB   C3D  239  24.163  10.308  37.010  0.0962  0.0095  0.2230
   10BOLB   C4D  240  24.035  10.266  36.613  0.2792  0.0707 -0.0073
   11BOLB   NC1  241  13.676   5.071  26.149  0.2212  0.1428 -0.1346
   11BOLB   PO1  242  13.904   4.791  26.401 -0.0153  0.0176 -0.0311
   11BOLB   GL1  243  13.630   4.561  26.221  0.1825 -0.2052 -0.0341
   11BOLB   GL2  244  13.502   4.542  25.923 -0.1383  0.2439  0.4303
   11BOLB   C1A  245  13.188   4.456  26.369  0.2292 -0.0408 -0.0080
   11BOLB   C2A  246  13.016   4.136  26.591  0.0522  0.1421  0.0682
   11BOLB   C3A  247  12.817   3.760  26.670 -0.3330 -0.0983  0.2883
   11BOLB   C4A  248  12.629   3.442  26.601  0.0359 -0.0569 -0.0455
   11BOLB   C1B  249  13.385   4.107  25.958  0.3019 -0.3240 -0.1259
   11BOLB   C2B  250  13.514   3.736  25.916 -0.1909  0.0763 -0.0523
   11BOLB   C3B  251  13.685   3.332  25.878  0.2012 -0.0903  0.1036
   11BOLB   C4B  252  13.575   2.930  26.066  0.1286  0.4729  0.0332
   11BOLB   NC2  253  12.239   1.024  26.842 -0.0949  0.0594  0.0032
   11BOLB   PO2  254  11.790   1.116  26.799 -0.1727 -0.0971  0.2202
   11BOLB   GL3  255  12.054   1.459  26.806 -0.1163 -0.0985 -0.3907
   11BOLB   GL4  256  12.346   1.451  26.677  0.0592  0.1732  0.1154
   11BOLB   C1C  257  11.978   1.935  26.875  0.0332 -0.0774  0.1743
   11BOLB   C2C  258  12.060   2.363  26.908  0.1293 -0.0595  0.1379
   11BOLB   C3C  259  12.140   2.743  26.692 -0.0836  0.0890  0.0525
   11BOLB   C4C  260  12.265   3.266  26.612 -0.2532  0.0136 -0.3608
   11BOLB   C1D  261  12.653   1.527  26.865  0.3622 -0.1865 -0.1684
   11BOLB   C2D  262  12.988   1.467  26.956 -0.0911  0.0417 -0.0117
   11BOLB   C3D  263  13.317   1.695  27.253  0.0023 -0.2086  0.0610
   11BOLB   C4D  264  13.710   1.890  27.411 -0.0528  0.1522 -0.0165
   12BOLB   NC1  265  10.845  20.787  29.746 -0.1512  0.0937 -0.3392
   12BOLB   PO1  266  10.801  20.343  29.488  0.6648  0.1988  0.1084
   12BOLB   GL1  267  10.537  20.709  29.389 -0.1526  0.1933  0.3458
   12BOLB   GL2  268  10.415  20.692  29.116  0.1857 -0.0812  0.2149
   12BOLB   C1A  269  10.474  21.187  29.425 -0.2140 -0.0343 -0.0866
   12BOLB   C2A  270  10.116  21.355  29.588 -0.2109 -0.0090  0.3455
   12BOLB   C3A  271   9.787  21.487  29.883  0.0778  0.1063  0.0879
   12BOLB   C4A  272   9.409  21.788  29.865 -0.0338  0.0480 -0.2281
   12BOLB   C1B  273  10.144  20.963  29.165 -0.1035  0.2559  0.0660
   12BOLB   C2B  274   9.978  21.404  29.033  0.1452 -0.2492 -0.1102
   12BOLB   C3B  275   9.591  21.451  28.787 -0.1869 -0.0950 -0.0101
   12BOLB   C4B  276   9.412  21.404  28.380  0.2237 -0.2689 -0.1785
   12BOLB   NC2  277   8.035  23.504  30.484  0.0145 -0.2577  0.2613
   12BOLB   PO2  278   7.738  23.394  30.671 -0.3079  0.1295  0.1119
   12BOLB   GL3  279   8.031  22.968  30.639  0.0804  0.1406 -0.0364
   12BOLB   GL4  280   7.997  22.660  30.630 -0.3345  0.1809 -0.1300
   12BOLB   C1C  281   8.516  22.836  30.585 -0.0725  0.0389 -0.2966
   12BOLB   C2C  282   8.715  22.638  30.238 -0.1492 -0.2731 -0.3183
   12BOLB   C3C  283   9.113  22.345  30.208  0.4671 -0.0029  0.0012
   12BOLB   C4C  284   9.360  22.279  29.998  0.1940  0.2224 -0.1014
   12BOLB   C1D  285   7.875  22.276  30.445  0.0481  0.0392  0.2258
   12BOLB   C2D  286   7.891  21.923  30.422  0.0754 -0.0947 -0.0437
   12BOLB   C3D  287   7.823  21.580  30.440 -0.0697  0.1153  0.0008
   12BOLB   C4D  288   7.759  21.212  30.220 -0.0783  0.1664 -0.1592
   13BOLB   NC1  289   6.715  11.567  21.199 -0.2292 -0.1320 -0.0974
   13BOLB   PO1  290   6.971  11.953  20.915  0.1220 -0.1341  0.1060
   13BOLB   GL1  291   7.300  11.852  21.058 -0.1475  0.1306  0.1672
   13BOLB   GL2  292   7.601  12.102  20.927 -0.5019 -0.2132  0.0645
   13BOLB   C1A  293   7.712  11.568  21.184 -0.1058  0.1514 -0.2338
   13BOLB   C2A  294   7.927  11.522  21.626  0.0313  0.1217 -0.0916
   13BOLB   C3A  295   8.005  11.711  22.109  0.1084 -0.3055  0.6221
   13BOLB   C4A  296   7.917  11.460  22.393 -0.0812  0.3509  0.0317
   13BOLB   C1B  297   7.778  12.164  21.385 -0.0993 -0.1036  0.0655
   13BOLB   C2B  298   8.082  12.018  21.721  0.1886  0.2204 -0.1299
   13BOLB   C3B  299   8.490  11.840  21.875  0.1286 -0.1752 -0.0942
   13BOLB   C4B  300   8.915  11.552  21.960 -0.3134  0.3304  0.0619
   13BOLB   NC2  301   5.688  10.885  22.557  0.1952 -0.0196 -0.3218
   13BOLB   PO2  302   5.936  11.069  22.821  0.1350 -0.2164 -0.0917
   13BOLB   GL3  303   6.283  11.245  23.094 -0.1009  0.1790  0.2917
   13BOLB   GL4  304   6.463  11.283  22.851 -0.1352  0.0579 -0.0020
   13BOLB   C1C  305   6.770  11.173  23.257  0.0109 -0.2863 -0.2270
   13BOLB   C2C  306   7.307  11.294  23.237  0.1466 -0.0770 -0.0364
   13BOLB   C3C  307   7.715  11.199  23.127 -0.4018  0.1080 -0.0917
   13BOLB   C4C  308   7.814  11.330  22.816  0.1636 -0.0044 -0.2680
   13BOLB   C1D  309   6.899  11.164  22.764  0.1223 -0.2945 -0.1329
   13BOLB   C2D  310   7.375  11.110  22.738  0.0705 -0.0274  0.0690
   13BOLB   C3D  311   7.737  10.985  22.442 -0.0465 -0.1138  0.1654
   13BOLB   C4D  312   8.152  10.849  22.387 -0.0662  0.1702  0.3238
   14BOLB   NC1  313  26.625  12.911  37.307 -0.0470 -0.3810  0.0689
   14BOLB   PO1  314  26.612  13.257  37.106 -0.0505 -0.2247  0.0555
   14BOLB   GL1  315  26.158  13.146  37.095 -0.2085 -0.3671 -0.2303
   14BOLB   GL2  316  26.009  12.993  36.911 -0.5658  0.4277 -0.4295
   14BOLB   C1A  317  25.778  13.382  37.049  0.0144 -0.2142  0.1597
   14BOLB   C2A  318  25.335  13.539  36.887 -0.3665 -0.2129  0.2693
   14BOLB   C3A  319  24.886  13.757  37.074  0.1646 -0.1426  0.1142
   14BOLB   C4A  320  24.394  14.019  37.178  0.1915 -0.2729 -0.1115
   14BOLB   C1B  321  25.584  12.764  36.860  0.0379 -0.2361  0.1417
   14BOLB   C2B  322  25.288  12.688  36.574 -0.1205 -0.3964  0.1162
   14BOLB   C3B  323  24.889  12.674  36.404  0.0307 -0.1176 -0.0004
   14BOLB   C4B  324  24.500  12.769  36.350 -0.0542 -0.1291  0.0269
   14BOLB   NC2  325  24.877  15.251  39.370  0.1495  0.2346 -0.2899
   14BOLB   PO2  326  25.083  15.345  38.992 -0.0725  0.1592  0.1129
   14BOLB   GL3  327  24.782  15.195  38.760 -0.3132 -0.3076 -0.0601
   14BOLB   GL4  328  24.574  15.106  38.985  0.0784 -0.1731 -0.1389
   14BOLB   C1C  329  24.749  15.010  38.318  0.1870  0.2696  0.2009
   14BOLB   C2C  330  24.512  14.717  38.210 -0.1373  0.0306  0.0619
   14BOLB   C3C  331  24.276  14.632  37.843  0.2222  0.0724 -0.2368
   14BOLB   C4C  332  24.413  14.468  37.429 -0.2271  0.0681 -0.3174
   14BOLB   C1D  333  24.337  15.102  38.524  0.1415 -0.0043 -0.1565
   14BOLB   C2D  334  24.054  15.212  38.118 -0.1733 -0.0904 -0.0936
   14BOLB   C3D  335  23.810  15.085  37.706  0.0607  0.1075 -0.0912
   14BOLB   C4D  336  23.838  14.667  37.512 -0.5536 -0.1840  0.0829
   15BOLB   NC1  337  12.617  11.249  21.528  0.0066  0.0430 -0.0235
   15BOLB   PO1  338  12.177  11.120  21.611  0.0092  0.0597  0.0251
   15BOLB   GL1  339  11.885  10.976  21.274 -0.1843 -0.3363 -0.0445
   15BOLB   GL2  340  11.858  11.239  20.988  0.0162 -0.3025 -0.0718
   15BOLB   C1A  341  11.720  10.723  21.030  0.1163 -0.2866 -0.1799
   15BOLB   C2A  342  11.855  10.607  20.693  0.0466 -0.1474  0.0918
   15BOLB   C3A  343  11.963  10.508  20.305  0.1493 -0.1203  0.0341
   15BOLB   C4A  344  11.705  10.381  19.854 -0.1124 -0.2766 -0.1316
   15BOLB   C1B  345  11.510  11.205  20.706  0.2107 -0.1444 -0.0695
   15BOLB   C2B  346  11.043  11.289  20.537 -0.0420  0.2232  0.0826
   15BOLB   C3B  347  10.758  11.350  20.174 -0.0888  0.2838 -0.1823
   15BOLB   C4B  348  10.443  11.353  19.805 -0.1960  0.0331  0.1019
   15BOLB   NC2  349  11.130   9.219  17.670  0.3287 -0.0636 -0.0388
   15BOLB   PO2  350  10.805   9.045  17.898  0.0183  0.4786 -0.0810
   15BOLB   GL3  351  11.100   9.138  18.177  0.0338  0.2351  0.0966
   15BOLB   GL4  352  11.303   8.936  18.158  0.0092  0.1958 -0.3322
   15BOLB   C1C  353  11.160   9.460  18.636 -0.0813  0.4487 -0.3209
   15BOLB   C2C  354  11.315   9.660  18.961  0.0132  0.3255  0.0470
   15BOLB   C3C  355  11.431   9.980  19.165  0.0735 -0.0454  0.2788
   15BOLB   C4C  356  11.631  10.089  19.564 -0.1874  0.4024  0.1272
   15BOLB   C1D  357  11.533   9.181  18.566  0.2042  0.0416  0.0833
   15BOLB   C2D  358  11.986   9.311  18.663  0.1392 -0.0478  0.0781
   15BOLB   C3D  359  12.411   9.070  18.639  0.0305  0.1153 -0.1188
   15BOLB   C4D  360  12.829   9.001  18.447 -0.2514  0.3724 -0.2028
   16BOLB   NC1  361  23.552  10.579  33.645  0.1255  0.0352 -0.0126
   16BOLB   PO1  362  23.971  10.632  33.837 -0.0134  0.2172 -0.3021
   16BOLB   GL1  363  24.073  11.047  34.042 -0.0870 -0.0194 -0.0416
   16BOLB   GL2  364  24.086  11.287  33.808  0.0961  0.1502  0.0508
   16BOLB   C1A  365  24.430  11.240  34.213  0.1566 -0.2013  0.0844
   16BOLB   C2A  366  24.753  11.412  34.094  0.0997 -0.0519 -0.3544
   16BOLB   C3A  367  25.145  11.273  33.752 -0.3998 -0.2466  0.0573
   16BOLB   C4A  368  25.497  10.933  33.631  0.1610 -0.1770 -0.1912
   16BOLB   C1B  369  24.513  11.265  33.701  0.3233 -0.2018  0.2184
   16BOLB   C2B  370  24.778  11.579  33.564  0.2836 -0.0798  0.0214
   16BOLB   C3B  371  25.076  11.747  33.765  0.1295 -0.1606 -0.0349
   16BOLB   C4B  372  25.312  11.669  34.061  0.4386 -0.2430 -0.4084
   16BOLB   NC2  373   0.196  10.309  34.574 -0.2300  0.0916 -0.1720
   16BOLB   PO2  374   0.238   9.907  34.640  0.0606 -0.1344  0.0083
   16BOLB   GL3  375  26.970   9.966  34.343 -0.3312 -0.0398 -0.3199
   16BOLB   GL4  376  26.853   9.689  34.205  0.0277 -0.0733  0.1647
   16BOLB   C1C  377  26.586  10.259  34.239  0.4634 -0.0291  0.0966
   16BOLB   C2C  378  26.309  10.481  34.062 -0.0222  0.1219 -0.0215
   16BOLB   C3C  379  26.001  10.396  33.790  0.0692  0.0938  0.2219
   16BOLB   C4C  380  25.634  10.510  33.722 -0.0077  0.3565  0.1253
   16BOLB   C1D  381  26.567   9.748  33.941 -0.0729 -0.0892 -0.0994
   16BOLB   C2D  382  26.107   9.857  33.920 -0.0869  0.1206 -0.3051
   16BOLB   C3D  383  25.831   9.978  33.648 -0.1970  0.1813  0.0969
   16BOLB   C4D  384  25.630   9.991  33.238  0.3606 -0.0561 -0.3091
   17BOLB   NC1  385   5.503   5.471  26.614  0.0702 -0.4575  0.1194
   17BOLB   PO1  386   5.901   5.753  26.373  0.1611 -0.0126  0.0751
   17BOLB   GL1  387   6.346   5.788  26.527 -0.5252 -0.0015  0.0026
   17BOLB   GL2  388   6.439   5.477  26.613  0.1466 -0.1138 -0.0621
   17BOLB   C1A  389   6.681   5.836  26.940 -0.0026 -0.3503 -0.0992
   17BOLB   C2A  390   7.051   5.687  26.975  0.2022  0.1044  0.1804
   17BOLB   C3A  391   7.513   5.786  27.060  0.2181  0.0654  0.2334
   17BOLB   C4A  392   7.845   5.399  26.875 -0.1342  0.2213  0.3866
   17BOLB   C1B  393   6.817   5.735  26.463 -0.0926  0.0284  0.0766
   17BOLB   C2B  394   7.063   5.363  26.568  0.0958  0.0501 -0.1868
   17BOLB   C3B  395   7.337   5.325  26.974 -0.0974  0.3422 -0.2120
   17BOLB   C4B  396   7.681   5.114  27.195 -0.0159 -0.0571  0.0108
   17BOLB   NC2  397   7.725   3.103  27.030  0.0648  0.2877 -0.3587
   17BOLB   PO2  398   7.552   3.248  27.382 -0.2040  0.1059 -0.1846
   17BOLB   GL3  399   7.785   3.690  27.218  0.2100  0.0802 -0.1315
   17BOLB   GL4  400   7.622   4.034  27.236  0.1631  0.5086  0.0987
   17BOLB   C1C  401   8.035   4.100  27.028  0.1892  0.0318  0.0031
   17BOLB   C2C  402   8.151   4.531  26.943  0.1080 -0.4043  0.0747
   17BOLB   C3C  403   8.305   4.916  26.915 -0.0824 -0.0853  0.3104
   17BOLB   C4C  404   8.026   5.195  26.688 -0.0777 -0.4561 -0.2097
   17BOLB   C1D  405   7.984   4.128  27.543  0.2753 -0.3126 -0.2919
   17BOLB   C2D  406   8.082   4.449  27.773  0.2277 -0.3987 -0.3115
   17BOLB   C3D  407   8.041   4.812  27.993 -0.0690 -0.0132 -0.2871
   17BOLB   C4D  408   8.015   4.822  28.318  0.1614  0.2293 -0.2712
   18BOLB   NC1  409   6.684   9.612  21.879 -0.3169  0.1807 -0.1275
   18BOLB   PO1  410   6.945   9.294  21.712 -0.4129  0.2214  0.2692
   18BOLB   GL1  411   7.289   9.349  22.040  0.0565  0.0934 -0.0649
   18BOLB   GL2  412   7.406   9.096  22.116 -0.1311 -0.0862  0.0560
   18BOLB   C1A  413   7.400   9.738  22.264 -0.1100  0.0953  0.4799
   18BOLB   C2A  414   7.558   9.976  22.726 -0.2614 -0.0240 -0.0995
   18BOLB   C3A  415   7.733  10.233  23.117  0.0935 -0.0064  0.2963
   18BOLB   C4A  416   7.732  10.044  23.530 -0.3288 -0.2012  0.1316
   18BOLB   C1B  417   7.789   9.135  22.100 -0.0446  0.0815 -0.0766
   18BOLB   C2B  418   8.181   8.957  21.995  0.1753  0.2015  0.0637
   18BOLB   C3B  419   8.520   9.118  21.980 -0.1281  0.1233  0.2850
   18BOLB   C4B  420   8.754   9.385  21.875 -0.1620 -0.1465 -0.0848
   18BOLB   NC2  421   5.908   8.504  22.809 -0.0817 -0.1998 -0.2915
   18BOLB   PO2  422   6.003   8.582  23.291 -0.3001  0.1430  0.1189
   18BOLB   GL3  423   6.423   8.752  23.352  0.0950  0.2329 -0.0048
   18BOLB   GL4  424   6.636   8.581  23.597 -0.0934 -0.1349 -0.2918
   18BOLB   C1C  425   6.704   9.095  23.562 -0.3158  0.2073 -0.2524
   18BOLB   C2C  426   6.897   9.439  23.821 -0.5651 -0.1688 -0.2615
   18BOLB   C3C  427   7.305   9.575  23.959 -0.1128  0.1164 -0.0092
   18BOLB   C4C  428   7.669   9.880  23.956 -0.0344  0.0166 -0.3275
   18BOLB   C1D  429   6.943   8.493  23.771  0.0991  0.1864  0.1836
   18BOLB   C2D  430   7.309   8.537  23.945  0.2419  0.3693  0.2271
   18BOLB   C3D  431   7.569   8.599  24.206 -0.0113 -0.0313 -0.0111
   18BOLB   C4D  432   7.983   8.857  24.144  0.2479  0.2174  0.0473
   19BOLB   NC1  433  17.760  22.156  20.278 -0.1947 -0.1024  0.1547
   19BOLB   PO1  434  17.409  22.005  20.095 -0.0363  0.2358 -0.0490
   19BOLB   GL1  435  17.083  21.719  20.179  0.4792 -0.2784 -0.0889
   19BOLB   GL2  436  16.928  21.561  19.933  0.0039  0.3242  0.0881
   19BOLB   C1A  437  16.889  21.479  20.507  0.0952  0.2007  0.0503
   19BOLB   C2A  438  16.960  21.169  20.899  0.0511 -0.2070 -0.1250
   19BOLB   C3A  439  17.258  21.354  21.223 -0.0568  0.3482 -0.0656
   19BOLB   C4A  440  17.357  21.187  21.728  0.3481 -0.1809 -0.0942
   19BOLB   C1B  441  16.644  21.311  20.154 -0.0633 -0.0388 -0.0970
   19BOLB   C2B  442  16.668  20.969  20.511  0.0005 -0.0738 -0.0175
   19BOLB   C3B  443  16.491  21.029  20.924 -0.0110  0.1038  0.3287
   19BOLB   C4B  444  16.272  20.887  21.244  0.1445  0.3707  0.0182
   19BOLB   NC2  445  18.431  23.339  22.682 -0.2057 -0.2941  0.1647
   19BOLB   PO2  446  18.674  23.042  22.904 -0.1093  0.0489 -0.0528
   19BOLB   GL3  447  18.348  22.850  22.833 -0.3507 -0.1068 -0.1232
   19BOLB   GL4  448  18.339  22.680  23.167 -0.1097  0.2521  0.2865
   19BOLB   C1C  449  18.007  22.610  22.832 -0.1720 -0.0938 -0.2318
   19BOLB   C2C  450  17.924  22.245  22.476 -0.1345 -0.0562 -0.4286
   19BOLB   C3C  451  17.690  21.838  22.319  0.0041  0.0380 -0.2179
   19BOLB   C4C  452  17.509  21.511  21.991  0.0414  0.1335 -0.2715
   19BOLB   C1D  453  18.060  22.365  23.394 -0.0230  0.1430  0.0843
   19BOLB   C2D  454  17.706  22.132  23.668 -0.2442 -0.2265 -0.0589
   19BOLB   C3D  455  17.475  21.910  23.941  0.2135 -0.0793 -0.2113
   19BOLB   C4D  456  17.386  22.121  24.268  0.3427  0.2414  0.0948
   20BOLB   NC1  457   6.148  13.506  39.364  0.1571  0.0947  0.1882
   20BOLB   PO1  458   6.160  13.915  39.199 -0.2209  0.1511 -0.1885
   20BOLB   GL1  459   6.481  13.781  38.965 -0.3422  0.1548 -0.1067
   20BOLB   GL2  460   6.574  13.532  38.957 -0.2965  0.1185 -0.0572
   20BOLB   C1A  461   6.738  14.045  38.726 -0.2612  0.3392  0.2593
   20BOLB   C2A  462   7.218  14.122  38.776  0.0190 -0.2046  0.1248
   20BOLB   C3A  463   7.752  13.927  38.709  0.1936 -0.1054  0.0718
   20BOLB   C4A  464   8.032  13.705  38.952 -0.1345  0.1781  0.0092
   20BOLB   C1B  465   6.816  13.524  38.502 -0.0527  0.2369 -0.4654
   20BOLB   C2B  466   7.028  13.819  38.387  0.3747  0.0200  0.2303
   20BOLB   C3B  467   7.390  14.064  38.320  0.6098  0.0976  0.0814
   20BOLB   C4B  468   7.691  14.313  38.357 -0.0453  0.1187  0.0644
   20BOLB   NC2  469   8.257  13.683  40.896  0.0585 -0.0868  0.0394
   20BOLB   PO2  470   8.418  13.281  41.074  0.1998  0.2772  0.1447
   20BOLB   GL3  471   8.533  13.365  40.652  0.3342  0.0601 -0.0452
   20BOLB   GL4  472   8.473  13.094  40.544 -0.1680  0.1906 -0.2833
   20BOLB   C1C  473   8.528  13.648  40.348 -0.1099  0.0258  0.1260
   20BOLB   C2C  474   8.407  13.700  40.021 -0.3471 -0.2535  0.3450
   20BOLB   C3C  475   8.526  13.698  39.645  0.1940  0.1596  0.0224
   20BOLB   C4C  476   8.322  13.619  39.323 -0.2259 -0.0231 -0.4758
   20BOLB   C1D  477   8.945  13.065  40.432 -0.1492  0.0438 -0.2645
   20BOLB   C2D  478   9.346  13.235  40.256  0.0979  0.2038  0.1626
   20BOLB   C3D  479   9.564  13.315  40.074  0.2005 -0.2204 -0.0889
   20BOLB   C4D  480   9.914  13.672  40.156  0.3911 -0.2279  0.1012
   21BOLB   NC1  481  21.336   5.754  27.445  0.0615  0.0174 -0.1817
   21BOLB   PO1  482  21.213   5.873  27.823  0.0327  0.0290 -0.2644
   21BOLB   GL1  483  21.518   5.429  27.899  0.1945  0.0672 -0.4231
   21BOLB   GL2  484  21.649   5.281  27.731 -0.1570  0.1294 -0.2418
   21BOLB   C1A  485  21.912   5.119  28.119  0.0840  0.2010 -0.0240
   21BOLB   C2A  486  22.055   4.636  28.211 -0.3239  0.0326  0.0348
   21BOLB   C3A  487  22.416   4.562  28.411  0.4682  0.1366  0.3129
   21BOLB   C4A  488  22.750   4.392  28.617 -0.3350 -0.1836 -0.4067
   21BOLB   C1B  489  21.886   4.881  27.700  0.1932 -0.0085 -0.0677
   21BOLB   C2B  490  21.810   4.607  27.420 -0.1782  0.2461  0.0071
   21BOLB   C3B  491  21.965   4.264  27.387  0.1512  0.2585 -0.2182
   21BOLB   C4B  492  22.057   3.941  27.481  0.0614 -0.0941  0.2742
   21BOLB   NC2  493  25.224   3.528  29.262  0.2727 -0.1293 -0.1439
   21BOLB   PO2  494  25.030   3.217  29.061  0.2291 -0.0682 -0.1304
   21BOLB   GL3  495  24.637   3.560  29.138  0.2728  0.0746 -0.0222
   21BOLB   GL4  496  24.799   3.854  29.197 -0.2146 -0.1660 -0.0118
   21BOLB   C1C  497  24.172   3.647  29.282  0.2827  0.2885 -0.1900
   21BOLB   C2C  498  23.850   3.955  29.305  0.2013  0.1015 -0.2779
   21BOLB   C3C  499  23.403   4.003  29.055 -0.2737 -0.3904  0.0525
   21BOLB   C4C  500  23.123   4.287  28.814 -0.0537  0.3805 -0.2735
   21BOLB   C1D  501  24.475   3.992  29.476 -0.1088 -0.0995  0.0137
   21BOLB   C2D  502  24.167   4.146  29.677 -0.2437 -0.1978  0.1928
   21BOLB   C3D  503  23.698   4.151  29.825 -0.0434 -0.2732  0.3169
   21BOLB   C4D  504  23.450   4.449  29.580 -0.0391 -0.2500  0.2618
   22BOLB   NC1  505  23.072   9.885  29.827 -0.0872 -0.1352 -0.0861
   22BOLB   PO1  506  23.347   9.642  29.724 -0.0020  0.2015  0.0861
   22BOLB   GL1  507  23.751   9.440  29.818 -0.0386 -0.0188  0.1186
   22BOLB   GL2  508  23.701   9.199  30.145 -0.0214  0.1607  0.5263
   22BOLB   C1A  509  24.188   9.542  29.779  0.1492 -0.0694  0.2687
   22BOLB   C2A  510  24.544   9.620  29.563  0.1899  0.0325 -0.2134
   22BOLB   C3A  511  24.965   9.597  29.642 -0.1927 -0.0365  0.0975
   22BOLB   C4A  512  25.194   9.276  29.728  0.1393 -0.1496  0.2379
   22BOLB   C1B  513  24.265   9.053  30.176 -0.0628  0.2144  0.0314
   22BOLB   C2B  514  24.472   8.938  30.505 -0.0598 -0.1681 -0.0682
   22BOLB   C3B  515  24.798   8.716  30.594  0.1459  0.0828 -0.0066
   22BOLB   C4B  516  25.090   8.580  30.825  0.3633  0.0606  0.1936
   22BOLB   NC2  517   0.566   8.295  29.568  0.1876 -0.2303 -0.2587
   22BOLB   PO2  518   0.398   8.651  29.851 -0.1956  0.1389  0.1740
   22BOLB   GL3  519   0.017   8.713  29.571 -0.0695  0.2119 -0.0482
   22BOLB   GL4  520   0.224   9.060  29.608 -0.0449 -0.0197  0.1727
   22BOLB   C1C  521  26.725   8.573  29.780 -0.4163  0.2660  0.1656
   22BOLB   C2C  522  26.240   8.617  29.983  0.0740 -0.1822  0.1853
   22BOLB   C3C  523  25.822   8.630  30.087 -0.1994  0.0429  0.1349
   22BOLB   C4C  524  25.496   8.972  29.936 -0.2068  0.1392  0.0595
   22BOLB   C1D  525  26.930   9.136  29.813 -0.0464  0.2277 -0.1167
   22BOLB   C2D  526  26.462   9.034  29.763  0.1611 -0.1727 -0.0407
   22BOLB   C3D  527  25.982   9.065  29.760 -0.1473  0.4490 -0.1298
   22BOLB   C4D  528  25.719   9.306  29.510  0.3254  0.1418 -0.0675
   23BOLB   NC1  529  20.029  14.661  15.301  0.1713  0.1832 -0.1733
   23BOLB   PO1  530  20.174  14.886  15.619  0.1205  0.0125  0.5150
   23BOLB   GL1  531  19.825  14.866  15.875  0.3875  0.4810  0.2268
   23BOLB   GL2  532  19.737  15.154  16.042 -0.1380 -0.1577  0.2360
   23BOLB   C1A  533  19.800  14.826  16.420 -0.1461 -0.0502  0.0398
   23BOLB   C2A  534  19.801  14.829  16.889 -0.1451 -0.4825 -0.0386
   23BOLB   C3A  535  19.586  15.228  17.173  0.0206  0.0389 -0.0499
   23BOLB   C4A  536  19.226  15.343  17.270  0.1301 -0.1186  0.0908
   23BOLB   C1B  537  19.827  15.353  16.305  0.0195  0.0212 -0.0285
   23BOLB   C2B  538  19.672  15.325  16.627  0.2203  0.0122 -0.2932
   23BOLB   C3B  539  19.302  15.475  16.801  0.0991  0.0595  0.2756
   23BOLB   C4B  540  19.056  15.811  16.750 -0.0202 -0.3128  0.1373
   23BOLB   NC2  541  18.725  16.255  15.750  0.1069  0.2620 -0.0435
   23BOLB   PO2  542  18.239  16.333  15.603 -0.1610  0.1360 -0.1958
   23BOLB   GL3  543  18.104  16.339  16.019  0.0220 -0.0086 -0.1909
   23BOLB   GL4  544  17.932  16.604  16.021  0.2784  0.1537 -0.3712
   23BOLB   C1C  545  18.104  16.086  16.386 -0.2175 -0.0683 -0.2191
   23BOLB   C2C  546  18.239  15.706  16.538  0.0081 -0.1882  0.0135
   23BOLB   C3C  547  18.430  15.647  16.891  0.1194  0.1254 -0.1812
   23BOLB   C4C  548  18.794  15.550  17.134 -0.0156 -0.1719  0.1171
   23BOLB   C1D  549  17.724  16.502  16.352  0.0775  0.0588 -0.1651
   23BOLB   C2D  550  17.504  16.620  16.698  0.0034 -0.1602 -0.1196
   23BOLB   C3D  551  17.099  16.461  16.878  0.0073 -0.3424 -0.0739
   23BOLB   C4D  552  16.947  16.250  17.309 -0.1410  0.1485  0.2675
   24BOLB   NC1  553  10.278  16.418  42.662  0.0248 -0.0820 -0.1259
   24BOLB   PO1  554  10.345  16.473  42.253 -0.0181  0.2071  0.2295
   24BOLB   GL1  555  10.319  16.123  42.008  0.1130  0.1248  0.0081
   24BOLB   GL2  556  10.575  15.938  42.160 -0.0729  0.1396 -0.1442
   24BOLB   C1A  557  10.341  15.797  41.679 -0.2383 -0.0034 -0.2142
   24BOLB   C2A  558  10.261  15.798  41.193  0.0833  0.1820  0.3219
   24BOLB   C3A  559  10.454  15.724  40.822  0.1572  0.0713  0.0496
   24BOLB   C4A  560  10.866  15.818  40.980 -0.2110  0.1222 -0.1313
   24BOLB   C1B  561  10.721  15.523  41.908 -0.3012  0.1779 -0.1437
   24BOLB   C2B  562  11.096  15.509  41.768 -0.1390  0.3655  0.0499
   24BOLB   C3B  563  11.344  15.256  41.507 -0.1779 -0.0057  0.0650
   24BOLB   C4B  564  11.627  15.075  41.170 -0.2526  0.4551 -0.1067
   24BOLB   NC2  565   9.818  17.189  41.740  0.1046 -0.0166 -0.2525
   24BOLB   PO2  566   9.809  17.277  41.261 -0.0167 -0.0911 -0.1864
   24BOLB   GL3  567   9.854  16.950  40.898 -0.0139 -0.3356  0.0780
   24BOLB   GL4  568   9.777  16.620  40.720 -0.2903  0.2568 -0.0474
   24BOLB   C1C  569  10.264  16.899  40.652 -0.0443 -0.1427  0.1777
   24BOLB   C2C  570  10.621  16.705  40.663  0.0959 -0.0269  0.1362
   24BOLB   C3C  571  10.965  16.509  40.882  0.1237 -0.1036 -0.1358
   24BOLB   C4C  572  11.093  16.137  40.826 -0.1996 -0.0714 -0.3442
   24BOLB   C1D  573   9.658  16.635  40.270  0.0570  0.1585  0.0367
   24BOLB   C2D  574   9.872  16.698  39.955  0.3123 -0.0094  0.3365
   24BOLB   C3D  575  10.119  16.908  39.719 -0.0327  0.1129 -0.0079
   24BOLB   C4D  576  10.454  16.865  39.297  0.5999  0.0283  0.4299
   25BOLB   NC1  577  12.752  14.950  21.213  0.2191  0.1151 -0.2322
   25BOLB   PO1  578  12.504  14.671  21.273 -0.5531 -0.1805  0.0658
   25BOLB   GL1  579  12.301  14.635  20.944 -0.1431  0.0643 -0.0736
   25BOLB   GL2  580  12.411  14.380  20.813 -0.0432  0.1435 -0.0387
   25BOLB   C1A  581  12.029  14.891  20.617  0.1225  0.1906 -0.0402
   25BOLB   C2A  582  12.054  15.109  20.230 -0.0674  0.1791  0.0701
   25BOLB   C3A  583  12.019  15.452  19.866 -0.2900 -0.2437  0.0712
   25BOLB   C4A  584  11.801  15.504  19.496  0.0124 -0.0921  0.0206
   25BOLB   C1B  585  12.098  14.425  20.551 -0.0675  0.1306 -0.1423
   25BOLB   C2B  586  11.699  14.593  20.376  0.1958 -0.5107 -0.0779
   25BOLB   C3B  587  11.663  14.674  19.993  0.0294  0.0744  0.0078
   25BOLB   C4B  588  11.765  15.007  19.813 -0.0571  0.1638  0.1162
   25BOLB   NC2  589  10.950  16.500  17.566  0.0033 -0.0019 -0.3487
   25BOLB   PO2  590  11.273  16.196  17.498  0.0777  0.2149 -0.1007
   25BOLB   GL3  591  11.052  16.106  17.871 -0.0142 -0.0489 -0.1403
   25BOLB   GL4  592  10.881  16.274  18.171  0.2581 -0.2244  0.5032
   25BOLB   C1C  593  11.254  15.764  18.134  0.4125 -0.1679 -0.0313
   25BOLB   C2C  594  11.450  15.566  18.413  0.1230 -0.0315 -0.0883
   25BOLB   C3C  595  11.420  15.333  18.763 -0.1968 -0.1264 -0.1642
   25BOLB   C4C  596  11.681  15.313  19.023 -0.0735  0.1117 -0.1939
   25BOLB   C1D  597  11.218  16.270  18.581  0.1920  0.0328  0.1653
   25BOLB   C2D  598  11.408  16.409  18.939  0.3235  0.2648 -0.1946
   25BOLB   C3D  599  11.737  16.493  19.268  0.0037 -0.0337 -0.3889
   25BOLB   C4D  600  12.166  16.693  19.115 -0.0279  0.0888  0.2593
   26BOLB   NC1  601  10.122   9.449  36.455  0.2285 -0.3517 -0.3869
   26BOLB   PO1  602  10.437   9.033  36.513 -0.0267  0.0786  0.0316
   26BOLB   GL1  603  10.005   8.926  36.760  0.1542 -0.0233  0.4063
   26BOLB   GL2  604   9.858   9.195  36.831 -0.3228 -0.3473 -0.3540
   26BOLB   C1A  605   9.787   8.547  36.917  0.1736  0.0248 -0.1285
   26BOLB   C2A  606  10.046   8.185  37.239  0.0198  0.0340 -0.1429
   26BOLB   C3A  607  10.106   8.096  37.642 -0.2493 -0.0679 -0.1726
   26BOLB   C4A  608  10.059   7.772  37.991  0.0548  0.0815 -0.0806
   26BOLB   C1B  609   9.554   8.985  37.055 -0.2359 -0.0635 -0.2484
   26BOLB   C2B  610   9.298   8.875  37.385 -0.1215 -0.0957 -0.1792
   26BOLB   C3B  611   9.362   8.694  37.717  0.1646 -0.1280  0.3124
   26BOLB   C4B  612   9.360   8.249  37.942 -0.3120 -0.0486  0.3239
   26BOLB   NC2  613   8.203   6.331  39.237 -0.0059 -0.3068  0.1334
   26BOLB   PO2  614   8.391   6.419  38.936 -0.0530  0.0170 -0.0314
   26BOLB   GL3  615   8.772   6.570  38.671 -0.0570  0.3171  0.2789
   26BOLB   GL4  616   9.119   6.609  38.861  0.3615 -0.2738 -0.1107
   26BOLB   C1C  617   8.985   6.762  38.344 -0.0459  0.0818 -0.0636
   26BOLB   C2C  618   9.317   6.946  38.196  0.1457  0.4011  0.0139
   26BOLB   C3C  619   9.675   7.226  38.197 -0.1214 -0.1705  0.3537
   26BOLB   C4C  620   9.972   7.426  38.161  0.1816 -0.0382 -0.0026
   26BOLB   C1D  621   9.054   7.088  38.775  0.1511 -0.0686  0.1683
   26BOLB   C2D  622   9.254   7.425  38.385  0.4251 -0.0106  0.0196
   26BOLB   C3D  623   9.496   7.773  38.092 -0.1631 -0.0324  0.4591
   26BOLB   C4D  624   9.565   7.817  37.698 -0.0920  0.1200  0.5489
   27BOLB   NC1  625  15.639  18.933  42.386 -0.0217  0.0939 -0.0239
   27BOLB   PO1  626  15.321  18.731  42.266  0.1377  0.1364 -0.4825
   27BOLB   GL1  627  15.346  18.458  42.024 -0.6359  0.5276  0.0884
   27BOLB   GL2  628  15.472  18.161  42.176  0.0551 -0.1939  0.1356
   27BOLB   C1A  629  15.335  18.236  41.708  0.0039  0.1744  0.0469
   27BOLB   C2A  630  15.196  18.184  41.336 -0.0342  0.3559  0.0019
   27BOLB   C3A  631  15.385  18.148  40.935  0.0368 -0.0638 -0.2277
   27BOLB   C4A  632  15.482  17.976  40.569  0.0642 -0.0127  0.1194
   27BOLB   C1B  633  15.326  17.786  42.051 -0.0088 -0.2496  0.0483
   27BOLB   C2B  634  15.263  17.650  41.659 -0.0119  0.2587 -0.0609
   27BOLB   C3B  635  15.442  17.348  41.368  0.2733 -0.2006  0.0359
   27BOLB   C4B  636  15.406  17.073  41.053  0.0523  0.2211 -0.0614
   27BOLB   NC2  637  15.923  17.458  38.089  0.0537 -0.2182 -0.0657
   27BOLB   PO2  638  15.504  17.386  38.303  0.1350  0.0648  0.0769
   27BOLB   GL3  639  15.491  17.723  38.375  0.0562 -0.0069  0.2324
   27BOLB   GL4  640  15.645  17.985  38.267  0.1788 -0.0501  0.1071
   27BOLB   C1C  641  15.664  17.862  38.826  0.1331 -0.1838 -0.1726
   27BOLB   C2C  642  15.403  18.136  39.141  0.1873 -0.1240  0.0292
   27BOLB   C3C  643  15.444  18.038  39.576 -0.1763  0.0097  0.1377
   27BOLB   C4C  644  15.407  17.984  40.053  0.0733 -0.1817 -0.0385
   27BOLB   C1D  645  16.017  18.350  38.096 -0.0071  0.1478 -0.2185
   27BOLB   C2D  646  16.283  18.608  38.316  0.1478 -0.0309  0.3848
   27BOLB   C3D  647  16.455  19.081  38.464 -0.4600 -0.3433 -0.1014
   27BOLB   C4D  648  16.452  19.465  38.312  0.0692 -0.0126  0.3449
   28BOLB   NC1  649  11.772   8.182  24.231  0.0487  0.2543 -0.2304
   28BOLB   PO1  650  11.425   8.432  24.324 -0.1749 -0.2237  0.1607
   28BOLB   GL1  651  11.107   8.312  24.145  0.2464  0.0728  0.2222
   28BOLB   GL2  652  11.294   8.116  24.007 -0.1072  0.1121  0.1554
   28BOLB   C1A  653  10.767   8.191  23.980 -0.0201  0.1971 -0.2343
   28BOLB   C2A  654  10.443   7.925  23.749  0.1608 -0.0568 -0.1902
   28BOLB   C3A  655  10.469   7.548  23.562  0.3007 -0.0752  0.2054
   28BOLB   C4A  656  10.250   7.279  23.316 -0.1838 -0.1691 -0.6273
   28BOLB   C1B  657  11.051   7.731  23.875  0.4847  0.1243  0.0444
   28BOLB   C2B  658  10.927   7.367  23.815  0.2445  0.2103 -0.3076
   28BOLB   C3B  659  10.642   7.067  23.436  0.1682 -0.0117 -0.1126
   28BOLB   C4B  660  10.464   6.776  23.193  0.0727  0.0121  0.1169
   28BOLB   NC2  661   8.963   6.000  21.638  0.2581 -0.0976 -0.0221
   28BOLB   PO2  662   8.957   6.352  21.306 -0.0832 -0.0047 -0.1985
   28BOLB   GL3  663   9.185   6.559  21.701  0.3378 -0.1682 -0.0128
   28BOLB   GL4  664   9.433   6.442  21.728  0.0536  0.1483  0.2650
   28BOLB   C1C  665   9.249   6.752  22.049 -0.1579  0.0405 -0.3198
   28BOLB   C2C  666   9.489   6.813  22.393 -0.1498 -0.2907 -0.0198
   28BOLB   C3C  667   9.881   6.822  22.677 -0.0092  0.0054 -0.0360
   28BOLB   C4C  668   9.995   7.095  23.012  0.1579 -0.2854  0.0902
   28BOLB   C1D  669   9.771   6.643  22.003  0.0030  0.3055 -0.1742
   28BOLB   C2D  670  10.151   6.817  22.204  0.0776  0.0804 -0.3839
   28BOLB   C3D  671  10.324   7.076  22.597 -0.0206  0.0253 -0.2220
   28BOLB   C4D  672  10.577   7.216  22.967  0.0197 -0.0029  0.0184
   29BOLB   NC1  673  23.943  11.756  30.025 -0.1252  0.0132 -0.1455
   29BOLB   PO1  674  23.983  12.247  30.290  0.4577 -0.1742 -0.0864
   29BOLB   GL1  675  24.262  12.511  30.375  0.0814  0.1448 -0.0181
   29BOLB   GL2  676  24.224  12.839  30.498 -0.1815  0.1158 -0.0127
   29BOLB   C1A  677  24.677  12.463  30.172  0.0695  0.2047 -0.0397
   29BOLB   C2A  678  24.990  12.163  30.214 -0.2093 -0.2329  0.3390
   29BOLB   C3A  679  25.050  11.754  30.121  0.1334 -0.0488 -0.1893
   29BOLB   C4A  680  25.293  11.382  30.127 -0.2585  0.1722 -0.0613
   29BOLB   C1B  681  24.607  12.907  30.298  0.2098 -0.4110 -0.2654
   29BOLB   C2B  682  25.070  12.734  30.260  0.2562 -0.1778  0.1005
   29BOLB   C3B  683  25.499  12.841  30.168  0.1826  0.1111 -0.4247
   29BOLB   C4B  684  25.840  12.777  30.112  0.1836 -0.2360  0.2577
   29BOLB   NC2  685   0.894  11.079  30.250  0.1990 -0.0584 -0.1542
   29BOLB   PO2  686   0.562  11.139  29.992 -0.0697 -0.0144 -0.3241
   29BOLB   GL3  687   0.214  11.197  29.678 -0.0415 -0.4277 -0.7433
   29BOLB   GL4  688   0.061  11.093  29.376  0.2353 -0.0123 -0.1636
   29BOLB   C1C  689  26.867  11.115  29.825 -0.0222  0.2044  0.0546
   29BOLB   C2C  690  26.485  10.881  30.069  0.0852  0.1548 -0.3178
   29BOLB   C3C  691  26.041  10.934  30.243  0.2401 -0.1883 -0.2639
   29BOLB   C4C  692  25.594  11.096  30.200 -0.1889 -0.0716 -0.0190
   29BOLB   C1D  693  26.770  11.332  29.440  0.0009 -0.2953  0.1549
   29BOLB   C2D  694  26.435  11.394  29.651 -0.0965  0.1220 -0.0626
   29BOLB   C3D  695  26.036  11.585  29.687 -0.1903 -0.3389 -0.0532
   29BOLB   C4D  696  25.655  11.742  29.578  0.0885 -0.0476 -0.2468
   30BOLB   NC1  697  20.328  16.599  35.272 -0.2152 -0.2585  0.1584
   30BOLB   PO1  698  20.727  16.809  35.201 -0.1610 -0.0945 -0.1314
   30BOLB   GL1  699  20.970  17.024  35.466  0.2277 -0.1016  0.3151
   30BOLB   GL2  700  21.359  17.302  35.330 -0.2657 -0.3595  0.7461
   30BOLB   C1A  701  21.328  17.049  35.750 -0.2173 -0.0158  0.1197
   30BOLB   C2A  702  21.616  16.887  36.005  0.0189 -0.1482 -0.1213
   30BOLB   C3A  703  22.050  17.012  36.253 -0.1344  0.1879 -0.0372
   30BOLB   C4A  704  22.211  17.284  36.446 -0.1747  0.2960  0.2484
   30BOLB   C1B  705  21.625  17.541  35.569 -0.1776  0.0554 -0.0392
   30BOLB   C2B  706  21.892  17.687  35.411  0.0120 -0.2007  0.0072
   30BOLB   C3B  707  22.303  17.565  35.499 -0.2515 -0.0069 -0.2865
   30BOLB   C4B  708  22.676  17.727  35.593  0.1769 -0.1375  0.0756
   30BOLB   NC2  709  23.936  18.770  37.539 -0.2295  0.0829  0.2784
   30BOLB   PO2  710  23.549  18.622  37.807  0.1775  0.2266 -0.0160
   30BOLB   GL3  711  23.547  18.477  37.419  0.0624 -0.0244 -0.0457
   30BOLB   GL4  712  23.488  18.060  37.487  0.0388 -0.1901 -0.2556
   30BOLB   C1C  713  23.585  18.408  36.933 -0.3417 -0.2289 -0.1544
   30BOLB   C2C  714  23.240  18.322  36.657  0.1903  0.1460  0.0488
   30BOLB   C3C  715  22.966  17.787  36.719 -0.0206 -0.4800 -0.0406
   30BOLB   C4C  716  22.553  17.632  36.596  0.2237  0.0723 -0.0738
   30BOLB   C1D  717  23.203  18.089  37.132  0.3403 -0.2584 -0.0478
   30BOLB   C2D  718  22.829  18.279  36.886  0.1184  0.2903  0.0168
   30BOLB   C3D  719  22.646  18.133  36.474  0.1732  0.1326 -0.1220
   30BOLB   C4D  720  22.534  18.066  36.004  0.0719  0.1158 -0.1542
   31BOLB   NC1  721   8.110  15.870  33.755  0.0810 -0.1543 -0.0523
   31BOLB   PO1  722   8.018  15.513  33.568 -0.0073 -0.0311 -0.1569
   31BOLB   GL1  723   7.691  15.458  33.502  0.3705 -0.1494  0.2312
   31BOLB   GL2  724   7.522  15.450  33.320  0.2199  0.1881  0.1548
   31BOLB   C1A  725   7.339  15.607  33.747  0.2209 -0.1672  0.2080
   31BOLB   C2A  726   6.848  15.653  33.819 -0.2682 -0.1246 -0.0236
   31BOLB   C3A  727   6.439  15.531  33.790 -0.0276 -0.3286  0.0877
   31BOLB   C4A  728   6.024  15.442  33.809  0.0549 -0.1111  0.1012
   31BOLB   C1B  729   7.103  15.497  33.243 -0.3569 -0.2460  0.0096
   31BOLB   C2B  730   6.598  15.510  33.201 -0.3638 -0.1171  0.0829
   31BOLB   C3B  731   6.201  15.336  33.075 -0.1939 -0.0034  0.1459
   31BOLB   C4B  732   5.735  15.154  32.892  0.1720 -0.0807  0.1506
   31BOLB   NC2  733   4.033  15.105  34.510 -0.0744 -0.0417  0.0463
   31BOLB   PO2  734   3.792  15.535  34.432  0.0307  0.0828 -0.2644
   31BOLB   GL3  735   4.039  15.631  34.051 -0.0404 -0.0570  0.2564
   31BOLB   GL4  736   3.834  15.769  33.775  0.1454  0.0368 -0.4537
   31BOLB   C1C  737   4.231  15.380  33.826 -0.0226 -0.0284  0.0285
   31BOLB   C2C  738   4.649  15.474  33.806  0.4277 -0.1450 -0.0755
   31BOLB   C3C  739   5.165  15.535  33.719 -0.2905 -0.3210 -0.3037
   31BOLB   C4C  740   5.587  15.476  33.703 -0.0275 -0.1297  0.1277
   31BOLB   C1D  741   4.249  15.789  33.619  0.0119  0.1746  0.0225
   31BOLB   C2D  742   4.604  15.828  33.426  0.2087 -0.1576  0.1029
   31BOLB   C3D  743   4.869  16.020  33.135 -0.0635 -0.0707  0.1870
   31BOLB   C4D  744   5.096  15.890  32.862 -0.0430  0.0737 -0.0910
   32BOLB   NC1  745  11.793   3.302  22.659  0.0789  0.0937 -0.5244
   32BOLB   PO1  746  11.519   3.668  22.679  0.3458  0.1864 -0.2856
   32BOLB   GL1  747  11.695   3.847  22.918 -0.0602  0.1083  0.0261
   32BOLB   GL2  748  11.801   3.606  23.141  0.0987 -0.0463 -0.2027
   32BOLB   C1A  749  11.705   4.285  23.241  0.1101  0.0592 -0.0776
   32BOLB   C2A  750  11.652   4.644  23.431 -0.0838  0.0930 -0.0646
   32BOLB   C3A  751  11.527   4.725  23.853  0.4516 -0.0469  0.1986
   32BOLB   C4A  752  11.379   4.673  24.223  0.0951  0.2634  0.0990
   32BOLB   C1B  753  11.975   3.886  23.459 -0.0676  0.3204  0.0526
   32BOLB   C2B  754  12.102   4.247  23.652 -0.1252  0.1284 -0.4435
   32BOLB   C3B  755  12.059   4.687  23.776  0.4479  0.1201 -0.1538
   32BOLB   C4B  756  11.955   5.077  23.975  0.0329  0.2123  0.0951
   32BOLB   NC2  757  10.913   2.594  22.907  0.0402  0.0596 -0.2037
   32BOLB   PO2  758  11.310   2.817  23.207  0.4115 -0.1480 -0.0843
   32BOLB   GL3  759  11.404   3.157  23.361 -0.3247  0.0935 -0.1264
   32BOLB   GL4  760  11.298   3.511  23.208 -0.1360  0.3783 -0.0786
   32BOLB   C1C  761  11.650   3.455  23.595  0.3723  0.0835 -0.0152
   32BOLB   C2C  762  11.586   3.738  24.013  0.0824  0.1019  0.1264
   32BOLB   C3C  763  11.289   3.971  24.288 -0.0144  0.0636 -0.2206
   32BOLB   C4C  764  11.283   4.319  24.311 -0.1291 -0.2390  0.3803
   32BOLB   C1D  765  11.430   3.902  23.412  0.1512 -0.0189 -0.0965
   32BOLB   C2D  766  11.588   4.216  23.752 -0.0662  0.3185  0.0837
   32BOLB   C3D  767  11.732   4.346  24.054 -0.1734  0.3091  0.1423
   32BOLB   C4D  768  11.957   4.648  24.288 -0.3918  0.4268 -0.0997
   33BOLB   NC1  769  14.031   4.358  27.607  0.1040 -0.0946  0.0365
   33BOLB   PO1  770  13.667   4.401  27.825  0.1913  0.0654  0.1292
   33BOLB   GL1  771  13.282   4.337  27.981 -0.1366  0.1643 -0.0338
   33BOLB   GL2  772  12.952   4.505  28.017 -0.0778  0.2614 -0.2042
   33BOLB   C1A  773  13.093   3.838  27.949  0.2952  0.0278 -0.2914
   33BOLB   C2A  774  12.716   3.638  28.092 -0.1112 -0.1407  0.2496
   33BOLB   C3A  775  12.436   3.398  27.853 -0.1721 -0.1345  0.5644
   33BOLB   C4A  776  12.067   3.464  27.824 -0.0625 -0.0289 -0.0337
   33BOLB   C1B  777  12.619   4.142  27.938  0.0217 -0.1688 -0.1068
   33BOLB   C2B  778  12.426   3.872  27.650 -0.2673  0.0231 -0.2756
   33BOLB   C3B  779  12.311   3.706  27.398 -0.3729 -0.0997 -0.0268
   33BOLB   C4B  780  12.444   3.482  27.038  0.0641 -0.2176 -0.0678
   33BOLB   NC2  781  11.878   5.709  28.044  0.0387 -0.0553  0.1872
   33BOLB   PO2  782  11.600   5.470  27.822 -0.3195 -0.4409 -0.3075
   33BOLB   GL3  783  11.358   5.069  27.935  0.1519 -0.1552  0.1698
   33BOLB   GL4  784  11.226   5.274  28.050 -0.4601 -0.0607 -0.2974
   33BOLB   C1C  785  11.231   4.679  27.992 -0.4386  0.4140 -0.0184
   33BOLB   C2C  786  11.409   4.410  27.697 -0.0205  0.0299 -0.0386
   33BOLB   C3C  787  11.601   4.046  27.471 -0.1223 -0.1883 -0.1354
   33BOLB   C4C  788  11.871   3.627  27.537 -0.0716  0.2223  0.0586
   33BOLB   C1D  789  10.821   5.061  27.892 -0.0570 -0.1861  0.0540
   33BOLB   C2D  790  10.657   4.937  27.526 -0.1527  0.0365  0.1586
   33BOLB   C3D  791  10.782   5.121  27.148  0.0105  0.0216  0.1873
   33BOLB   C4D  792  11.041   5.329  26.739 -0.0370  0.2234 -0.1822
   34BOLB   NC1  793  26.091  12.106  20.624 -0.1217  0.1607 -0.4016
   34BOLB   PO1  794  26.070  12.400  20.934 -0.0330  0.1810 -0.4810
   34BOLB   GL1  795  25.717  12.202  20.988 -0.0807  0.1484  0.4093
   34BOLB   GL2  796  25.593  11.761  21.073  0.1651 -0.0851  0.1754
   34BOLB   C1A  797  25.284  12.130  20.826  0.1494 -0.1743 -0.1901
   34BOLB   C2A  798  25.002  12.404  20.565 -0.0466  0.0550 -0.0049
   34BOLB   C3A  799  24.753  12.569  20.306 -0.2285  0.1701  0.1557
   34BOLB   C4A  800  24.357  12.566  20.339 -0.0591  0.0321 -0.0806
   34BOLB   C1B  801  25.215  11.995  21.288 -0.2598 -0.0816 -0.1642
   34BOLB   C2B  802  24.985  12.232  21.506  0.0543  0.0392  0.0824
   34BOLB   C3B  803  24.923  12.347  21.978  0.0870  0.0585 -0.0142
   34BOLB   C4B  804  24.774  12.815  22.106 -0.1341 -0.0385  0.1771
   34BOLB   NC2  805  25.950  13.878  20.041  0.0313  0.5143 -0.0715
   34BOLB   PO2  806  25.610  13.646  19.933  0.2265 -0.1280  0.4208
   34BOLB   GL3  807  25.320  13.469  20.149 -0.2066 -0.1204 -0.0314
   34BOLB   GL4  808  25.109  13.147  20.050 -0.0697 -0.0504  0.0918
   34BOLB   C1C  809  25.107  13.526  20.518 -0.1627 -0.2495  0.1030
   34BOLB   C2C  810  24.769  13.371  20.737 -0.1567  0.1682 -0.0352
   34BOLB   C3C  811  24.348  13.212  20.761 -0.3516  0.1040 -0.3960
   34BOLB   C4C  812  24.177  12.819  20.527 -0.4904  0.0926  0.0459
   34BOLB   C1D  813  24.714  12.982  20.137  0.3535  0.1591 -0.0927
   34BOLB   C2D  814  24.409  12.784  19.845  0.1999  0.2948  0.0806
   34BOLB   C3D  815  23.953  12.625  19.973 -0.2481  0.2628 -0.1852
   34BOLB   C4D  816  23.567  12.677  19.722 -0.0327  0.0970  0.1064
   35BOLB   NC1  817  21.773  16.894  34.411 -0.1081 -0.0809  0.0683
   35BOLB   PO1  818  21.957  16.692  34.049 -0.0632 -0.2020  0.0381
   35BOLB   GL1  819  22.095  17.047  33.986  0.0835 -0.2204  0.2163
   35BOLB   GL2  820  22.224  17.136  33.695  0.5760  0.0003 -0.2105
   35BOLB   C1A  821  22.453  17.169  34.223  0.2137 -0.0656  0.1504
   35BOLB   C2A  822  22.665  17.540  34.100  0.1744  0.3117 -0.0721
   35BOLB   C3A  823  23.041  17.736  33.973  0.1608  0.0107  0.0558
   35BOLB   C4A  824  23.419  17.907  33.849  0.3485 -0.0393  0.1522
   35BOLB   C1B  825  22.273  17.612  33.846 -0.0385 -0.1787  0.0577
   35BOLB   C2B  826  22.437  17.939  33.769 -0.1899 -0.1106 -0.2032
   35BOLB   C3B  827  22.500  18.223  33.309 -0.1623 -0.1173  0.0125
   35BOLB   C4B  828  22.891  18.304  33.085 -0.2571  0.0664  0.1736
   35BOLB   NC2  829  25.498  19.842  33.245  0.4002  0.0236 -0.4314
   35BOLB   PO2  830  25.120  19.677  33.195 -0.1736 -0.0588  0.2527
   35BOLB   GL3  831  24.733  19.440  33.147  0.2876 -0.1277  0.3072
   35BOLB   GL4  832  24.778  19.313  33.398  0.2696  0.1016  0.0496
   35BOLB   C1C  833  24.288  19.123  33.158  0.0151  0.0245  0.2372
   35BOLB   C2C  834  24.108  18.937  33.382  0.0637  0.1953 -0.0092
   35BOLB   C3C  835  23.859  18.577  33.602  0.0375  0.2026 -0.0234
   35BOLB   C4C  836  23.561  18.254  33.656  0.2538 -0.1454 -0.0503
   35BOLB   C1D  837  24.691  18.841  33.272  0.2319  0.0845 -0.1032
   35BOLB   C2D  838  24.464  18.493  33.253 -0.2401  0.0221  0.0114
   35BOLB   C3D  839  24.295  18.265  33.013  0.1699  0.0941  0.1555
   35BOLB   C4D  840  24.070  18.024  32.760 -0.2029  0.1022 -0.0608
   36BOLB   NC1  841  20.861  14.535  42.660  0.1191  0.1809  0.0863
   36BOLB   PO1  842  20.547  14.779  42.406 -0.2410 -0.1102  0.1549
   36BOLB   GL1  843  20.426  14.479  42.142  0.1395  0.2013 -0.0668
   36BOLB   GL2  844  20.258  14.354  42.321  0.0086  0.0886  0.2032
   36BOLB   C1A  845  20.313  14.320  41.731  0.0502 -0.0294  0.0425
   36BOLB   C2A  846  20.206  14.338  41.268 -0.1882  0.0935  0.0085
   36BOLB   C3A  847  20.282  14.237  40.797  0.1135  0.1678  0.1946
   36BOLB   C4A  848  20.043  14.041  40.512  0.1591 -0.4516 -0.1114
   36BOLB   C1B  849  19.980  14.239  42.024  0.2159 -0.1209  0.4205
   36BOLB   C2B  850  19.744  13.890  41.787  0.3357  0.0810  0.1274
   36BOLB   C3B  851  19.701  13.625  41.464 -0.2619 -0.1961 -0.0470
   36BOLB   C4B  852  19.732  13.320  41.134  0.1566 -0.1390 -0.0189
   36BOLB   NC2  853  17.914  14.091  38.877 -0.1379 -0.0192  0.2801
   36BOLB   PO2  854  18.245  14.129  39.259  0.1174  0.2454  0.1913
   36BOLB   GL3  855  18.612  14.026  39.356  0.0633  0.2789 -0.0620
   36BOLB   GL4  856  18.602  13.674  39.487  0.2739  0.0297 -0.1798
   36BOLB   C1C  857  19.053  13.923  39.446 -0.0442  0.1718 -0.0739
   36BOLB   C2C  858  19.555  13.851  39.638 -0.2329  0.0753 -0.1340
   36BOLB   C3C  859  19.889  13.857  39.809 -0.0237  0.0332  0.3052
   36BOLB   C4C  860  20.082  13.917  40.090  0.0149  0.2574 -0.2495
   36BOLB   C1D  861  18.734  13.790  39.846  0.0395  0.0324 -0.0049
   36BOLB   C2D  862  18.653  14.037  40.104 -0.0150 -0.3572  0.0473
   36BOLB   C3D  863  18.722  14.103  40.530  0.1325  0.3334 -0.0495
   36BOLB   C4D  864  18.912  14.099  40.905 -0.2089 -0.2338  0.0852
   37BOLB   NC1  865  12.549  19.872  35.093 -0.0264  0.2341 -0.0889
   37BOLB   PO1  866  12.886  19.869  35.412  0.1585 -0.0932 -0.2035
   37BOLB   GL1  867  12.879  20.221  35.645 -0.2232  0.0411  0.1635
   37BOLB   GL2  868  13.240  20.292  35.825 -0.2273  0.2544 -0.2984
   37BOLB   C1A  869  12.853  20.575  35.900  0.1005 -0.2809 -0.1209
   37BOLB   C2A  870  13.175  21.047  35.914  0.1250  0.0001  0.0301
   37BOLB   C3A  871  13.142  21.371  36.247  0.0290 -0.1270  0.0450
   37BOLB   C4A  872  12.724  21.403  36.499  0.0304  0.0111  0.1800
   37BOLB   C1B  873  13.356  20.562  36.111  0.4104  0.3614  0.0023
   37BOLB   C2B  874  13.526  20.793  36.371 -0.2454  0.1676 -0.0335
   37BOLB   C3B  875  13.691  20.764  36.737 -0.0069  0.1386  0.0974
   37BOLB   C4B  876  13.470  20.806  37.193  0.0630  0.1124  0.0653
   37BOLB   NC2  877  11.767  23.180  37.921 -0.0653 -0.0634 -0.0740
   37BOLB   PO2  878  11.548  23.177  37.395 -0.1297  0.1702 -0.0478
   37BOLB   GL3  879  11.914  22.913  37.364  0.5235 -0.0524  0.1345
   37BOLB   GL4  880  11.778  22.622  37.342  0.1663  0.1424  0.1140
   37BOLB   C1C  881  12.257  22.604  37.190  0.0682  0.1375  0.1697
   37BOLB   C2C  882  12.279  22.235  37.075  0.1203  0.0805  0.1131
   37BOLB   C3C  883  12.330  21.888  36.919 -0.0637  0.0832 -0.1875
   37BOLB   C4C  884  12.529  21.535  36.881  0.1457  0.0486  0.2612
   37BOLB   C1D  885  11.847  22.384  37.727 -0.0002 -0.0342 -0.0073
   37BOLB   C2D  886  12.096  22.077  37.637  0.1530  0.0119 -0.1919
   37BOLB   C3D  887  12.292  21.650  37.435  0.1028 -0.0308  0.0870
   37BOLB   C4D  888  12.219  21.225  37.267 -0.2076  0.1762  0.0329
   38BOLB   NC1  889   9.254  14.494  25.098 -0.1181 -0.0923 -0.2909
   38BOLB   PO1  890   8.898  14.710  25.434 -0.2798  0.0108 -0.1539
   38BOLB   GL1  891   8.622  14.850  25.113 -0.0984  0.0350 -0.0965
   38BOLB   GL2  892   8.407  15.072  25.153 -0.0920  0.0676 -0.0942
   38BOLB   C1A  893   8.381  14.745  24.730 -0.1277  0.1053  0.0715
   38BOLB   C2A  894   8.025  14.778  24.415 -0.1332  0.1882 -0.0324
   38BOLB   C3A  895   7.671  15.031  24.429 -0.0806 -0.1909  0.0151
   38BOLB   C4A  896   7.298  15.146  24.108  0.4777  0.0346 -0.1248
   38BOLB   C1B  897   8.150  15.190  24.963  0.2661  0.1707 -0.2856
   38BOLB   C2B  898   7.712  15.281  24.865 -0.4382  0.0808  0.1739
   38BOLB   C3B  899   7.475  15.567  24.515  0.1297  0.1496  0.1278
   38BOLB   C4B  900   7.282  15.722  24.110 -0.0958  0.1076  0.1113
   38BOLB   NC2  901   5.111  13.782  22.977  0.1224  0.2128  0.0124
   38BOLB   PO2  902   5.127  14.064  23.348 -0.2544 -0.0382 -0.1202
   38BOLB   GL3  903   5.452  14.184  23.686 -0.3543  0.1067  0.0432
   38BOLB   GL4  904   5.758  14.015  23.595 -0.0196  0.1871 -0.0912
   38BOLB   C1C  905   5.761  14.455  23.813 -0.0089 -0.1632 -0.2005
   38BOLB   C2C  906   6.118  14.628  23.955  0.2267  0.2038  0.1816
   38BOLB   C3C  907   6.578  14.797  23.877  0.1638  0.1407 -0.0997
   38BOLB   C4C  908   6.928  14.918  24.173  0.2625  0.2259 -0.0473
   38BOLB   C1D  909   5.960  14.053  23.942  0.0491  0.1719  0.0953
   38BOLB   C2D  910   6.221  14.088  24.274 -0.0051 -0.0853 -0.0619
   38BOLB   C3D  911   6.500  14.359  24.321  0.1042 -0.4095 -0.0591
   38BOLB   C4D  912   6.947  14.391  24.233 -0.2795 -0.1004  0.1066
   39BOLB   NC1  913  16.205  13.111  43.785 -0.1827 -0.0548 -0.0434
   39BOLB   PO1  914  16.398  13.638  43.786  0.1733  0.2470  0.6457
   39BOLB   GL1  915  16.526  13.518  43.419  0.1784 -0.0162 -0.1187
   39BOLB   GL2  916  16.765  13.663  43.272  0.1048 -0.0583  0.3148
   39BOLB   C1A  917  16.434  13.342  42.986  0.0389  0.0706 -0.3476
   39BOLB   C2A  918  16.359  13.486  42.589 -0.3083 -0.1139  0.2350
   39BOLB   C3A  919  16.418  13.475  42.174 -0.2103 -0.1094  0.0853
   39BOLB   C4A  920  16.548  13.173  42.079  0.1898 -0.0940  0.1810
   39BOLB   C1B  921  16.972  13.533  42.921  0.1620 -0.0072 -0.0794
   39BOLB   C2B  922  17.013  13.515  42.537  0.4028 -0.2268 -0.0619
   39BOLB   C3B  923  17.002  13.382  42.113 -0.1383 -0.2398 -0.0439
   39BOLB   C4B  924  16.976  13.058  41.786 -0.1533 -0.1416  0.1904
   39BOLB   NC2  925  18.543  12.685  43.710  0.0570  0.1048 -0.2923
   39BOLB   PO2  926  18.521  13.153  43.611 -0.2469 -0.0066  0.2991
   39BOLB   GL3  927  18.310  13.189  43.140 -0.3099 -0.5290 -0.2027
   39BOLB   GL4  928  18.338  12.847  43.024 -0.2008  0.1620 -0.1529
   39BOLB   C1C  929  17.994  12.979  42.759 -0.2696  0.5514  0.1434
   39BOLB   C2C  930  17.637  13.051  42.500 -0.3962  0.1262  0.2067
   39BOLB   C3C  931  17.153  12.992  42.377 -0.2419  0.1935 -0.2243
   39BOLB   C4C  932  16.808  12.879  42.228  0.1112  0.0795  0.1395
   39BOLB   C1D  933  18.332  12.633  42.668  0.1498  0.0773  0.0817
   39BOLB   C2D  934  18.370  12.549  42.189  0.0887  0.0204  0.2067
   39BOLB   C3D  935  18.257  12.341  41.907  0.3851  0.2389  0.2839
   39BOLB   C4D  936  18.146  12.070  41.686 -0.1254 -0.0454 -0.2565
   40BOLB   NC1  937  14.273  21.078  31.056  0.1281  0.2148 -0.1267
   40BOLB   PO1  938  14.374  21.025  30.611  0.0162  0.0061  0.1907
   40BOLB   GL1  939  14.256  21.477  30.682 -0.3672  0.1606 -0.2316
   40BOLB   GL2  940  14.536  21.465  30.935 -0.4471  0.0301  0.3421
   40BOLB   C1A  941  14.288  21.902  30.879  0.2445  0.0133 -0.0379
   40BOLB   C2A  942  14.375  22.352  31.020 -0.1520 -0.4098  0.1319
   40BOLB   C3A  943  14.528  22.737  31.196 -0.3225 -0.2821  0.0289
   40BOLB   C4A  944  14.491  23.113  31.364 -0.3665 -0.2002  0.0653
   40BOLB   C1B  945  14.705  21.775  31.075  0.0823 -0.1621 -0.1385
   40BOLB   C2B  946  14.875  22.224  30.892  0.5310 -0.0467  0.1939
   40BOLB   C3B  947  14.978  22.629  30.746  0.3820 -0.1096  0.2628
   40BOLB   C4B  948  14.847  23.073  31.022 -0.1102  0.3072  0.1595
   40BOLB   NC2  949  13.524  25.506  31.814  0.0537 -0.0583  0.1229
   40BOLB   PO2  950  13.935  25.410  31.673  0.3152 -0.1397  0.1016
   40BOLB   GL3  951  14.060  25.013  31.715  0.0960 -0.0967 -0.0475
   40BOLB   GL4  952  14.200  24.896  31.415  0.1351 -0.1752  0.0011
   40BOLB   C1C  953  13.830  24.622  31.684  0.1035  0.0335 -0.1135
   40BOLB   C2C  954  13.828  24.207  31.511  0.1189 -0.1483 -0.0093
   40BOLB   C3C  955  13.943  23.858  31.408  0.2123 -0.4751 -0.1950
   40BOLB   C4C  956  14.255  23.534  31.428 -0.0591  0.1540  0.0184
   40BOLB   C1D  957  14.271  24.490  31.305  0.1583  0.0201  0.0865
   40BOLB   C2D  958  14.361  24.021  31.212 -0.0934 -0.0846  0.3212
   40BOLB   C3D  959  14.580  23.734  30.887  0.0187  0.0367 -0.1246
   40BOLB   C4D  960  15.040  23.532  30.839  0.0528 -0.1924 -0.2209
   41BOLB   NC1  961  16.337   5.314  23.775 -0.0463 -0.0232 -0.1138
   41BOLB   PO1  962  15.959   5.452  23.565  0.1470 -0.3587  0.0964
   41BOLB   GL1  963  15.810   5.007  23.592 -0.1372 -0.2295 -0.4299
   41BOLB   GL2  964  15.942   5.003  23.970  0.3248  0.2095  0.3154
   41BOLB   C1A  965  15.990   4.565  23.427 -0.3872  0.1822 -0.1023
   41BOLB   C2A  966  15.841   4.181  23.571 -0.2370 -0.0123  0.1420
   41BOLB   C3A  967  15.698   3.713  23.346 -0.1001 -0.3281 -0.1809
   41BOLB   C4A  968  15.621   3.312  23.509  0.3985  0.2030 -0.0168
   41BOLB   C1B  969  15.972   4.548  23.930 -0.1023 -0.0350  0.0206
   41BOLB   C2B  970  16.284   4.182  23.846  0.2656 -0.2313 -0.1528
   41BOLB   C3B  971  16.319   4.087  23.385 -0.0426 -0.0026 -0.0126
   41BOLB   C4B  972  16.112   3.894  23.040 -0.3690 -0.4055  0.0866
   41BOLB   NC2  973  15.228   0.900  23.182  0.2491  0.2274  0.0548
   41BOLB   PO2  974  15.711   0.914  23.257  0.1019 -0.0417 -0.2221
   41BOLB   GL3  975  15.543   1.301  23.406  0.0061 -0.0142 -0.1399
   41BOLB   GL4  976  15.814   1.455  23.361 -0.3546  0.2572 -0.0085
   41BOLB   C1C  977  15.429   1.687  23.510  0.2707 -0.0048  0.0294
   41BOLB   C2C  978  15.509   2.111  23.712  0.1635 -0.0033  0.1251
   41BOLB   C3C  979  15.665   2.479  23.678  0.0926 -0.0557  0.2534
   41BOLB   C4C  980  15.616   2.936  23.652  0.3005  0.0308 -0.0690
   41BOLB   C1D  981  15.802   1.506  23.836 -0.0350 -0.1170  0.1453
   41BOLB   C2D  982  15.722   1.812  24.061 -0.1017 -0.1306  0.0442
   41BOLB   C3D  983  15.590   2.211  24.222 -0.3475 -0.0174 -0.0893
   41BOLB   C4D  984  15.383   2.501  24.084  0.0716  0.1903 -0.1871
   42BOLB   NC1  985   8.672  23.239  34.403 -0.0570 -0.2176 -0.2124
   42BOLB   PO1  986   9.010  23.553  34.379 -0.0094 -0.0280 -0.0655
   42BOLB   GL1  987   9.149  23.451  33.998 -0.0486 -0.0671 -0.3454
   42BOLB   GL2  988   9.321  23.140  34.086  0.1563  0.1111 -0.2176
   42BOLB   C1A  989   9.260  23.190  33.569  0.2443 -0.0836 -0.1186
   42BOLB   C2A  990   9.273  22.757  33.464 -0.0351 -0.1206  0.2822
   42BOLB   C3A  991   9.434  22.564  33.180 -0.0874 -0.0253  0.2945
   42BOLB   C4A  992   9.722  22.454  32.940  0.0556  0.0667  0.2800
   42BOLB   C1B  993   9.357  22.683  33.996  0.0728  0.0081  0.0743
   42BOLB   C2B  994   9.490  22.272  33.816  0.1203  0.2102  0.1775
   42BOLB   C3B  995   9.872  22.075  33.807  0.0330 -0.0942  0.0348
   42BOLB   C4B  996  10.253  21.860  33.488  0.2133 -0.1861 -0.0674
   42BOLB   NC2  997   9.753  24.259  32.464 -0.0374 -0.1594  0.4010
   42BOLB   PO2  998   9.906  24.299  32.865 -0.1769  0.0973  0.0713
   42BOLB   GL3  999   9.930  23.874  32.757  0.0034  0.1102 -0.0011
   42BOLB   GL4 1000   9.957  23.776  32.377  0.0111  0.1539  0.0995
   42BOLB   C1C 1001  10.184  23.435  32.637 -0.2525 -0.0022 -0.0190
   42BOLB   C2C 1002  10.283  23.063  32.520 -0.1367 -0.1019 -0.1055
   42BOLB   C3C 1003  10.386  22.689  32.732  0.1584 -0.0097  0.3070
   42BOLB   C4C 1004  10.166  22.332  32.821  0.1964  0.0683 -0.0855
   42BOLB   C1D 1005  10.103  23.477  32.057 -0.0838 -0.1205  0.0208
   42BOLB   C2D 1006  10.352  23.163  31.992 -0.1646  0.0160 -0.1467
   42BOLB   C3D 1007  10.400  22.767  32.069  0.0640  0.1125  0.0045
   42BOLB   C4D 1008  10.064  22.480  32.303  0.1810 -0.3255 -0.2641
   43BOLB   NC1 1009  16.099  20.190  32.923  0.2507  0.0411  0.1923
   43BOLB   PO1 1010  16.350  20.463  32.724  0.1717  0.0632  0.1785
   43BOLB   GL1 1011  16.333  20.989  32.670  0.0373 -0.1157 -0.1062
   43BOLB   GL2 1012  16.200  20.883  32.888 -0.0053  0.1136  0.1574
   43BOLB   C1A 1013  16.395  21.414  32.793  0.0580 -0.0905  0.3065
   43BOLB   C2A 1014  16.359  21.672  33.099  0.1452 -0.1530 -0.1421
   43BOLB   C3A 1015  16.530  21.964  33.431  0.3096  0.1588  0.0359
   43BOLB   C4A 1016  16.495  22.313  33.676 -0.0801  0.1974 -0.0536
   43BOLB   C1B 1017  16.478  21.201  33.225 -0.2911  0.2446 -0.0508
   43BOLB   C2B 1018  16.664  21.457  33.601 -0.0688  0.1491  0.3029
   43BOLB   C3B 1019  16.721  21.816  33.872  0.1241 -0.0697 -0.1441
   43BOLB   C4B 1020  17.012  21.994  34.074  0.2918 -0.0954 -0.0718
   43BOLB   NC2 1021  16.627  24.908  34.556  0.0260  0.1219  0.0333
   43BOLB   PO2 1022  16.838  24.528  34.262 -0.3222  0.0807  0.3731
   43BOLB   GL3 1023  16.549  24.195  34.418  0.0182 -0.2315  0.0597
   43BOLB   GL4 1024  16.246  24.071  34.475 -0.1921 -0.0943 -0.1416
   43BOLB   C1C 1025  16.586  23.811  34.135  0.2226 -0.0762 -0.0216
   43BOLB   C2C 1026  16.568  23.349  33.934  0.1077  0.0553  0.0601
   43BOLB   C3C 1027  16.626  23.047  33.564  0.0988 -0.3182 -0.2931
   43BOLB   C4C 1028  16.621  22.735  33.715  0.0628  0.5113 -0.0727
   43BOLB   C1D 1029  15.860  23.850  34.383 -0.5601 -0.4009  0.0308
   43BOLB   C2D 1030  15.737  23.376  34.412 -0.4267  0.0571 -0.2843
   43BOLB   C3D 1031  15.494  23.068  34.366  0.0831 -0.1536  0.0752
   43BOLB   C4D 1032  15.179  23.214  34.561 -0.1887 -0.4193  0.2320
   44BOLB   NC1 1033  11.297  14.390  22.046 -0.4013 -0.3271 -0.0234
   44BOLB   PO1 1034  11.267  14.128  21.694  0.0743  0.0094  0.3282
   44BOLB   GL1 1035  11.072  14.172  21.314 -0.2195  0.0006  0.2537
   44BOLB   GL2 1036  10.901  14.479  21.421  0.1177  0.1473 -0.1099
   44BOLB   C1A 1037  11.156  14.017  20.879  0.1203 -0.0576 -0.2157
   44BOLB   C2A 1038  11.107  13.899  20.571 -0.1250 -0.2647 -0.1237
   44BOLB   C3A 1039  10.989  13.866  20.098 -0.1172  0.0866 -0.0661
   44BOLB   C4A 1040  10.636  13.796  19.819  0.1698 -0.0223 -0.2954
   44BOLB   C1B 1041  10.813  14.486  20.968 -0.0482  0.1507  0.1078
   44BOLB   C2B 1042  10.763  14.250  20.496 -0.1062  0.0474  0.2520
   44BOLB   C3B 1043  10.504  13.942  20.372  0.0027 -0.2117  0.2698
   44BOLB   C4B 1044  10.346  13.560  20.199  0.0538  0.0349 -0.3792
   44BOLB   NC2 1045   9.237  13.958  18.117 -0.0877  0.2673 -0.1100
   44BOLB   PO2 1046   9.306  14.323  17.875 -0.1192  0.0731  0.0552
   44BOLB   GL3 1047   9.612  14.317  18.264 -0.2033  0.0112  0.2566
   44BOLB   GL4 1048   9.581  14.103  18.489 -0.2129 -0.1357  0.1636
   44BOLB   C1C 1049   9.665  14.549  18.635 -0.3584  0.0511  0.0588
   44BOLB   C2C 1050   9.836  14.251  18.901  0.1987 -0.1220 -0.1936
   44BOLB   C3C 1051  10.208  14.153  19.203 -0.3830 -0.1725  0.2588
   44BOLB   C4C 1052  10.411  14.019  19.514  0.0880 -0.1673  0.1776
   44BOLB   C1D 1053  10.004  14.103  18.498 -0.1978 -0.0333  0.0295
   44BOLB   C2D 1054  10.450  14.216  18.294 -0.1844  0.1216  0.2102
   44BOLB   C3D 1055  10.870  14.301  18.052  0.2651 -0.2941 -0.2701
   44BOLB   C4D 1056  11.216  14.096  17.769  0.2631 -0.4333 -0.0507
   45BOLB   NC1 1057  26.316   7.136  22.153  0.1209 -0.2380 -0.1769
   45BOLB   PO1 1058  26.357   7.240  22.579 -0.0758 -0.1718 -0.0740
   45BOLB   GL1 1059  26.140   7.169  22.873 -0.3738 -0.1262 -0.0569
   45BOLB   GL2 1060  25.825   6.954  22.812  0.1717  0.0594  0.3076
   45BOLB   C1A 1061  25.992   7.387  23.222 -0.0234 -0.1840 -0.0439
   45BOLB   C2A 1062  25.842   7.553  23.523 -0.0485  0.0350  0.0510
   45BOLB   C3A 1063  25.935   7.593  23.940  0.2883  0.1481 -0.2014
   45BOLB   C4A 1064  26.036   7.803  24.199  0.0322 -0.2679 -0.1159
   45BOLB   C1B 1065  25.582   7.089  23.142  0.1781 -0.0095  0.0434
   45BOLB   C2B 1066  25.516   7.163  23.571 -0.1253  0.1753 -0.2832
   45BOLB   C3B 1067  25.449   7.454  23.768  0.0610 -0.2331  0.0542
   45BOLB   C4B 1068  25.252   7.660  23.992  0.5626 -0.1261  0.0133
   45BOLB   NC2 1069   0.204   7.788  23.049  0.0604 -0.2228 -0.1256
   45BOLB   PO2 1070  26.819   7.935  23.212  0.0658 -0.2500  0.1148
   45BOLB   GL3 1071  26.419   8.036  23.251  0.1463 -0.0374 -0.0846
   45BOLB   GL4 1072  26.262   7.786  23.433 -0.1434 -0.2608 -0.1378
   45BOLB   C1C 1073  26.048   8.265  23.275 -0.2429 -0.0462  0.2823
   45BOLB   C2C 1074  25.669   8.176  23.378 -0.0516  0.0153  0.0926
   45BOLB   C3C 1075  25.568   7.952  23.659  0.3870  0.0513  0.1617
   45BOLB   C4C 1076  25.634   7.964  24.112  0.1147  0.3303  0.2120
   45BOLB   C1D 1077  26.048   8.103  23.684  0.0324  0.2410  0.1162
   45BOLB   C2D 1078  26.066   8.297  24.133  0.2533 -0.0765 -0.1519
   45BOLB   C3D 1079  26.066   8.479  24.491  0.0198 -0.2107  0.2246
   45BOLB   C4D 1080  25.694   8.729  24.721 -0.1651  0.0346  0.2142
   46BOLB   NC1 1081  15.560   9.988  39.498  0.1965 -0.0670 -0.1915
   46BOLB   PO1 1082  15.552  10.308  39.738  0.0520  0.3523 -0.2056
   46BOLB   GL1 1083  15.572  10.300  40.136 -0.0402 -0.1336 -0.0583
   46BOLB   GL2 1084  15.459  10.029  40.368  0.0798 -0.0394 -0.0417
   46BOLB   C1A 1085  15.831  10.356  40.454 -0.0137  0.0934 -0.0415
   46BOLB   C2A 1086  15.952  10.350  40.943 -0.1061  0.1524  0.1551
   46BOLB   C3A 1087  15.917  10.287  41.373  0.1702  0.1052  0.0489
   46BOLB   C4A 1088  15.821  10.017  41.648  0.0294 -0.0614  0.0046
   46BOLB   C1B 1089  15.660   9.956  40.714 -0.3698 -0.2915 -0.0809
   46BOLB   C2B 1090  15.831   9.801  41.078  0.1572  0.1176  0.0499
   46BOLB   C3B 1091  15.880   9.539  41.525  0.1720  0.0546  0.3099
   46BOLB   C4B 1092  15.842   9.069  41.483 -0.1247 -0.2862  0.0249
   46BOLB   NC2 1093  15.637   9.649  43.871 -0.0063  0.1468 -0.1252
   46BOLB   PO2 1094  15.776   9.229  43.911 -0.1778  0.0285  0.3799
   46BOLB   GL3 1095  15.755   9.383  43.487 -0.1138 -0.5292  0.1501
   46BOLB   GL4 1096  15.665   9.660  43.345 -0.1216  0.2541  0.1366
   46BOLB   C1C 1097  16.031   9.378  43.150 -0.2234  0.3278  0.0129
   46BOLB   C2C 1098  16.014   9.316  42.678 -0.1628 -0.0201 -0.3211
   46BOLB   C3C 1099  15.905   9.544  42.382 -0.2387 -0.3124 -0.0812
   46BOLB   C4C 1100  15.809   9.817  42.027 -0.1603  0.1992  0.4456
   46BOLB   C1D 1101  15.633   9.705  42.878 -0.1071 -0.0399  0.4218
   46BOLB   C2D 1102  15.593   9.941  42.551  0.0865 -0.0860 -0.1720
   46BOLB   C3D 1103  15.870  10.120  42.417  0.0496 -0.0540 -0.0167
   46BOLB   C4D 1104  15.968  10.361  42.061 -0.0195 -0.2651  0.2269
   47BOLB   NC1 1105  19.976  19.928  40.101 -0.0460  0.2791 -0.0725
   47BOLB   PO1 1106  19.777  19.698  40.418 -0.1509  0.0019 -0.2841
   47BOLB   GL1 1107  19.498  19.668  39.996  0.3996  0.2522 -0.0086
   47BOLB   GL2 1108  19.609  19.933  39.847  0.1639  0.1191  0.1384
   47BOLB   C1A 1109  19.351  19.457  39.591  0.0297  0.0741  0.1555
   47BOLB   C2A 1110  18.929  19.467  39.413 -0.1262  0.2214 -0.0256
   47BOLB   C3A 1111  18.847  19.029  39.309 -0.1421  0.0586 -0.1049
   47BOLB   C4A 1112  18.745  18.574  39.376  0.0856  0.1582  0.0271
   47BOLB   C1B 1113  19.227  19.971  39.627 -0.4545 -0.0674  0.0144
   47BOLB   C2B 1114  19.199  19.860  39.126  0.0609 -0.0311 -0.2450
   47BOLB   C3B 1115  18.919  19.549  38.923  0.3710  0.0473 -0.1471
   47BOLB   C4B 1116  18.582  19.332  38.843 -0.0583 -0.0232  0.4037
   47BOLB   NC2 1117  20.472  18.819  40.528  0.1052  0.3427 -0.0586
   47BOLB   PO2 1118  20.539  18.298  40.377  0.3493 -0.0652  0.2373
   47BOLB   GL3 1119  20.306  18.068  40.092  0.5344 -0.1223 -0.0743
   47BOLB   GL4 1120  20.285  17.733  40.137 -0.1519 -0.2514 -0.0190
   47BOLB   C1C 1121  20.176  17.889  39.676 -0.4763 -0.0588  0.2230
   47BOLB   C2C 1122  19.876  17.936  39.367  0.1781 -0.2671 -0.3214
   47BOLB   C3C 1123  19.517  18.220  39.450 -0.0074  0.2159 -0.0533
   47BOLB   C4C 1124  19.085  18.251  39.186 -0.2517 -0.0765 -0.0547
   47BOLB   C1D 1125  20.253  17.294  40.067 -0.1827 -0.1343  0.2070
   47BOLB   C2D 1126  19.945  16.935  40.139 -0.1812  0.1491 -0.0909
   47BOLB   C3D 1127  19.807  16.649  39.806  0.0247  0.3777 -0.2553
   47BOLB   C4D 1128  19.477  16.536  39.463 -0.3415 -0.1254  0.0115
   48BOLB   NC1 1129  11.653  10.198  23.337 -0.1521 -0.0173 -0.3159
   48BOLB   PO1 1130  11.315  10.123  23.068  0.1776  0.2286 -0.3286
   48BOLB   GL1 1131  10.840  10.101  23.057 -0.0809  0.0697 -0.3248
   48BOLB   GL2 1132  10.598  10.001  23.250  0.4347  0.0129  0.0403
   48BOLB   C1A 1133  10.589   9.891  22.815  0.1834 -0.1123  0.2118
   48BOLB   C2A 1134  10.417   9.649  22.512  0.0933  0.3438 -0.1583
   48BOLB   C3A 1135  10.292   9.494  22.213  0.1174 -0.0337  0.2440
   48BOLB   C4A 1136   9.960   9.263  22.072  0.0366 -0.0943  0.0319
   48BOLB   C1B 1137  10.258   9.734  23.141  0.1496  0.0626 -0.1398
   48BOLB   C2B 1138   9.742   9.637  22.943  0.4089  0.1736 -0.0240
   48BOLB   C3B 1139   9.496   9.345  22.878 -0.0461  0.3455 -0.0099
   48BOLB   C4B 1140   9.071   9.290  22.868 -0.0491  0.2176  0.0405
   48BOLB   NC2 1141   7.635   9.025  21.203  0.2032  0.0217 -0.0435
   48BOLB   PO2 1142   7.704   8.644  21.030 -0.0242  0.0989  0.0690
   48BOLB   GL3 1143   8.082   8.727  21.156  0.1972  0.2677  0.4342
   48BOLB   GL4 1144   8.329   8.669  21.004  0.0251  0.0701  0.0827
   48BOLB   C1C 1145   8.401   8.864  21.514 -0.2663 -0.0613  0.2140
   48BOLB   C2C 1146   8.752   8.769  21.654 -0.2646  0.1391 -0.5776
   48BOLB   C3C 1147   9.111   9.023  21.945  0.0367  0.1318 -0.0918
   48BOLB   C4C 1148   9.569   8.959  22.005  0.0530  0.3505  0.0303
   48BOLB   C1D 1149   8.534   8.992  21.003  0.3674 -0.1102  0.2817
   48BOLB   C2D 1150   8.851   9.193  21.203 -0.2898 -0.2321 -0.2542
   48BOLB   C3D 1151   9.089   9.314  21.561 -0.3188 -0.2717  0.2265
   48BOLB   C4D 1152   9.420   9.406  21.764  0.1528  0.2265 -0.3748
   49BOLB   NC1 1153  10.976  24.792  28.156 -0.0283  0.2310 -0.0099
   49BOLB   PO1 1154  10.971  24.899  27.629  0.1436 -0.0192 -0.0703
   49BOLB   GL1 1155  10.958  24.410  27.807 -0.1598  0.1223  0.0442
   49BOLB   GL2 1156  11.285  24.380  27.926  0.4285 -0.1525 -0.0802
   49BOLB   C1A 1157  11.059  23.996  28.172  0.2815  0.0342  0.1743
   49BOLB   C2A 1158  11.005  23.537  28.181  0.0285 -0.2225 -0.1440
   49BOLB   C3A 1159  11.111  23.084  28.024  0.2988 -0.1959  0.1003
   49BOLB   C4A 1160  11.305  22.760  28.265 -0.2524 -0.1132 -0.1512
   49BOLB   C1B 1161  11.299  24.032  27.729  0.0970  0.0052 -0.1328
   49BOLB   C2B 1162  11.415  23.564  27.793  0.3900  0.2225 -0.1771
   49BOLB   C3B 1163  11.578  23.168  27.876 -0.0170  0.2162  0.1414
   49BOLB   C4B 1164  11.510  22.705  27.808 -0.2144  0.2557  0.0187
   49BOLB   NC2 1165  11.565  25.102  28.428  0.2099 -0.0222 -0.2336
   49BOLB   PO2 1166  11.208  24.966  28.521 -0.2509  0.4449  0.0316
   49BOLB   GL3 1167  11.363  24.586  28.512 -0.3549 -0.0199 -0.1305
   49BOLB   GL4 1168  11.034  24.364  28.493 -0.2340  0.0211 -0.1161
   49BOLB   C1C 1169  11.642  24.210  28.565 -0.0313 -0.1772 -0.2805
   49BOLB   C2C 1170  11.485  23.756  28.375 -0.1879 -0.1041  0.1442
   49BOLB   C3C 1171  11.613  23.377  28.318 -0.0845 -0.1651 -0.0596
   49BOLB   C4C 1172  11.687  22.956  28.303  0.3614  0.1719 -0.1963
   49BOLB   C1D 1173  11.252  24.047  28.766 -0.0418  0.1842  0.0874
   49BOLB   C2D 1174  11.205  23.772  29.066 -0.1015 -0.0089 -0.2728
   49BOLB   C3D 1175  11.322  23.634  29.404 -0.0541  0.3762 -0.3370
   49BOLB   C4D 1176  11.481  23.283  29.500  0.2494 -0.2303  0.2576
   50BOLB   NC1 1177   9.376  19.278  32.319 -0.2185 -0.0440 -0.0074
   50BOLB   PO1 1178   9.293  19.181  31.836  0.1091 -0.0144 -0.2282
   50BOLB   GL1 1179   8.860  19.262  31.995 -0.0088 -0.1818 -0.5346
   50BOLB   GL2 1180   8.591  19.116  31.920 -0.3509 -0.0684 -0.1796
   50BOLB   C1A 1181   8.550  19.626  32.250 -0.3092  0.1811  0.3854
   50BOLB   C2A 1182   8.369  19.826  32.067 -0.0633 -0.0604 -0.1761
   50BOLB   C3A 1183   8.157  20.203  31.929 -0.3360 -0.1065  0.2531
   50BOLB   C4A 1184   7.907  20.517  31.938 -0.1404 -0.1573  0.1095
   50BOLB   C1B 1185   8.207  19.277  31.995 -0.0128 -0.0704 -0.0460
   50BOLB   C2B 1186   8.116  19.458  32.276 -0.1603 -0.3107  0.1307
   50BOLB   C3B 1187   7.890  19.772  32.226 -0.0172  0.0862 -0.1576
   50BOLB   C4B 1188   7.653  20.202  32.276 -0.0660  0.1423  0.2053
   50BOLB   NC2 1189   5.457  20.854  31.212 -0.3335  0.0277  0.0936
   50BOLB   PO2 1190   5.772  21.175  31.125  0.1059 -0.0544  0.4332
   50BOLB   GL3 1191   6.147  21.096  31.247 -0.2223 -0.1908 -0.1622
   50BOLB   GL4 1192   6.352  21.286  31.071 -0.1462  0.1263 -0.0573
   50BOLB   C1C 1193   6.490  20.747  31.402 -0.5457  0.3414  0.0069
   50BOLB   C2C 1194   6.849  20.706  31.539  0.0615 -0.2011 -0.0261
   50BOLB   C3C 1195   7.139  20.741  31.890 -0.2011 -0.1647  0.0900
   50BOLB   C4C 1196   7.544  20.696  31.970  0.1484 -0.0212 -0.2991
   50BOLB   C1D 1197   6.728  21.432  30.863  0.2389  0.0093  0.1262
   50BOLB   C2D 1198   7.028  21.233  30.569  0.1978  0.1236  0.0745
   50BOLB   C3D 1199   7.196  20.824  30.591 -0.2414  0.0084  0.0404
   50BOLB   C4D 1200   7.276  20.399  30.447 -0.4591 -0.2640  0.0501
   51BOLB   NC1 1201   7.470  11.045  30.978  0.1195  0.0247 -0.1095
   51BOLB   PO1 1202   7.368  11.562  30.874  0.3196 -0.0044 -0.0445
   51BOLB   GL1 1203   7.032  11.380  30.903  0.1221  0.1717 -0.2751
   51BOLB   GL2 1204   7.001  11.257  31.103  0.1901  0.1059 -0.1116
   51BOLB   C1A 1205   6.785  11.350  30.599  0.0297 -0.0939 -0.0734
   51BOLB   C2A 1206   6.346  11.319  30.540  0.2263 -0.0095 -0.1177
   51BOLB   C3A 1207   5.942  11.528  30.476 -0.3198 -0.0589  0.0175
   51BOLB   C4A 1208   5.685  11.804  30.298  0.0468  0.0818 -0.0302
   51BOLB   C1B 1209   6.557  11.215  30.998  0.3477  0.0219 -0.1592
   51BOLB   C2B 1210   6.258  10.927  30.952  0.3134 -0.0511 -0.2340
   51BOLB   C3B 1211   5.875  10.746  30.954 -0.1005 -0.1346  0.0966
   51BOLB   C4B 1212   5.577  10.714  31.227 -0.0403  0.0501  0.1688
   51BOLB   NC2 1213   3.295  11.548  30.081  0.1735 -0.0467 -0.0401
   51BOLB   PO2 1214   3.185  11.232  29.802  0.2825 -0.2782 -0.3111
   51BOLB   GL3 1215   3.664  11.195  29.951  0.0313 -0.3357 -0.0322
   51BOLB   GL4 1216   3.838  10.979  29.832  0.2326 -0.2309  0.2235
   51BOLB   C1C 1217   4.018  11.483  30.032  0.0554 -0.3471  0.2829
   51BOLB   C2C 1218   4.418  11.545  30.045  0.0519  0.2657  0.0863
   51BOLB   C3C 1219   4.815  11.614  30.117  0.3363  0.1350 -0.3264
   51BOLB   C4C 1220   5.236  11.824  30.243 -0.1689  0.0415  0.4547
   51BOLB   C1D 1221   4.266  11.150  29.660 -0.1029  0.2372  0.2300
   51BOLB   C2D 1222   4.709  11.228  29.685  0.0840  0.0244 -0.0114
   51BOLB   C3D 1223   5.129  11.431  29.739  0.3599  0.1228 -0.0277
   51BOLB   C4D 1224   5.293  11.806  29.630 -0.2143 -0.2625  0.2663
   52BOLB   NC1 1225  13.563  19.215  23.517  0.2552  0.0361 -0.3696
   52BOLB   PO1 1226  13.749  19.311  23.061 -0.1708  0.4492 -0.0695
   52BOLB   GL1 1227  13.619  19.489  22.790 -0.1388 -0.1008 -0.0502
   52BOLB   GL2 1228  13.589  19.227  22.544 -0.3715 -0.0364 -0.0802
   52BOLB   C1A 1229  13.543  19.857  22.630 -0.1651 -0.1049  0.1940
   52BOLB   C2A 1230  13.424  20.174  22.460 -0.3022  0.0520  0.0379
   52BOLB   C3A 1231  13.229  20.590  22.344 -0.3037 -0.1964  0.0052
   52BOLB   C4A 1232  13.030  21.112  22.424 -0.0309  0.1554  0.3414
   52BOLB   C1B 1233  13.532  19.427  22.207 -0.4029 -0.1574 -0.1368
   52BOLB   C2B 1234  13.311  19.794  22.145  0.1001 -0.0523  0.2654
   52BOLB   C3B 1235  13.162  20.119  21.990  0.0304 -0.0970  0.0054
   52BOLB   C4B 1236  12.883  20.458  21.757  0.2550 -0.0030 -0.0453
   52BOLB   NC2 1237  12.732  23.353  22.244 -0.0429 -0.0250 -0.0588
   52BOLB   PO2 1238  12.488  23.334  21.872 -0.0092 -0.1722 -0.1220
   52BOLB   GL3 1239  12.463  22.930  21.834 -0.0375  0.0709  0.2274
   52BOLB   GL4 1240  12.482  22.934  22.305  0.0119 -0.0994 -0.1740
   52BOLB   C1C 1241  12.464  22.479  22.097 -0.0414  0.1028 -0.1730
   52BOLB   C2C 1242  12.373  22.201  22.462 -0.0109 -0.2318  0.2236
   52BOLB   C3C 1243  12.611  21.834  22.635  0.1365  0.1637 -0.2646
   52BOLB   C4C 1244  12.790  21.394  22.659  0.0880 -0.1679 -0.0462
   52BOLB   C1D 1245  12.224  22.693  22.472  0.3941 -0.1715  0.0964
   52BOLB   C2D 1246  12.039  22.653  22.872  0.0648  0.2886 -0.0976
   52BOLB   C3D 1247  12.199  22.522  23.382 -0.0871  0.1621 -0.1097
   52BOLB   C4D 1248  12.277  22.186  23.692  0.0562 -0.1745 -0.0097
   53BOLB   NC1 1249  18.497  26.986  26.875  0.0820 -0.4103  0.1799
   53BOLB   PO1 1250  18.394  26.976  27.331 -0.3535  0.0255  0.2011
   53BOLB   GL1 1251  18.181   0.283  27.165 -0.1159 -0.4758  0.1399
   53BOLB   GL2 1252  17.814   0.300  27.190 -0.3465 -0.2003  0.1263
   53BOLB   C1A 1253  18.091   0.770  27.073  0.0844 -0.0065  0.1855
   53BOLB   C2A 1254  18.174   1.178  27.043 -0.0145  0.1309  0.3276
   53BOLB   C3A 1255  18.179   1.616  27.025 -0.0286  0.0752  0.3229
   53BOLB   C4A 1256  18.009   2.038  27.058 -0.0273 -0.1662 -0.0506
   53BOLB   C1B 1257  17.619   0.711  27.190  0.1022 -0.0423 -0.2230
   53BOLB   C2B 1258  17.640   1.235  27.226  0.0302  0.2245  0.0340
   53BOLB   C3B 1259  17.440   1.561  27.401  0.0726  0.0749  0.1930
   53BOLB   C4B 1260  17.316   1.941  27.651 -0.3469 -0.0389 -0.2796
   53BOLB   NC2 1261  17.867   4.794  27.952 -0.0462  0.3760 -0.0410
   53BOLB   PO2 1262  18.049   4.531  27.662 -0.1064  0.3969  0.0171
   53BOLB   GL3 1263  17.980   4.168  27.418 -0.0609 -0.0440  0.1244
   53BOLB   GL4 1264  17.772   3.950  27.463  0.2097 -0.4317 -0.1438
   53BOLB   C1C 1265  18.091   3.627  27.412 -0.1761 -0.1700  0.0704
   53BOLB   C2C 1266  18.046   3.183  27.322  0.1798 -0.0284  0.0423
   53BOLB   C3C 1267  18.044   2.805  27.196 -0.2124  0.1928 -0.1303
   53BOLB   C4C 1268  17.983   2.442  26.970  0.2783  0.3043 -0.1027
   53BOLB   C1D 1269  17.581   3.631  27.176  0.0420  0.2753 -0.0780
   53BOLB   C2D 1270  17.327   3.420  26.862 -0.0089  0.0257 -0.0130
   53BOLB   C3D 1271  17.155   3.038  26.984 -0.2884 -0.1045  0.1205
   53BOLB   C4D 1272  16.873   2.705  26.923 -0.1401 -0.1320 -0.0709
   54BOLB   NC1 1273  15.030  10.166  15.587  0.7043  0.0797 -0.1496
   54BOLB   PO1 1274  14.822   9.709  15.740  0.3053 -0.1803 -0.3339
   54BOLB   GL1 1275  15.092   9.871  16.073 -0.1438 -0.1119 -0.0927
   54BOLB   GL2 1276  14.939  10.138  16.081  0.0448 -0.0649 -0.4283
   54BOLB   C1A 1277  15.221   9.844  16.560  0.2835  0.1699  0.1320
   54BOLB   C2A 1278  15.388   9.787  16.889  0.2247  0.0873  0.1198
   54BOLB   C3A 1279  15.755   9.675  17.127 -0.1134 -0.2194  0.1282
   54BOLB   C4A 1280  16.293   9.449  17.255  0.1246  0.0772 -0.3056
   54BOLB   C1B 1281  14.804  10.125  16.427  0.0742 -0.0353  0.3318
   54BOLB   C2B 1282  14.752  10.368  16.872  0.2516  0.0456 -0.3288
   54BOLB   C3B 1283  14.585  10.742  16.973  0.2517 -0.1153  0.0748
   54BOLB   C4B 1284  14.784  11.161  17.013  0.2451 -0.2290 -0.5206
   54BOLB   NC2 1285  17.685   7.621  15.858  0.1572 -0.2302  0.1325
   54BOLB   PO2 1286  17.387   7.661  16.145  0.0343 -0.0794 -0.1252
   54BOLB   GL3 1287  17.346   7.791  16.536 -0.1642 -0.0517 -0.0587
   54BOLB   GL4 1288  17.326   7.652  16.831 -0.1548  0.1477 -0.1125
   54BOLB   C1C 1289  17.313   8.162  16.874 -0.0477  0.0301  0.0701
   54BOLB   C2C 1290  17.222   8.555  16.854 -0.2010 -0.0668 -0.0500
   54BOLB   C3C 1291  16.944   8.909  16.983  0.1540 -0.1637 -0.1889
   54BOLB   C4C 1292  16.688   9.338  17.200 -0.0986 -0.1856 -0.0694
   54BOLB   C1D 1293  17.671   7.845  17.057 -0.4516 -0.0452 -0.0073
   54BOLB   C2D 1294  17.716   8.341  17.188 -0.3556  0.2124 -0.1826
   54BOLB   C3D 1295  17.616   8.717  17.451 -0.1864  0.1353 -0.0878
   54BOLB   C4D 1296  17.516   9.149  17.634 -0.4377 -0.0254 -0.1631
   55BOLB   NC1 1297  19.937  19.532  18.485 -0.1804  0.4760 -0.2094
   55BOLB   PO1 1298  20.176  19.621  18.805 -0.2756  0.0663 -0.1918
   55BOLB   GL1 1299  20.201  19.132  18.688 -0.0499 -0.1898 -0.1031
   55BOLB   GL2 1300  20.097  19.079  18.375  0.1108  0.1768 -0.1486
   55BOLB   C1A 1301  20.278  18.665  18.694 -0.0739  0.0414  0.0388
   55BOLB   C2A 1302  20.447  18.181  18.718  0.4148 -0.0439  0.0768
   55BOLB   C3A 1303  20.383  17.675  18.835 -0.0762 -0.0807 -0.1010
   55BOLB   C4A 1304  20.398  17.418  19.194 -0.1390 -0.0701 -0.0493
   55BOLB   C1B 1305  19.770  18.808  18.613 -0.0571 -0.3159  0.0525
   55BOLB   C2B 1306  19.579  18.455  18.626 -0.1787  0.1421  0.1398
   55BOLB   C3B 1307  19.405  18.075  18.487  0.1026 -0.0937 -0.1048
   55BOLB   C4B 1308  19.340  17.587  18.326  0.4751  0.0941  0.3804
   55BOLB   NC2 1309  22.049  17.679  18.906  0.2289 -0.2573  0.1717
   55BOLB   PO2 1310  22.274  17.372  18.752  0.2189  0.1494 -0.1709
   55BOLB   GL3 1311  21.975  17.078  19.024 -0.3200  0.0733  0.0597
   55BOLB   GL4 1312  21.553  17.186  18.890 -0.1799  0.0542 -0.1806
   55BOLB   C1C 1313  21.681  16.942  19.296 -0.0371  0.1232 -0.0002
   55BOLB   C2C 1314  21.367  16.754  19.446 -0.2948 -0.3557 -0.5171
   55BOLB   C3C 1315  20.832  16.786  19.468 -0.0255 -0.0485 -0.0937
   55BOLB   C4C 1316  20.667  17.071  19.488 -0.3238  0.0378  0.1612
   55BOLB   C1D 1317  21.127  17.094  19.164 -0.0559  0.0959  0.0535
   55BOLB   C2D 1318  21.095  17.142  19.628  0.1017 -0.0471  0.1434
   55BOLB   C3D 1319  20.909  17.325  19.971 -0.3617 -0.0575  0.0397
   55BOLB   C4D 1320  20.774  17.492  20.330 -0.4941  0.0011 -0.0272
   56BOLB   NC1 1321   8.533  18.136  33.451 -0.0215 -0.2129  0.4637
   56BOLB   PO1 1322   8.547  17.691  33.570 -0.3596  0.4536  0.1200
   56BOLB   GL1 1323   8.244  17.786  33.885  0.3014  0.0967  0.1939
   56BOLB   GL2 1324   7.949  17.579  33.781  0.1666 -0.2355  0.2845
   56BOLB   C1A 1325   7.952  18.022  34.114 -0.0713  0.3101 -0.2189
   56BOLB   C2A 1326   7.535  18.044  34.138 -0.2826 -0.2816 -0.1209
   56BOLB   C3A 1327   7.245  17.841  34.457 -0.0651  0.0067 -0.0660
   56BOLB   C4A 1328   6.951  17.753  34.663 -0.2725 -0.2289 -0.1046
   56BOLB   C1B 1329   7.546  17.737  33.805  0.2708  0.0019 -0.2162
   56BOLB   C2B 1330   7.268  17.605  34.019  0.0520 -0.2591  0.0504
   56BOLB   C3B 1331   7.103  17.384  34.345 -0.0854 -0.2519  0.1565
   56BOLB   C4B 1332   7.213  17.105  34.609  0.1852 -0.0588 -0.0350
   56BOLB   NC2 1333   4.941  18.825  34.787 -0.2705 -0.3108  0.0710
   56BOLB   PO2 1334   4.968  18.667  34.391 -0.2461  0.0393  0.4154
   56BOLB   GL3 1335   5.023  18.239  34.218  0.1139 -0.0094  0.0272
   56BOLB   GL4 1336   5.047  18.041  34.374  0.1073  0.0393  0.0583
   56BOLB   C1C 1337   5.522  18.154  34.190  0.0316  0.1999  0.0894
   56BOLB   C2C 1338   5.862  18.137  34.493  0.0582  0.1890  0.0168
   56BOLB   C3C 1339   6.067  17.928  34.781 -0.2314  0.1114 -0.2956
   56BOLB   C4C 1340   6.563  17.851  34.773  0.5111  0.2038 -0.1064
   56BOLB   C1D 1341   5.049  17.739  34.060 -0.1067  0.2762 -0.3886
   56BOLB   C2D 1342   5.113  17.281  33.959  0.0735  0.0635 -0.0612
   56BOLB   C3D 1343   5.075  16.836  34.030  0.1754  0.0476 -0.0385
   56BOLB   C4D 1344   4.741  16.659  33.864 -0.2344  0.2163 -0.1282
   57BOLB   NC1 1345  20.470  16.971  27.562 -0.1408  0.5286  0.0016
   57BOLB   PO1 1346  20.342  16.739  27.488  0.0389  0.0212  0.4576
   57BOLB   GL1 1347  20.661  16.765  27.166 -0.1380  0.2587 -0.0281
   57BOLB   GL2 1348  20.568  16.488  26.932 -0.1919 -0.1887  0.0259
   57BOLB   C1A 1349  20.751  17.031  26.852 -0.1821 -0.0746 -0.0856
   57BOLB   C2A 1350  20.931  17.190  26.507  0.1259  0.1569 -0.1806
   57BOLB   C3A 1351  21.080  17.501  26.222  0.3012  0.1762  0.1435
   57BOLB   C4A 1352  20.898  17.754  25.846 -0.2750  0.0706 -0.0549
   57BOLB   C1B 1353  20.622  16.640  26.544  0.2209 -0.0276 -0.0902
   57BOLB   C2B 1354  20.654  16.557  26.228 -0.1934  0.1562 -0.2564
   57BOLB   C3B 1355  20.460  16.593  25.816  0.0117  0.0067 -0.3383
   57BOLB   C4B 1356  20.290  16.922  25.566  0.0516 -0.0762  0.2160
   57BOLB   NC2 1357  18.748  18.000  26.384  0.0324  0.2131  0.0458
   57BOLB   PO2 1358  18.882  18.525  26.350  0.1660 -0.0806 -0.0966
   57BOLB   GL3 1359  19.161  18.399  26.118 -0.3319 -0.0516  0.1724
   57BOLB   GL4 1360  19.403  18.568  26.260 -0.0892 -0.0514 -0.1387
   57BOLB   C1C 1361  19.425  18.257  25.871  0.1285 -0.3333  0.1441
   57BOLB   C2C 1362  19.739  18.012  25.698  0.2632  0.0394 -0.3329
   57BOLB   C3C 1363  20.123  18.161  25.712 -0.0267  0.0509 -0.2583
   57BOLB   C4C 1364  20.507  17.932  25.862  0.1605  0.5899  0.0308
   57BOLB   C1D 1365  19.485  18.825  26.006  0.2562 -0.2947 -0.1829
   57BOLB   C2D 1366  19.720  19.046  25.710 -0.1500  0.2555  0.1062
   57BOLB   C3D 1367  20.127  19.174  25.515 -0.1765 -0.1209 -0.0962
   57BOLB   C4D 1368  20.410  19.540  25.584 -0.2058  0.0615 -0.4421
   58BOLB   NC1 1369  21.737  19.095  21.051 -0.2035 -0.1790  0.1999
   58BOLB   PO1 1370  21.986  19.422  20.880  0.2107  0.0946  0.1323
   58BOLB   GL1 1371  21.550  19.546  20.867 -0.2747 -0.1236 -0.0237
   58BOLB   GL2 1372  21.374  19.867  20.778 -0.5577 -0.0849  0.0925
   58BOLB   C1A 1373  21.252  19.457  21.212 -0.0612  0.1622  0.0637
   58BOLB   C2A 1374  21.138  19.033  21.456  0.0631 -0.1909 -0.0523
   58BOLB   C3A 1375  20.816  18.697  21.351 -0.0555 -0.1184  0.0420
   58BOLB   C4A 1376  20.541  18.309  21.047  0.1412  0.2318  0.4278
   58BOLB   C1B 1377  20.946  19.863  20.988  0.3892  0.1731 -0.2107
   58BOLB   C2B 1378  20.838  19.573  21.369 -0.2063  0.1699  0.0126
   58BOLB   C3B 1379  20.488  19.530  21.702 -0.0949  0.1127  0.1489
   58BOLB   C4B 1380  20.066  19.403  21.845 -0.0739  0.0909  0.0271
   58BOLB   NC2 1381  21.128  18.727  18.259  0.2368  0.1386  0.4046
   58BOLB   PO2 1382  21.127  18.732  18.783 -0.1801 -0.2019  0.0637
   58BOLB   GL3 1383  20.970  18.640  19.169  0.3071 -0.0973  0.1156
   58BOLB   GL4 1384  20.726  18.453  19.069  0.1111  0.0418  0.0485
   58BOLB   C1C 1385  21.195  18.532  19.579  0.0984 -0.2172  0.0109
   58BOLB   C2C 1386  21.168  18.394  20.004 -0.3053  0.0407 -0.1296
   58BOLB   C3C 1387  20.965  18.331  20.496 -0.0718  0.0055  0.0152
   58BOLB   C4C 1388  20.542  18.253  20.645  0.0364  0.0255 -0.0222
   58BOLB   C1D 1389  20.289  18.317  19.163  0.1236  0.0821  0.1740
   58BOLB   C2D 1390  19.941  18.352  18.946 -0.1588  0.2492  0.1803
   58BOLB   C3D 1391  19.575  18.124  18.968 -0.4865  0.1535 -0.2835
   58BOLB   C4D 1392  19.258  18.296  18.930  0.2857 -0.2305  0.1697
   59BOLB   NC1 1393   6.123  19.099  23.642 -0.0111 -0.1519 -0.0874
   59BOLB   PO1 1394   5.960  18.744  23.957 -0.0169  0.1128  0.0188
   59BOLB   GL1 1395   6.191  18.438  24.216  0.2623 -0.1350 -0.1258
   59BOLB   GL2 1396   6.371  18.772  24.368 -0.5612 -0.1667  0.5118
   59BOLB   C1A 1397   6.639  18.426  24.236  0.0363 -0.0374 -0.1863
   59BOLB   C2A 1398   7.000  18.303  24.056  0.0245 -0.3054 -0.1209
   59BOLB   C3A 1399   7.444  18.125  24.259  0.1018  0.3446  0.0855
   59BOLB   C4A 1400   7.838  18.180  24.068  0.0728 -0.1783 -0.0712
   59BOLB   C1B 1401   6.631  18.689  24.726  0.0898 -0.2262 -0.2275
   59BOLB   C2B 1402   6.719  18.313  24.958 -0.0232 -0.1667  0.2046
   59BOLB   C3B 1403   7.043  18.173  25.228  0.0921  0.1938 -0.1435
   59BOLB   C4B 1404   7.383  18.484  25.537  0.0515 -0.3158 -0.0495
   59BOLB   NC2 1405   7.370  19.097  22.216  0.2381  0.0037 -0.2229
   59BOLB   PO2 1406   7.756  19.188  21.885 -0.0319  0.2533 -0.0516
   59BOLB   GL3 1407   8.008  19.012  22.151 -0.0616  0.1160 -0.1480
   59BOLB   GL4 1408   8.193  19.211  22.272 -0.1427  0.1617 -0.1737
   59BOLB   C1C 1409   7.970  18.724  22.581 -0.0187 -0.2839  0.1340
   59BOLB   C2C 1410   7.928  18.600  23.018  0.1474  0.1827  0.1979
   59BOLB   C3C 1411   8.138  18.362  23.386  0.2632 -0.0280  0.1061
   59BOLB   C4C 1412   8.124  18.313  23.814  0.1876  0.0646  0.1719
   59BOLB   C1D 1413   8.374  19.401  22.682  0.2984  0.0245  0.1526
   59BOLB   C2D 1414   8.193  19.568  23.078 -0.4186 -0.2331 -0.1965
   59BOLB   C3D 1415   8.127  19.773  23.572 -0.0327  0.0255 -0.0796
   59BOLB   C4D 1416   8.149  19.746  24.094  0.1147 -0.0241 -0.0435
   60BOLB   NC1 1417  23.041  13.602  34.881  0.2811  0.2420 -0.0475
   60BOLB   PO1 1418  23.022  14.025  35.044  0.0410 -0.0923 -0.3254
   60BOLB   GL1 1419  23.302  14.310  35.228 -0.0194 -0.1996  0.1961
   60BOLB   GL2 1420  23.123  14.606  35.478 -0.2250  0.1679 -0.3288
   60BOLB   C1A 1421  23.589  14.520  35.279 -0.2022 -0.0954  0.0635
   60BOLB   C2A 1422  23.837  14.609  35.593  0.1502  0.0433  0.0306
   60BOLB   C3A 1423  24.236  14.320  35.749 -0.0411  0.1665  0.0290
   60BOLB   C4A 1424  24.528  14.487  35.907 -0.0982 -0.2219  0.1315
   60BOLB   C1B 1425  23.398  15.016  35.449 -0.2092  0.0095 -0.0930
   60BOLB   C2B 1426  23.679  15.386  35.483 -0.0628  0.2983  0.4027
   60BOLB   C3B 1427  23.631  15.822  35.447 -0.1857 -0.1567  0.2193
   60BOLB   C4B 1428  23.763  16.262  35.521  0.0013  0.0485 -0.0373
   60BOLB   NC2 1429  26.869  14.813  36.816 -0.0052 -0.2455 -0.0162
   60BOLB   PO2 1430  26.478  14.988  36.738  0.0422 -0.0245  0.0413
   60BOLB   GL3 1431  26.098  14.669  36.837  0.1769  0.1619 -0.0788
   60BOLB   GL4 1432  25.945  14.614  37.087  0.1003  0.2230 -0.0920
   60BOLB   C1C 1433  25.815  14.655  36.554 -0.0285 -0.4308 -0.1984
   60BOLB   C2C 1434  25.436  14.571  36.512 -0.3968 -0.3850  0.2472
   60BOLB   C3C 1435  25.175  14.824  36.274  0.0069 -0.3098 -0.0952
   60BOLB   C4C 1436  24.825  14.669  36.051 -0.0646 -0.1588  0.2064
   60BOLB   C1D 1437  25.586  14.434  37.014 -0.2079  0.0292  0.3152
   60BOLB   C2D 1438  25.271  14.312  36.887 -0.1626 -0.3319 -0.1087
   60BOLB   C3D 1439  24.860  14.235  36.696 -0.1058 -0.0738 -0.0008
   60BOLB   C4D 1440  24.617  14.250  36.360 -0.2177  0.1235  0.0016
   61BOLB   NC1 1441   8.039  10.686  27.151  0.1551 -0.0375 -0.2090
   61BOLB   PO1 1442   8.383  10.371  26.884  0.0209 -0.0370 -0.1505
   61BOLB   GL1 1443   7.927  10.347  26.560 -0.1388 -0.2164 -0.0925
   61BOLB   GL2 1444   7.760  10.677  26.666  0.0894  0.0687  0.1381
   61BOLB   C1A 1445   7.530  10.230  26.395 -0.2803  0.0821  0.0326
   61BOLB   C2A 1446   7.233  10.148  26.076  0.2576 -0.2442 -0.0646
   61BOLB   C3A 1447   7.361  10.073  25.648 -0.0873 -0.1043  0.1811
   61BOLB   C4A 1448   7.451  10.267  25.261  0.3507 -0.0213  0.1618
   61BOLB   C1B 1449   7.515  10.699  26.430 -0.0424  0.2067  0.2174
   61BOLB   C2B 1450   7.155  10.724  26.249 -0.2275  0.3148 -0.0084
   61BOLB   C3B 1451   6.789  10.511  26.199 -0.1127 -0.1089  0.1411
   61BOLB   C4B 1452   6.707  10.142  26.156 -0.0396  0.4180  0.0904
   61BOLB   NC2 1453   5.154  10.130  24.859 -0.1029  0.3023  0.0224
   61BOLB   PO2 1454   5.284  10.311  24.424 -0.0333  0.1683  0.0840
   61BOLB   GL3 1455   5.645  10.461  24.637  0.0877 -0.1666  0.0150
   61BOLB   GL4 1456   5.709  10.252  24.743 -0.4613 -0.1029  0.0569
   61BOLB   C1C 1457   6.161  10.511  24.718  0.4647  0.1139 -0.1942
   61BOLB   C2C 1458   6.554  10.573  24.858 -0.1520  0.3398 -0.0914
   61BOLB   C3C 1459   6.919  10.607  25.071  0.3192 -0.0750 -0.0157
   61BOLB   C4C 1460   7.297  10.562  25.014 -0.3070 -0.1285  0.3346
   61BOLB   C1D 1461   6.041  10.015  24.574  0.1023  0.0579 -0.2111
   61BOLB   C2D 1462   6.408   9.650  24.542 -0.0637 -0.0861 -0.1641
   61BOLB   C3D 1463   6.792   9.571  24.575 -0.1076  0.0452 -0.1220
   61BOLB   C4D 1464   6.975   9.353  24.309  0.3751  0.4106 -0.1408
   62BOLB   NC1 1465  26.768  10.111  22.325  0.0859 -0.1087  0.2306
   62BOLB   PO1 1466  26.539  10.488  22.045  0.0677  0.1889  0.0049
   62BOLB   GL1 1467  26.092  10.601  22.153  0.2936  0.4298  0.5065
   62BOLB   GL2 1468  26.123  10.861  22.004 -0.1519  0.0330  0.1827
   62BOLB   C1A 1469  25.710  10.396  22.225  0.0197  0.0371  0.0544
   62BOLB   C2A 1470  25.366  10.682  22.495 -0.0197  0.1497 -0.2825
   62BOLB   C3A 1471  25.128  11.070  22.450 -0.1768  0.2023  0.0230
   62BOLB   C4A 1472  24.797  11.298  22.443  0.3188 -0.1203 -0.1576
   62BOLB   C1B 1473  25.829  10.997  22.313 -0.1851  0.2236  0.0570
   62BOLB   C2B 1474  25.657  11.230  22.602  0.1047 -0.3953  0.0206
   62BOLB   C3B 1475  25.222  11.451  22.819  0.1355  0.0651  0.0818
   62BOLB   C4B 1476  24.914  11.938  22.903 -0.1105 -0.3256  0.1692
   62BOLB   NC2 1477  26.436  12.262  21.224 -0.2299 -0.0412  0.1248
   62BOLB   PO2 1478  26.377  12.103  21.677 -0.1414 -0.1250  0.1187
   62BOLB   GL3 1479  25.992  12.023  21.680  0.0150 -0.2871 -0.0441
   62BOLB   GL4 1480  25.998  11.676  21.705 -0.2947  0.1825  0.2154
   62BOLB   C1C 1481  25.686  11.856  22.026  0.0558 -0.3985 -0.3072
   62BOLB   C2C 1482  25.390  12.117  22.253  0.4840  0.0302  0.4465
   62BOLB   C3C 1483  25.016  12.012  22.369 -0.0709 -0.0345 -0.2442
   62BOLB   C4C 1484  24.710  11.736  22.488  0.4351  0.3671  0.3709
   62BOLB   C1D 1485  25.583  11.649  21.576 -0.1932 -0.1097  0.1449
   62BOLB   C2D 1486  25.157  11.517  21.512  0.0914 -0.1592  0.0372
   62BOLB   C3D 1487  24.696  11.736  21.378 -0.1089  0.2745 -0.0630
   62BOLB   C4D 1488  24.387  11.902  21.281  0.1063 -0.0066  0.0407
   63BOLB   NC1 1489  10.272   6.838  32.115  0.2121  0.0607  0.2426
   63BOLB   PO1 1490  10.535   6.499  32.180 -0.1658  0.1817  0.1453
   63BOLB   GL1 1491  10.143   6.355  32.106 -0.1436  0.0143  0.2051
   63BOLB   GL2 1492   9.868   6.269  31.890 -0.0247 -0.1675  0.0934
   63BOLB   C1A 1493  10.010   6.218  32.445 -0.2453  0.0586  0.2663
   63BOLB   C2A 1494   9.924   5.873  32.718 -0.1516 -0.1416  0.4743
   63BOLB   C3A 1495   9.929   5.456  32.829 -0.1472  0.1648  0.0388
   63BOLB   C4A 1496   9.861   4.970  32.828  0.5548 -0.0560 -0.1439
   63BOLB   C1B 1497   9.576   6.131  32.182  0.0537  0.4567 -0.4381
   63BOLB   C2B 1498   9.429   5.672  32.433  0.3000  0.1770  0.1127
   63BOLB   C3B 1499   9.376   5.281  32.648  0.1263 -0.0304  0.0034
   63BOLB   C4B 1500   8.945   5.210  32.731  0.1283  0.1745  0.1212
   63BOLB   NC2 1501   7.287   4.309  34.457 -0.0060  0.0290 -0.0231
   63BOLB   PO2 1502   7.654   4.236  34.232  0.0824 -0.1389 -0.2588
   63BOLB   GL3 1503   7.966   4.243  33.889  0.2953  0.1987  0.2323
   63BOLB   GL4 1504   8.286   4.297  34.113 -0.0565  0.1191  0.4070
   63BOLB   C1C 1505   8.268   4.378  33.498 -0.2922  0.2521 -0.5502
   63BOLB   C2C 1506   8.682   4.503  33.228 -0.0163  0.1020  0.2359
   63BOLB   C3C 1507   8.934   4.561  32.879  0.1067 -0.0750  0.1228
   63BOLB   C4C 1508   9.375   4.729  32.744  0.1187 -0.1785 -0.2253
   63BOLB   C1D 1509   8.589   4.405  33.853  0.1397 -0.3149  0.1795
   63BOLB   C2D 1510   8.982   4.417  33.629  0.0547  0.5004 -0.0590
   63BOLB   C3D 1511   9.336   4.475  33.358  0.0597  0.1976  0.1566
   63BOLB   C4D 1512   9.457   4.884  33.223 -0.3883 -0.0102 -0.1280
   64BOLB   NC1 1513  17.118  16.526  24.461  0.4817  0.1576  0.1109
   64BOLB   PO1 1514  17.277  16.358  24.127 -0.2461 -0.0059  0.0281
   64BOLB   GL1 1515  17.253  16.005  24.440 -0.0116  0.3568 -0.1925
   64BOLB   GL2 1516  17.630  15.978  24.681  0.1125  0.1787  0.1366
   64BOLB   C1A 1517  17.354  15.585  24.552  0.1694 -0.2219 -0.0022
   64BOLB   C2A 1518  17.078  15.300  24.774  0.0978 -0.1270  0.1011
   64BOLB   C3A 1519  16.873  14.985  24.988  0.0183 -0.2195 -0.2965
   64BOLB   C4A 1520  16.528  14.820  25.348  0.0252 -0.1309  0.3230
   64BOLB   C1B 1521  17.668  15.763  25.102  0.1159 -0.2332  0.1118
   64BOLB   C2B 1522  17.411  15.366  25.116 -0.4035  0.0854 -0.1580
   64BOLB   C3B 1523  17.309  14.950  25.231  0.0451  0.0655  0.0080
   64BOLB   C4B 1524  17.300  14.637  25.460 -0.2273  0.1487 -0.1037
   64BOLB   NC2 1525  13.999  14.741  24.507  0.2417  0.1968  0.0417
   64BOLB   PO2 1526  14.364  14.769  24.207 -0.1065  0.0438  0.1322
   64BOLB   GL3 1527  14.616  14.586  24.489  0.2991  0.3878 -0.0469
   64BOLB   GL4 1528  14.467  14.658  24.881 -0.2517 -0.2460  0.0359
   64BOLB   C1C 1529  15.079  14.340  24.595  0.2890 -0.1038 -0.0201
   64BOLB   C2C 1530  15.571  14.349  24.676 -0.0372 -0.1846 -0.5238
   64BOLB   C3C 1531  15.962  14.220  24.961  0.0037 -0.0867 -0.3907
   64BOLB   C4C 1532  16.278  14.451  25.278  0.0450  0.0615 -0.2427
   64BOLB   C1D 1533  14.231  14.187  25.044 -0.2745 -0.3221  0.2145
   64BOLB   C2D 1534  14.140  13.757  25.116 -0.2377 -0.0276  0.1320
   64BOLB   C3D 1535  13.821  13.563  24.962  0.0633  0.0871 -0.2034
   64BOLB   C4D 1536  13.746  13.051  25.018 -0.0534  0.2257  0.0324
   65BOLB   NC1 1537  10.053  17.732  35.385  0.2706 -0.1585  0.5515
   65BOLB   PO1 1538   9.767  17.449  35.182 -0.1218  0.0634 -0.0838
   65BOLB   GL1 1539   9.476  17.742  35.182 -0.1416  0.0954  0.3289
   65BOLB   GL2 1540   9.486  18.137  35.253  0.2453  0.1538 -0.4064
   65BOLB   C1A 1541   9.046  17.816  35.374 -0.1232  0.1935 -0.0125
   65BOLB   C2A 1542   8.977  18.032  35.672  0.2190  0.0152  0.0950
   65BOLB   C3A 1543   8.961  18.390  35.886 -0.1672 -0.3479 -0.0290
   65BOLB   C4A 1544   8.772  18.596  36.319  0.1632  0.0834 -0.1588
   65BOLB   C1B 1545   9.160  18.391  35.307  0.2802 -0.0584  0.0971
   65BOLB   C2B 1546   9.170  18.785  35.530 -0.2260  0.1002  0.0625
   65BOLB   C3B 1547   9.122  19.036  35.871 -0.1227  0.0144  0.1308
   65BOLB   C4B 1548   8.951  19.444  35.834  0.0991 -0.0921  0.0050
   65BOLB   NC2 1549   7.001  19.576  38.301 -0.3393  0.0064  0.2068
   65BOLB   PO2 1550   7.211  19.671  37.972 -0.0074  0.1249  0.2952
   65BOLB   GL3 1551   7.319  19.412  37.713  0.1586  0.0781 -0.1017
   65BOLB   GL4 1552   7.092  19.129  37.658 -0.0020  0.1372 -0.0119
   65BOLB   C1C 1553   7.659  19.204  37.472  0.0448 -0.2356  0.0374
   65BOLB   C2C 1554   7.906  19.286  37.150  0.0793 -0.2109 -0.1468
   65BOLB   C3C 1555   8.245  19.096  36.891  0.3067  0.1434  0.3722
   65BOLB   C4C 1556   8.372  18.757  36.480  0.2247  0.1496  0.0207
   65BOLB   C1D 1557   7.332  18.806  37.437 -0.1711  0.0675 -0.1668
   65BOLB   C2D 1558   7.814  18.748  37.372  0.2338 -0.3411  0.2843
   65BOLB   C3D 1559   8.137  18.731  37.195 -0.2164  0.0234  0.0674
   65BOLB   C4D 1560   8.398  18.497  36.913  0.0858  0.2188 -0.0168
   66BOLB   NC1 1561  22.829  18.315  21.427 -0.0038 -0.0204 -0.0887
   66BOLB   PO1 1562  22.825  18.452  21.894  0.1055 -0.3968  0.1849
   66BOLB   GL1 1563  22.645  18.141  21.984  0.1306 -0.0438  0.3533
   66BOLB   GL2 1564  22.533  17.933  21.659 -0.4033  0.2461  0.0567
   66BOLB   C1A 1565  22.218  18.026  22.065 -0.0404  0.3264  0.4245
   66BOLB   C2A 1566  21.977  17.666  22.137 -0.2091  0.0583  0.0835
   66BOLB   C3A 1567  21.644  17.614  22.463  0.1528 -0.0250  0.3303
   66BOLB   C4A 1568  21.193  17.503  22.461  0.0764 -0.0145 -0.0674
   66BOLB   C1B 1569  22.187  17.844  21.530  0.2071 -0.1181  0.0541
   66BOLB   C2B 1570  21.951  17.603  21.314 -0.3296 -0.0550  0.0652
   66BOLB   C3B 1571  21.726  17.279  21.119  0.1062  0.1642 -0.2244
   66BOLB   C4B 1572  21.531  16.800  21.174 -0.2749 -0.1685 -0.0509
   66BOLB   NC2 1573  19.442  16.435  21.980 -0.0141 -0.1515 -0.0499
   66BOLB   PO2 1574  19.411  16.364  21.498 -0.0132  0.1011  0.0608
   66BOLB   GL3 1575  19.856  16.450  21.459 -0.0991  0.0106 -0.1780
   66BOLB   GL4 1576  20.053  16.358  21.210 -0.0506 -0.0523 -0.1385
   66BOLB   C1C 1577  20.226  16.636  21.637 -0.0011  0.0775 -0.3306
   66BOLB   C2C 1578  20.340  16.724  21.979 -0.1917 -0.0801  0.1866
   66BOLB   C3C 1579  20.433  17.192  22.043 -0.0347 -0.1707 -0.0651
   66BOLB   C4C 1580  20.773  17.342  22.288  0.0350 -0.0829  0.1043
   66BOLB   C1D 1581  20.471  16.358  21.235 -0.0351 -0.1416 -0.2636
   66BOLB   C2D 1582  20.705  16.591  21.007  0.1357 -0.2786 -0.1323
   66BOLB   C3D 1583  20.833  16.697  20.680  0.1564  0.2588 -0.1086
   66BOLB   C4D 1584  21.090  16.839  20.379 -0.0090  0.0493 -0.1854
   67BOLB   NC1 1585  17.760  17.315  26.817 -0.0324 -0.0822  0.1181
   67BOLB   PO1 1586  18.122  17.405  26.632 -0.0426 -0.0733  0.1513
   67BOLB   GL1 1587  18.095  17.147  26.427  0.1508  0.3278 -0.0085
   67BOLB   GL2 1588  18.220  16.923  26.609  0.0331  0.0449 -0.0662
   67BOLB   C1A 1589  18.243  16.928  26.085 -0.1523 -0.0146  0.1492
   67BOLB   C2A 1590  18.374  17.008  25.684  0.1759 -0.3771 -0.0617
   67BOLB   C3A 1591  18.603  16.830  25.479 -0.0885 -0.1937  0.1695
   67BOLB   C4A 1592  18.942  16.678  25.613 -0.1322  0.0193  0.0411
   67BOLB   C1B 1593  18.587  16.704  26.525 -0.2257  0.1397 -0.0150
   67BOLB   C2B 1594  18.798  16.272  26.392 -0.1367  0.4574 -0.0257
   67BOLB   C3B 1595  18.971  15.968  26.288  0.0985 -0.0903 -0.0458
   67BOLB   C4B 1596  18.990  15.611  26.616  0.0384 -0.0544 -0.0605
   67BOLB   NC2 1597  20.039  15.339  26.962  0.2656 -0.0500  0.0605
   67BOLB   PO2 1598  19.969  15.679  26.890  0.1912 -0.1299  0.0715
   67BOLB   GL3 1599  20.103  15.667  26.525  0.3011  0.1058  0.2414
   67BOLB   GL4 1600  20.263  15.362  26.503  0.2200 -0.1176  0.1389
   67BOLB   C1C 1601  19.979  15.821  26.091  0.1498 -0.1516 -0.2661
   67BOLB   C2C 1602  19.692  16.141  25.852  0.0383 -0.0006 -0.0094
   67BOLB   C3C 1603  19.394  16.108  25.559 -0.0743  0.0469  0.0608
   67BOLB   C4C 1604  19.289  16.393  25.456  0.1602 -0.0622  0.2641
   67BOLB   C1D 1605  20.444  15.640  26.150 -0.2236 -0.2146 -0.0254
   67BOLB   C2D 1606  20.474  16.046  25.979 -0.2337 -0.4563 -0.0106
   67BOLB   C3D 1607  20.750  16.148  25.616  0.1566  0.5245 -0.2124
   67BOLB   C4D 1608  21.108  16.336  25.367  0.2695  0.0956 -0.0822
   68BOLB   NC1 1609  10.163  10.504  37.106 -0.1421  0.1586  0.0084
   68BOLB   PO1 1610  10.168  10.376  36.587 -0.1477  0.2899 -0.0641
   68BOLB   GL1 1611   9.751  10.363  36.854  0.0756  0.2056  0.4939
   68BOLB   GL2 1612   9.441  10.471  36.692  0.1234 -0.0261  0.0821
   68BOLB   C1A 1613   9.522  10.434  37.260  0.0686  0.0016 -0.1341
   68BOLB   C2A 1614   9.126  10.387  37.577  0.1278  0.1376 -0.0645
   68BOLB   C3A 1615   8.903  10.321  38.049  0.2628  0.1449 -0.2971
   68BOLB   C4A 1616   8.535   9.988  38.386 -0.1901  0.1383 -0.0247
   68BOLB   C1B 1617   9.102  10.359  36.979 -0.0648  0.1198 -0.0102
   68BOLB   C2B 1618   8.708  10.292  37.057  0.0293 -0.0544 -0.1601
   68BOLB   C3B 1619   8.299  10.129  37.124  0.3213 -0.1010  0.1158
   68BOLB   C4B 1620   8.126   9.791  36.952 -0.1962  0.0461 -0.2203
   68BOLB   NC2 1621   7.688   7.985  39.178 -0.0868  0.0589  0.3010
   68BOLB   PO2 1622   7.663   8.199  39.623  0.2960 -0.4367 -0.1182
   68BOLB   GL3 1623   7.989   8.393  39.490 -0.2368 -0.0918 -0.0332
   68BOLB   GL4 1624   8.258   8.330  39.679  0.0471  0.2381 -0.0146
   68BOLB   C1C 1625   7.993   8.734  39.083  0.0529 -0.1730  0.0500
   68BOLB   C2C 1626   8.139   8.964  38.705  0.0273  0.2782 -0.1504
   68BOLB   C3C 1627   8.389   9.172  38.572 -0.2536 -0.0357 -0.1585
   68BOLB   C4C 1628   8.298   9.496  38.424 -0.1073 -0.0275 -0.0057
   68BOLB   C1D 1629   8.614   8.321  39.381  0.3345 -0.1737  0.1600
   68BOLB   C2D 1630   8.830   8.463  39.092  0.2546  0.3909 -0.0616
   68BOLB   C3D 1631   9.041   8.588  38.681 -0.0999  0.0501 -0.0905
   68BOLB   C4D 1632   9.232   8.593  38.253  0.2055 -0.2303  0.2662
   69BOLB   NC1 1633  22.605  12.256  23.786 -0.2420  0.0595  0.0500
   69BOLB   PO1 1634  22.461  12.048  24.053  0.2045 -0.1107  0.0021
   69BOLB   GL1 1635  22.853  11.974  24.176  0.0577  0.1199  0.0697
   69BOLB   GL2 1636  23.150  11.907  24.065  0.1647 -0.0110  0.0560
   69BOLB   C1A 1637  23.156  12.219  24.482 -0.0184  0.0232  0.0546
   69BOLB   C2A 1638  23.269  12.604  24.702 -0.4087  0.0548 -0.1894
   69BOLB   C3A 1639  23.549  12.835  24.738 -0.1006 -0.1112  0.2510
   69BOLB   C4A 1640  24.021  12.845  24.696  0.1675 -0.2542  0.2834
   69BOLB   C1B 1641  23.521  11.968  23.844  0.0636  0.0342 -0.0808
   69BOLB   C2B 1642  23.861  12.078  23.659 -0.2355  0.0291 -0.0197
   69BOLB   C3B 1643  24.133  12.318  23.526  0.0879 -0.2262 -0.1601
   69BOLB   C4B 1644  24.171  12.550  23.127 -0.0007 -0.0477 -0.0952
   69BOLB   NC2 1645  26.359  13.799  24.134  0.3156  0.1430 -0.1602
   69BOLB   PO2 1646  26.009  13.898  23.992 -0.3407  0.3987  0.1212
   69BOLB   GL3 1647  25.665  14.063  23.957 -0.5470 -0.3037  0.0681
   69BOLB   GL4 1648  25.529  14.299  23.968  0.0942  0.0315  0.2888
   69BOLB   C1C 1649  25.174  14.064  24.179  0.5999 -0.5673  0.2579
   69BOLB   C2C 1650  24.916  13.772  24.452  0.1911  0.1973  0.3422
   69BOLB   C3C 1651  24.714  13.390  24.645 -0.0791  0.0402  0.2564
   69BOLB   C4C 1652  24.337  13.115  24.812  0.1681 -0.1911  0.0842
   69BOLB   C1D 1653  25.153  14.319  23.733 -0.1934  0.2825 -0.1130
   69BOLB   C2D 1654  24.856  14.168  23.532 -0.6122  0.1723 -0.0049
   69BOLB   C3D 1655  24.618  13.891  23.704 -0.0681 -0.1885 -0.1432
   69BOLB   C4D 1656  24.384  13.526  23.633 -0.0622  0.1525  0.4823
   70BOLB   NC1 1657   9.212  11.603  34.938 -0.0365 -0.0655  0.0144
   70BOLB   PO1 1658   8.796  11.530  35.094 -0.1461  0.3279  0.0791
   70BOLB   GL1 1659   8.304  11.512  35.204  0.3364  0.0618 -0.1054
   70BOLB   GL2 1660   8.262  11.643  35.514  0.1701 -0.0861 -0.2755
   70BOLB   C1A 1661   7.822  11.556  35.123  0.1226 -0.1202  0.0219
   70BOLB   C2A 1662   7.445  11.684  35.160 -0.1607 -0.1749  0.0081
   70BOLB   C3A 1663   6.995  11.486  35.185 -0.2229 -0.0578 -0.0226
   70BOLB   C4A 1664   6.656  11.243  35.431 -0.1011 -0.1691  0.1157
   70BOLB   C1B 1665   7.947  11.544  35.812  0.0107 -0.0952 -0.1122
   70BOLB   C2B 1666   7.653  11.470  36.140 -0.2188 -0.1767 -0.3159
   70BOLB   C3B 1667   7.417  11.655  36.440  0.0232  0.2133  0.0342
   70BOLB   C4B 1668   7.184  11.661  36.832 -0.1495 -0.2733  0.1167
   70BOLB   NC2 1669   5.693  11.028  37.921  0.2066 -0.0482 -0.0304
   70BOLB   PO2 1670   5.372  11.340  37.561 -0.2443 -0.0674  0.3173
   70BOLB   GL3 1671   5.596  11.197  37.223  0.0339 -0.2619  0.0841
   70BOLB   GL4 1672   5.616  10.899  37.105  0.2340 -0.1269 -0.1130
   70BOLB   C1C 1673   5.689  11.215  36.726 -0.2474 -0.1612  0.3904
   70BOLB   C2C 1674   5.745  11.142  36.332 -0.0156 -0.0459 -0.1891
   70BOLB   C3C 1675   5.888  11.161  35.958  0.0722  0.0490  0.0734
   70BOLB   C4C 1676   6.324  11.145  35.617 -0.2276  0.2426  0.2590
   70BOLB   C1D 1677   6.006  10.767  37.130  0.1648  0.0469 -0.1725
   70BOLB   C2D 1678   6.388  10.744  36.988 -0.0611 -0.0532  0.3081
   70BOLB   C3D 1679   6.863  10.685  37.066 -0.1179  0.2680 -0.0068
   70BOLB   C4D 1680   7.315  10.698  37.364 -0.0898 -0.0007  0.1551
   71BOLB   NC1 1681  17.015   5.436  17.164  0.0351  0.0343  0.0478
   71BOLB   PO1 1682  16.657   5.537  17.424 -0.2438  0.2256  0.1524
   71BOLB   GL1 1683  16.566   5.553  17.878  0.0972 -0.2210 -0.0084
   71BOLB   GL2 1684  16.378   5.262  17.986 -0.2518  0.0955  0.0900
   71BOLB   C1A 1685  16.877   5.579  18.146 -0.0114 -0.1649 -0.1970
   71BOLB   C2A 1686  17.212   5.824  18.365 -0.1093  0.4551  0.3965
   71BOLB   C3A 1687  17.458   6.079  18.658  0.1769  0.2156 -0.0508
   71BOLB   C4A 1688  17.458   6.390  18.981  0.0113  0.2827 -0.2257
   71BOLB   C1B 1689  16.565   5.192  18.330  0.1616 -0.1485 -0.1882
   71BOLB   C2B 1690  16.853   5.468  18.619 -0.0992 -0.0342 -0.3073
   71BOLB   C3B 1691  17.268   5.639  18.815  0.1052 -0.0840 -0.1790
   71BOLB   C4B 1692  17.525   5.858  19.151  0.0399  0.0084 -0.0842
   71BOLB   NC2 1693  17.923   7.854  20.683 -0.3924  0.0392 -0.2314
   71BOLB   PO2 1694  17.973   8.219  20.469  0.1702 -0.0531 -0.1878
   71BOLB   GL3 1695  17.739   7.848  20.126  0.2817 -0.1421 -0.0749
   71BOLB   GL4 1696  17.901   7.616  20.163  0.0870 -0.1834  0.1455
   71BOLB   C1C 1697  17.637   7.765  19.705 -0.2273  0.1060  0.0211
   71BOLB   C2C 1698  17.435   7.530  19.380 -0.0563  0.1570  0.0304
   71BOLB   C3C 1699  17.339   7.101  19.291 -0.1972 -0.0723  0.0476
   71BOLB   C4C 1700  17.424   6.715  19.202 -0.1181 -0.1872  0.1686
   71BOLB   C1D 1701  17.724   7.309  20.022 -0.1605  0.2048 -0.0435
   71BOLB   C2D 1702  17.576   7.020  19.722  0.0622  0.0479  0.4835
   71BOLB   C3D 1703  17.770   6.776  19.571  0.1654 -0.1689  0.1252
   71BOLB   C4D 1704  17.949   6.554  19.339  0.0563 -0.1810  0.1163
   72BOLB   NC1 1705  19.819  18.047  29.691 -0.1971  0.0225 -0.3302
   72BOLB   PO1 1706  19.795  18.285  30.082 -0.1779 -0.1717 -0.0366
   72BOLB   GL1 1707  20.036  18.609  30.251  0.0791  0.3448 -0.1435
   72BOLB   GL2 1708  20.059  18.800  29.953 -0.1283  0.0463 -0.1615
   72BOLB   C1A 1709  20.342  18.799  30.441  0.1466  0.0422  0.1038
   72BOLB   C2A 1710  20.725  19.051  30.517  0.0849  0.0465  0.0645
   72BOLB   C3A 1711  21.070  19.059  30.241 -0.0709 -0.1668 -0.0979
   72BOLB   C4A 1712  21.269  19.117  29.938 -0.3700 -0.0772 -0.0019
   72BOLB   C1B 1713  20.205  19.176  30.089  0.1600 -0.0911 -0.1448
   72BOLB   C2B 1714  20.591  19.293  30.024  0.1501 -0.1055  0.0160
   72BOLB   C3B 1715  21.026  19.556  30.098  0.0302  0.1470 -0.0768
   72BOLB   C4B 1716  21.371  19.483  30.346 -0.2240  0.0341 -0.1492
   72BOLB   NC2 1717  23.255  21.168  29.840  0.0034  0.2737 -0.2646
   72BOLB   PO2 1718  22.864  21.232  29.859  0.1600  0.0886  0.3139
   72BOLB   GL3 1719  22.496  20.888  29.897  0.0323  0.0656  0.2509
   72BOLB   GL4 1720  22.136  21.055  29.843  0.0384 -0.1352 -0.1929
   72BOLB   C1C 1721  22.194  20.528  29.691 -0.1121 -0.1067 -0.0601
   72BOLB   C2C 1722  21.888  20.175  29.715  0.1485  0.0611 -0.1047
   72BOLB   C3C 1723  21.717  19.748  29.683  0.0591  0.3133  0.2170
   72BOLB   C4C 1724  21.586  19.351  29.661  0.0365 -0.0280 -0.1533
   72BOLB   C1D 1725  21.869  21.112  29.472  0.4039  0.0709 -0.1579
   72BOLB   C2D 1726  21.564  20.956  29.486 -0.0542  0.2084 -0.0892
   72BOLB   C3D 1727  21.201  20.862  29.775 -0.5218 -0.0275  0.0156
   72BOLB   C4D 1728  21.211  20.651  30.261 -0.0559  0.2757  0.1794
   73BOLB   NC1 1729  24.570  12.182  17.434  0.6277  0.1950 -0.1281
   73BOLB   PO1 1730  24.655  12.545  17.724  0.0672 -0.2141 -0.1643
   73BOLB   GL1 1731  24.306  12.295  17.844  0.1053  0.0709 -0.1728
   73BOLB   GL2 1732  24.011  12.436  17.824  0.2800  0.0071  0.0839
   73BOLB   C1A 1733  24.002  11.981  18.037  0.1526  0.3910 -0.0062
   73BOLB   C2A 1734  23.594  11.769  17.888  0.2840 -0.1350 -0.1922
   73BOLB   C3A 1735  23.158  11.646  17.834  0.0876  0.0663  0.1830
   73BOLB   C4A 1736  22.681  11.673  17.713 -0.0555  0.0847 -0.0464
   73BOLB   C1B 1737  23.557  12.353  18.014  0.1062 -0.0295 -0.0564
   73BOLB   C2B 1738  23.092  12.238  17.985  0.1977  0.1398 -0.1942
   73BOLB   C3B 1739  22.749  12.364  18.401 -0.2168  0.0487 -0.1445
   73BOLB   C4B 1740  22.680  12.360  18.891  0.1107 -0.1415 -0.0367
   73BOLB   NC2 1741  22.766  12.340  15.687 -0.2641  0.1685 -0.1935
   73BOLB   PO2 1742  22.530  12.293  16.049 -0.0753 -0.1569 -0.0444
   73BOLB   GL3 1743  22.481  12.423  16.525  0.1303 -0.2125 -0.0852
   73BOLB   GL4 1744  22.763  12.387  16.721  0.3572  0.3006  0.2173
   73BOLB   C1C 1745  22.184  12.448  16.741  0.1727  0.0700  0.0940
   73BOLB   C2C 1746  22.095  12.197  17.094  0.0948 -0.2265  0.2046
   73BOLB   C3C 1747  22.006  12.019  17.429 -0.1127 -0.1747  0.0695
   73BOLB   C4C 1748  22.374  11.883  17.710 -0.1303 -0.0263  0.0187
   73BOLB   C1D 1749  22.803  12.156  17.078  0.0805 -0.1170  0.6924
   73BOLB   C2D 1750  22.530  11.939  17.257  0.1480  0.1447 -0.0023
   73BOLB   C3D 1751  22.207  11.590  17.285  0.0433 -0.0315 -0.1733
   73BOLB   C4D 1752  21.782  11.526  17.320 -0.0459 -0.0584  0.1457
   74BOLB   NC1 1753  15.432  16.247  43.243 -0.2409  0.0616  0.0816
   74BOLB   PO1 1754  15.557  16.467  42.923  0.0230  0.0589 -0.1088
   74BOLB   GL1 1755  15.749  16.404  42.624  0.0943 -0.0341 -0.0756
   74BOLB   GL2 1756  16.099  16.308  42.535  0.1045  0.1743 -0.2378
   74BOLB   C1A 1757  15.755  16.452  42.073 -0.0956  0.0599 -0.0609
   74BOLB   C2A 1758  15.623  16.326  41.666 -0.1498 -0.1266 -0.2870
   74BOLB   C3A 1759  15.336  16.104  41.512 -0.2031  0.1058 -0.2003
   74BOLB   C4A 1760  15.076  16.031  41.794  0.1688 -0.0142  0.2283
   74BOLB   C1B 1761  16.027  16.064  42.182 -0.2144  0.0701  0.0578
   74BOLB   C2B 1762  16.019  15.991  41.775  0.3198  0.0832 -0.1239
   74BOLB   C3B 1763  16.054  15.785  41.474  0.3105  0.0865 -0.0312
   74BOLB   C4B 1764  15.968  15.470  41.185 -0.2790 -0.0978  0.0278
   74BOLB   NC2 1765  13.221  17.262  42.842 -0.0959  0.0161 -0.0106
   74BOLB   PO2 1766  13.431  16.984  42.643  0.4554  0.0829 -0.1466
   74BOLB   GL3 1767  13.822  16.774  42.590 -0.1660  0.0933  0.2205
   74BOLB   GL4 1768  13.934  16.946  42.392  0.0819  0.1103 -0.2839
   74BOLB   C1C 1769  13.986  16.410  42.335 -0.1265 -0.0160 -0.0545
   74BOLB   C2C 1770  14.109  15.995  42.193  0.0448  0.2356 -0.0949
   74BOLB   C3C 1771  14.447  15.860  42.045 -0.3209  0.0722 -0.1313
   74BOLB   C4C 1772  14.804  15.971  42.030 -0.1240 -0.1594 -0.0121
   74BOLB   C1D 1773  13.689  16.681  42.068 -0.1051  0.3391  0.0653
   74BOLB   C2D 1774  13.431  16.448  41.748 -0.0337 -0.4187 -0.1871
   74BOLB   C3D 1775  13.195  16.427  41.469  0.5412 -0.0492  0.0830
   74BOLB   C4D 1776  12.855  16.268  41.266 -0.0108 -0.0995 -0.1412
   75BOLB   NC1 1777  15.034  15.461  26.994 -0.0730 -0.0922 -0.1025
   75BOLB   PO1 1778  15.420  15.430  27.246  0.1308 -0.1414  0.0606
   75BOLB   GL1 1779  15.433  15.170  26.808  0.0906  0.0736  0.0534
   75BOLB   GL2 1780  15.799  15.057  26.763 -0.0714  0.2395 -0.2272
   75BOLB   C1A 1781  15.419  14.916  26.488 -0.0931  0.0444  0.0004
   75BOLB   C2A 1782  15.634  14.585  26.168  0.1057  0.1220 -0.0443
   75BOLB   C3A 1783  15.776  14.383  25.815 -0.0009 -0.1319  0.0215
   75BOLB   C4A 1784  15.580  13.957  25.633  0.1680 -0.1464 -0.1625
   75BOLB   C1B 1785  15.926  14.627  26.557  0.1497 -0.0948 -0.1504
   75BOLB   C2B 1786  16.043  14.285  26.214 -0.1815 -0.2937 -0.1061
   75BOLB   C3B 1787  16.165  14.065  25.827  0.1809 -0.0629 -0.0984
   75BOLB   C4B 1788  16.074  13.884  25.372  0.2722  0.1617 -0.0258
   75BOLB   NC2 1789  13.988  13.848  27.043  0.2776  0.0620  0.0796
   75BOLB   PO2 1790  13.915  13.437  27.157  0.0347 -0.1036  0.0981
   75BOLB   GL3 1791  14.206  13.372  26.861  0.1906 -0.0868 -0.1799
   75BOLB   GL4 1792  14.012  13.199  26.574  0.2009  0.0344 -0.2729
   75BOLB   C1C 1793  14.609  13.255  26.902 -0.2585 -0.0416 -0.1631
   75BOLB   C2C 1794  14.862  13.440  26.618  0.2321  0.0495  0.0545
   75BOLB   C3C 1795  15.126  13.458  26.233  0.3943 -0.1019  0.1595
   75BOLB   C4C 1796  15.299  13.749  25.877 -0.0057  0.0854 -0.3097
   75BOLB   C1D 1797  14.260  13.551  26.452  0.1502 -0.2753 -0.2599
   75BOLB   C2D 1798  14.646  13.678  26.242  0.1180  0.0785  0.0389
   75BOLB   C3D 1799  14.898  13.981  26.206  0.1636  0.0379  0.0770
   75BOLB   C4D 1800  15.262  14.204  26.062 -0.1275  0.3492  0.2005
   76BOLB   NC1 1801  11.340   6.473  34.269 -0.1682  0.2170 -0.1062
   76BOLB   PO1 1802  11.145   6.583  34.570  0.1329  0.0101 -0.1730
   76BOLB   GL1 1803  10.794   6.522  34.640  0.1501 -0.0968  0.2733
   76BOLB   GL2 1804  10.838   6.221  34.841 -0.2054 -0.0869 -0.0345
   76BOLB   C1A 1805  10.353   6.417  34.443 -0.1066 -0.0435  0.0431
   76BOLB   C2A 1806   9.895   6.260  34.442  0.0716 -0.2012  0.1911
   76BOLB   C3A 1807   9.612   6.266  34.713 -0.0090  0.3379 -0.1192
   76BOLB   C4A 1808   9.317   6.236  35.043  0.0986  0.0355 -0.1293
   76BOLB   C1B 1809  10.785   5.809  34.908  0.2463  0.2168 -0.0457
   76BOLB   C2B 1810  10.953   5.398  34.971 -0.1077  0.2190  0.2262
   76BOLB   C3B 1811  10.926   4.937  35.158 -0.0952  0.2157  0.2800
   76BOLB   C4B 1812  10.513   4.662  35.352  0.2414  0.2604 -0.0373
   76BOLB   NC2 1813  10.210   7.709  34.805  0.0044  0.0908  0.0186
   76BOLB   PO2 1814  10.425   7.667  35.154  0.1411 -0.2772 -0.2661
   76BOLB   GL3 1815  10.026   7.553  35.299  0.2203  0.1253 -0.0029
   76BOLB   GL4 1816  10.032   7.260  35.552  0.0908  0.0632  0.5220
   76BOLB   C1C 1817   9.620   7.574  35.160 -0.0417 -0.0112  0.0463
   76BOLB   C2C 1818   9.232   7.323  35.129  0.1154 -0.1950  0.1349
   76BOLB   C3C 1819   9.125   6.967  35.133 -0.0194  0.0869  0.2787
   76BOLB   C4C 1820   9.037   6.655  35.141 -0.1685 -0.2270 -0.1565
   76BOLB   C1D 1821   9.688   7.156  35.399  0.2283 -0.2788  0.4014
   76BOLB   C2D 1822   9.459   6.950  35.496  0.2055 -0.1234 -0.0235
   76BOLB   C3D 1823   9.008   7.168  35.576 -0.2394 -0.1253 -0.0170
   76BOLB   C4D 1824   8.981   7.603  35.529 -0.2277 -0.0529  0.2982
   77BOLB   NC1 1825  11.600   1.084  27.482  0.2288  0.1926 -0.1598
   77BOLB   PO1 1826  11.980   1.065  27.267  0.0991  0.0309 -0.3052
   77BOLB   GL1 1827  12.233   1.235  27.652  0.2827  0.2966 -0.0192
   77BOLB   GL2 1828  12.585   1.073  27.767  0.2691  0.1544  0.0661
   77BOLB   C1A 1829  12.420   1.573  27.794 -0.1918  0.1982  0.0777
   77BOLB   C2A 1830  12.446   2.092  27.807 -0.0485  0.1007 -0.1416
   77BOLB   C3A 1831  12.609   2.477  27.584  0.1260  0.0832  0.0637
   77BOLB   C4A 1832  12.591   2.967  27.537 -0.0477 -0.1437  0.1399
   77BOLB   C1B 1833  12.799   1.362  27.451  0.1928  0.1513 -0.0359
   77BOLB   C2B 1834  12.805   1.805  27.413 -0.0201 -0.1213  0.1451
   77BOLB   C3B 1835  13.048   2.143  27.275  0.0880  0.1094  0.1879
   77BOLB   C4B 1836  13.462   2.236  27.064  0.3042  0.0138  0.3007
   77BOLB   NC2 1837  10.905   1.367  26.730 -0.0593  0.4674 -0.1334
   77BOLB   PO2 1838  11.157   1.721  26.905 -0.0103 -0.2283  0.2225
   77BOLB   GL3 1839  11.454   2.138  26.916  0.0572  0.0310  0.2482
   77BOLB   GL4 1840  11.503   1.924  27.263 -0.2507  0.0417  0.1042
   77BOLB   C1C 1841  11.574   2.587  27.023 -0.3115 -0.0839 -0.3659
   77BOLB   C2C 1842  11.619   3.006  26.962  0.0460 -0.0035 -0.2552
   77BOLB   C3C 1843  11.976   3.237  27.130  0.1119  0.4005  0.2032
   77BOLB   C4C 1844  12.219   3.221  27.384 -0.0179 -0.1296 -0.0294
   77BOLB   C1D 1845  11.531   2.355  27.552  0.3505  0.0830  0.3968
   77BOLB   C2D 1846  11.741   2.722  27.713  0.2540  0.1937 -0.0614
   77BOLB   C3D 1847  11.711   3.132  27.717 -0.2432 -0.1381  0.1986
   77BOLB   C4D 1848  11.354   3.307  28.003  0.0303 -0.2149 -0.0692
   78BOLB   NC1 1849   0.304  11.223  28.389  0.0071  0.0966  0.1137
   78BOLB   PO1 1850   0.126  10.919  28.074 -0.1826  0.2905  0.3104
   78BOLB   GL1 1851  26.870  11.255  28.252 -0.1546 -0.0010  0.1609
   78BOLB   GL2 1852  26.906  11.131  28.605 -0.0166 -0.4065  0.2158
   78BOLB   C1A 1853  26.537  11.389  28.405  0.1198  0.2719 -0.1372
   78BOLB   C2A 1854  26.342  11.530  28.790 -0.0662 -0.2776  0.2281
   78BOLB   C3A 1855  26.372  11.843  28.939 -0.3052  0.2331 -0.1997
   78BOLB   C4A 1856  26.586  12.166  29.050 -0.2304  0.1333 -0.1136
   78BOLB   C1B 1857  26.603  10.871  28.426  0.1223 -0.1177 -0.1201
   78BOLB   C2B 1858  26.087  10.745  28.307  0.2191  0.2380 -0.0522
   78BOLB   C3B 1859  25.686  10.971  28.455  0.2769  0.0310 -0.2981
   78BOLB   C4B 1860  25.360  11.231  28.574 -0.2781  0.1681  0.0909
   78BOLB   NC2 1861   0.962  12.601  30.854 -0.1116 -0.0225  0.2027
   78BOLB   PO2 1862   0.838  12.190  30.807  0.1004 -0.1279 -0.0878
   78BOLB   GL3 1863   0.307  12.173  30.744  0.0820  0.3919  0.1368
   78BOLB   GL4 1864   0.122  12.065  31.090  0.2508  0.4265  0.1292
   78BOLB   C1C 1865   0.093  12.453  30.412  0.0758 -0.2589  0.1873
   78BOLB   C2C 1866   0.044  12.573  30.007  0.2020 -0.1520 -0.3516
   78BOLB   C3C 1867   0.035  12.524  29.538  0.3400  0.0499 -0.0754
   78BOLB   C4C 1868  26.846  12.407  29.326  0.2087  0.0256  0.0760
   78BOLB   C1D 1869  26.893  11.776  31.106 -0.0589  0.2182  0.1242
   78BOLB   C2D 1870  26.446  11.613  31.065  0.0336 -0.1913 -0.0337
   78BOLB   C3D 1871  26.166  11.543  31.355  0.0978 -0.1418  0.2328
   78BOLB   C4D 1872  25.799  11.464  31.497 -0.1486  0.1379  0.2026
   79BOLB   NC1 1873  16.033  14.710  43.541 -0.1355 -0.1270  0.0852
   79BOLB   PO1 1874  15.738  15.057  43.379  0.0266  0.0321 -0.1445
   79BOLB   GL1 1875  15.682  14.803  43.026  0.1765  0.1731  0.0429
   79BOLB   GL2 1876  15.545  14.535  43.231  0.0733 -0.1915  0.0493
   79BOLB   C1A 1877  15.465  14.795  42.625  0.0568  0.0297  0.3249
   79BOLB   C2A 1878  15.156  14.466  42.325 -0.0565  0.2344 -0.1561
   79BOLB   C3A 1879  15.147  14.073  42.292 -0.1210 -0.2274  0.1637
   79BOLB   C4A 1880  14.913  13.912  42.185  0.2109  0.0232  0.2389
   79BOLB   C1B 1881  15.173  14.395  43.103 -0.1005  0.0863 -0.2019
   79BOLB   C2B 1882  14.681  14.344  42.863  0.3153  0.0738 -0.0151
   79BOLB   C3B 1883  14.304  14.156  42.819  0.0612  0.4784  0.0329
   79BOLB   C4B 1884  14.091  14.011  42.462 -0.2781 -0.2269 -0.0278
   79BOLB   NC2 1885  14.696  14.689  44.162 -0.1307  0.1183  0.3590
   79BOLB   PO2 1886  14.688  14.487  43.850  0.1550  0.3781  0.1375
   79BOLB   GL3 1887  14.750  14.354  43.431 -0.1358 -0.0245  0.0757
   79BOLB   GL4 1888  14.787  14.722  43.329 -0.0227  0.3462  0.1092
   79BOLB   C1C 1889  14.759  14.020  43.236  0.4013  0.3612 -0.1391
   79BOLB   C2C 1890  14.460  13.708  43.015  0.1603 -0.0870  0.1377
   79BOLB   C3C 1891  14.374  13.677  42.710  0.0389  0.0551 -0.2526
   79BOLB   C4C 1892  14.572  13.779  42.339 -0.2079 -0.2050 -0.0781
   79BOLB   C1D 1893  14.946  14.764  42.927 -0.1658  0.0834  0.3247
   79BOLB   C2D 1894  14.722  14.641  42.488 -0.0647 -0.2239  0.1431
   79BOLB   C3D 1895  14.817  14.565  42.029 -0.0365 -0.1535  0.2276
   79BOLB   C4D 1896  15.061  14.272  41.785  0.1118 -0.0826 -0.2677
   80BOLB   NC1 1897  11.627  20.205  18.537 -0.2254  0.3399  0.1701
   80BOLB   PO1 1898  11.725  19.922  18.714 -0.1869  0.2295  0.2802
   80BOLB   GL1 1899  11.883  19.449  18.920  0.1065 -0.0666 -0.2817
   80BOLB   GL2 1900  11.848  19.086  18.952  0.2822 -0.0796  0.3345
   80BOLB   C1A 1901  11.951  19.422  19.366  0.0517  0.0675  0.2363
   80BOLB   C2A 1902  12.148  19.136  19.774 -0.0240  0.0045  0.0936
   80BOLB   C3A 1903  12.267  18.930  20.161  0.0686  0.2438 -0.1322
   80BOLB   C4A 1904  12.071  18.615  20.408 -0.2090  0.1368 -0.2343
   80BOLB   C1B 1905  12.218  19.101  19.072 -0.3939 -0.0027 -0.3329
   80BOLB   C2B 1906  12.484  19.104  19.426 -0.2004 -0.2315 -0.1945
   80BOLB   C3B 1907  12.606  18.929  19.832 -0.1444 -0.2836 -0.1101
   80BOLB   C4B 1908  12.786  18.907  20.173  0.0648 -0.0299  0.0089
   80BOLB   NC2 1909  12.743  16.961  22.414 -0.2052  0.2404  0.0739
   80BOLB   PO2 1910  12.606  16.895  21.978 -0.0391  0.0772 -0.0308
   80BOLB   GL3 1911  12.480  17.207  21.748  0.4262  0.2143  0.3231
   80BOLB   GL4 1912  12.613  17.455  21.910  0.3718  0.1733 -0.0399
   80BOLB   C1C 1913  12.238  17.463  21.440 -0.4431  0.1560 -0.1165
   80BOLB   C2C 1914  12.209  17.685  21.089 -0.1632 -0.0696 -0.0470
   80BOLB   C3C 1915  12.143  18.111  20.994 -0.1008  0.1742 -0.2467
   80BOLB   C4C 1916  12.088  18.494  20.775 -0.2220 -0.1124  0.0927
   80BOLB   C1D 1917  12.554  17.827  21.789  0.5679 -0.3041  0.0008
   80BOLB   C2D 1918  12.549  18.019  21.361 -0.0603  0.1330  0.0553
   80BOLB   C3D 1919  12.596  18.310  21.111 -0.2235 -0.0240 -0.4195
   80BOLB   C4D 1920  13.005  18.572  21.106  0.2149 -0.2566  0.0738
   81BOLB   NC1 1921  16.102  10.595  27.748  0.2810 -0.1252 -0.1898
   81BOLB   PO1 1922  16.053  10.321  27.392  0.1149  0.0611  0.0358
   81BOLB   GL1 1923  15.832  10.677  27.248 -0.1078  0.0992 -0.0386
   81BOLB   GL2 1924  15.830  10.696  26.882 -0.3554 -0.1340  0.2467
   81BOLB   C1A 1925  15.853  11.080  27.271  0.2587 -0.2272  0.0115
   81BOLB   C2A 1926  15.838  11.502  27.296  0.4253 -0.0585 -0.0322
   81BOLB   C3A 1927  15.889  11.932  27.362 -0.1231  0.2760  0.0292
   81BOLB   C4A 1928  15.630  12.275  27.355  0.0978 -0.5934  0.0038
   81BOLB   C1B 1929  15.976  11.202  26.831 -0.0734  0.0939 -0.0360
   81BOLB   C2B 1930  16.318  11.507  26.629 -0.0636  0.6189  0.1068
   81BOLB   C3B 1931  16.644  11.454  26.620 -0.1804 -0.0591  0.1534
   81BOLB   C4B 1932  16.902  11.296  26.876  0.3012  0.1095 -0.0634
   81BOLB   NC2 1933  15.306  13.920  27.659  0.1596 -0.0413 -0.1438
   81BOLB   PO2 1934  14.853  14.001  27.476 -0.0421  0.1771 -0.0923
   81BOLB   GL3 1935  15.081  13.949  27.106  0.0822  0.2285 -0.2440
   81BOLB   GL4 1936  15.332  14.167  27.007  0.3831 -0.0703  0.1837
   81BOLB   C1C 1937  15.085  13.512  27.039  0.0038  0.2950 -0.2578
   81BOLB   C2C 1938  14.950  13.047  27.202 -0.1306  0.2228 -0.3941
   81BOLB   C3C 1939  15.179  12.825  27.422  0.1305 -0.0506  0.0726
   81BOLB   C4C 1940  15.478  12.688  27.322  0.0809 -0.0610 -0.0689
   81BOLB   C1D 1941  15.563  13.730  26.955  0.2788 -0.1806 -0.2034
   81BOLB   C2D 1942  15.394  13.388  26.677  0.1942  0.0419 -0.1887
   81BOLB   C3D 1943  15.532  13.000  26.475 -0.0888 -0.1801  0.0884
   81BOLB   C4D 1944  15.573  12.619  26.625 -0.0198 -0.1657  0.3857
   82BOLB   NC1 1945  23.441  13.272  30.292  0.0252 -0.2064 -0.0312
   82BOLB   PO1 1946  23.125  13.244  30.039  0.2544  0.2470 -0.0890
   82BOLB   GL1 1947  23.547  13.517  29.908 -0.0739 -0.0256  0.2686
   82BOLB   GL2 1948  23.473  13.904  29.756  0.0341 -0.0845 -0.0631
   82BOLB   C1A 1949  23.949  13.560  29.930  0.0942  0.0266 -0.1529
   82BOLB   C2A 1950  24.339  13.760  29.960 -0.0520  0.0515  0.0401
   82BOLB   C3A 1951  24.660  13.815  29.888 -0.1921 -0.1175 -0.0601
   82BOLB   C4A 1952  24.988  14.031  29.953 -0.0593 -0.0161 -0.0546
   82BOLB   C1B 1953  23.841  14.056  29.942  0.0945  0.2175  0.0270
   82BOLB   C2B 1954  24.089  14.261  29.658  0.0004 -0.2722 -0.0625
   82BOLB   C3B 1955  24.515  14.413  29.515  0.0637 -0.3168 -0.0422
   82BOLB   C4B 1956  24.948  14.349  29.617  0.2228  0.0677  0.1131
   82BOLB   NC2 1957   0.176  14.768  30.652  0.0858 -0.4176  0.0866
   82BOLB   PO2 1958   0.201  15.097  30.367 -0.4138  0.2072 -0.2821
   82BOLB   GL3 1959  26.929  14.851  30.283 -0.2477 -0.0598 -0.1356
   82BOLB   GL4 1960  26.624  15.073  30.412  0.1168  0.3331 -0.1849
   82BOLB   C1C 1961  26.518  14.543  30.388  0.2938 -0.2089 -0.1691
   82BOLB   C2C 1962  26.236  14.410  30.063 -0.1002 -0.0077  0.5841
   82BOLB   C3C 1963  25.852  14.211  29.955 -0.4528  0.2808  0.1507
   82BOLB   C4C 1964  25.425  14.083  29.848  0.2626  0.3194  0.0728
   82BOLB   C1D 1965  26.256  15.081  30.424 -0.0487  0.1007  0.1850
   82BOLB   C2D 1966  26.029  14.745  30.367 -0.2690 -0.0234 -0.0917
   82BOLB   C3D 1967  25.677  14.685  30.168 -0.1196  0.3342 -0.0074
   82BOLB   C4D 1968  25.286  14.535  29.945 -0.2739 -0.1343  0.1430
   83BOLB   NC1 1969  20.639   7.594  23.282  0.0154 -0.0733  0.1027
   83BOLB   PO1 1970  21.054   7.722  23.224  0.1064 -0.1925  0.0407
   83BOLB   GL1 1971  21.073   7.457  22.892  0.3661  0.0012 -0.0820
   83BOLB   GL2 1972  20.847   7.244  22.934  0.2326  0.0817  0.2572
   83BOLB   C1A 1973  21.389   7.329  22.604  0.5180  0.0666  0.1845
   83BOLB   C2A 1974  21.616   7.222  22.149  0.1711  0.2267 -0.2966
   83BOLB   C3A 1975  21.650   6.857  22.055  0.0069 -0.2418 -0.3917
   83BOLB   C4A 1976  21.599   6.579  21.735  0.1052 -0.0844  0.2023
   83BOLB   C1B 1977  21.103   6.885  22.820  0.2273 -0.0454 -0.1062
   83BOLB   C2B 1978  21.362   6.791  22.443 -0.2433 -0.1363  0.3016
   83BOLB   C3B 1979  21.526   6.417  22.293  0.1558 -0.2292 -0.0206
   83BOLB   C4B 1980  21.884   6.204  21.943 -0.1036 -0.0162 -0.1479
   83BOLB   NC2 1981  22.128   4.542  20.515  0.0130  0.1556 -0.2087
   83BOLB   PO2 1982  22.518   4.574  20.716  0.0230 -0.1552 -0.1075
   83BOLB   GL3 1983  22.256   4.713  21.075  0.0833  0.1787  0.0662
   83BOLB   GL4 1984  21.931   4.528  21.116  0.1350  0.1745 -0.2478
   83BOLB   C1C 1985  21.897   5.022  20.949 -0.3503 -0.1633  0.1926
   83BOLB   C2C 1986  21.691   5.343  21.065 -0.0427  0.0830  0.2616
   83BOLB   C3C 1987  21.599   5.753  21.366 -0.4389 -0.1287  0.0927
   83BOLB   C4C 1988  21.636   6.116  21.541 -0.0361 -0.4700 -0.0108
   83BOLB   C1D 1989  21.457   4.858  21.143  0.2933  0.0712 -0.1812
   83BOLB   C2D 1990  21.210   5.046  21.423  0.0364 -0.5211 -0.0911
   83BOLB   C3D 1991  20.952   5.335  21.788  0.0419 -0.0485  0.1483
   83BOLB   C4D 1992  20.819   5.314  22.239  0.0070 -0.0989 -0.0546
   84BOLB   NC1 1993  12.933   2.070  23.409  0.1587  0.1524  0.1622
   84BOLB   PO1 1994  12.906   2.255  22.955  0.0254 -0.1299  0.0349
   84BOLB   GL1 1995  13.217   2.455  23.305  0.0267  0.1622  0.2385
   84BOLB   GL2 1996  13.418   2.201  23.200 -0.0433  0.1641 -0.0417
   84BOLB   C1A 1997  13.488   2.668  23.610 -0.1709 -0.1244  0.1103
   84BOLB   C2A 1998  13.335   3.025  23.813  0.1441  0.0917  0.0223
   84BOLB   C3A 1999  13.117   3.270  23.737 -0.0433  0.1092 -0.0147
   84BOLB   C4A 2000  12.900   3.576  24.041 -0.0187  0.1703  0.2631
   84BOLB   C1B 2001  13.583   2.625  22.995  0.2605  0.0105 -0.0155
   84BOLB   C2B 2002  13.757   2.997  22.620 -0.2495 -0.2092  0.3170
   84BOLB   C3B 2003  13.736   3.402  22.877  0.0801 -0.6001  0.1965
   84BOLB   C4B 2004  13.694   3.627  23.279  0.0935  0.1543  0.0342
   84BOLB   NC2 2005  11.854   1.461  24.916 -0.1387  0.2640 -0.1374
   84BOLB   PO2 2006  11.909   1.788  24.513  0.0337  0.0130 -0.2366
   84BOLB   GL3 2007  12.128   2.317  24.730  0.1647  0.4136  0.0746
   84BOLB   GL4 2008  12.471   2.436  24.662  0.0067 -0.0194 -0.0980
   84BOLB   C1C 2009  12.089   2.722  24.756 -0.0668 -0.1148 -0.3357
   84BOLB   C2C 2010  12.120   3.160  24.691 -0.1849 -0.0653  0.0679
   84BOLB   C3C 2011  12.259   3.595  24.600  0.2332  0.3038 -0.0570
   84BOLB   C4C 2012  12.609   3.798  24.338  0.0552  0.2690 -0.0264
   84BOLB   C1D 2013  12.666   2.492  25.050 -0.6734  0.0045  0.1292
   84BOLB   C2D 2014  12.848   2.829  25.260  0.1303 -0.3090 -0.1416
   84BOLB   C3D 2015  13.269   2.909  25.344  0.0388 -0.0552  0.0550
   84BOLB   C4D 2016  13.647   2.895  25.586 -0.1640  0.0969  0.0208
   85BOLB   NC1 2017  22.314   7.774  30.124 -0.0212 -0.1358  0.0705
   85BOLB   PO1 2018  22.553   7.521  30.186  0.0185 -0.3120  0.1256
   85BOLB   GL1 2019  22.897   7.376  30.106  0.1414  0.0022 -0.1166
   85BOLB   GL2 2020  23.142   7.557  29.878 -0.3822  0.0201 -0.1806
   85BOLB   C1A 2021  23.287   7.081  30.042  0.0886 -0.2781  0.0850
   85BOLB   C2A 2022  23.783   6.964  29.843  0.1301 -0.0910 -0.0447
   85BOLB   C3A 2023  24.090   6.830  30.138  0.0573  0.1977  0.1784
   85BOLB   C4A 2024  24.556   6.786  30.098 -0.0530 -0.1876 -0.2451
   85BOLB   C1B 2025  23.511   7.376  29.684 -0.1771 -0.0160  0.3955
   85BOLB   C2B 2026  23.884   7.293  29.504 -0.0689 -0.2717 -0.0263
   85BOLB   C3B 2027  24.202   7.236  29.354 -0.1811 -0.1938  0.1570
   85BOLB   C4B 2028  24.405   6.843  29.105 -0.0991 -0.0098 -0.2952
   85BOLB   NC2 2029   0.105   6.532  29.416  0.2330 -0.2215 -0.0189
   85BOLB   PO2 2030  26.790   6.595  29.603  0.1209  0.0367 -0.2188
   85BOLB   GL3 2031  26.465   6.849  29.913  0.0790  0.0687 -0.0590
   85BOLB   GL4 2032  26.432   7.188  29.896 -0.0700  0.1365  0.0706
   85BOLB   C1C 2033  26.053   6.734  30.117 -0.3200  0.2957 -0.1463
   85BOLB   C2C 2034  25.669   6.633  29.945 -0.0757  0.1004  0.0243
   85BOLB   C3C 2035  25.284   6.580  30.075  0.1489  0.2706  0.3924
   85BOLB   C4C 2036  24.950   6.713  29.980  0.2561  0.0233  0.2351
   85BOLB   C1D 2037  26.102   7.488  29.786  0.1874  0.1524  0.0014
   85BOLB   C2D 2038  25.700   7.497  29.622  0.1478 -0.2484 -0.4331
   85BOLB   C3D 2039  25.375   7.913  29.753  0.3380 -0.0620  0.1309
   85BOLB   C4D 2040  25.171   7.965  30.088 -0.1214  0.3930 -0.2563
   86BOLB   NC1 2041  18.088  19.304  33.352 -0.1404  0.0095  0.2535
   86BOLB   PO1 2042  18.126  19.418  33.785 -0.3790  0.0136  0.1669
   86BOLB   GL1 2043  18.414  19.797  33.842  0.2856 -0.3105  0.4165
   86BOLB   GL2 2044  18.569  19.854  34.123 -0.3917  0.3141  0.2266
   86BOLB   C1A 2045  18.729  20.216  33.775 -0.0212 -0.2428 -0.0357
   86BOLB   C2A 2046  19.168  20.332  33.981  0.1895 -0.2312 -0.1636
   86BOLB   C3A 2047  19.511  20.602  34.023  0.2700 -0.0688  0.1136
   86BOLB   C4A 2048  19.680  21.080  33.808 -0.1662 -0.0393 -0.1590
   86BOLB   C1B 2049  18.438  20.336  34.176  0.0607 -0.1673  0.0071
   86BOLB   C2B 2050  18.742  20.695  33.995  0.1467 -0.2140  0.0503
   86BOLB   C3B 2051  19.110  20.844  34.088 -0.0354 -0.2159  0.0186
   86BOLB   C4B 2052  19.373  21.076  34.407  0.2998 -0.1749  0.1150
   86BOLB   NC2 2053  20.531  23.648  33.977  0.0741 -0.1841  0.3302
   86BOLB   PO2 2054  20.521  23.216  33.891  0.1598  0.2080 -0.1287
   86BOLB   GL3 2055  20.430  22.729  33.856 -0.0084 -0.2461  0.1738
   86BOLB   GL4 2056  20.209  22.620  33.598  0.0208 -0.1144 -0.1783
   86BOLB   C1C 2057  20.507  22.231  33.724  0.3558  0.0203  0.0698
   86BOLB   C2C 2058  20.235  22.027  33.412  0.3762  0.0455 -0.2763
   86BOLB   C3C 2059  19.846  21.700  33.361 -0.2097 -0.0135  0.3085
   86BOLB   C4C 2060  19.604  21.396  33.492  0.1428 -0.1861  0.0920
   86BOLB   C1D 2061  20.038  22.326  33.847  0.1344 -0.1445 -0.3029
   86BOLB   C2D 2062  19.924  21.923  33.927  0.1277 -0.3206  0.1457
   86BOLB   C3D 2063  19.646  21.551  34.000  0.2028  0.0155 -0.1714
   86BOLB   C4D 2064  19.195  21.434  34.010 -0.2863 -0.1847  0.2846
   87BOLB   NC1 2065  16.501   5.028  25.113 -0.0307 -0.1983 -0.0055
   87BOLB   PO1 2066  16.570   4.856  25.528 -0.0067 -0.3529  0.1862
   87BOLB   GL1 2067  16.817   4.493  25.467 -0.1920 -0.2777 -0.0013
   87BOLB   GL2 2068  17.039   4.361  25.816 -0.0600  0.0290  0.1151
   87BOLB   C1A 2069  16.763   3.991  25.441 -0.0027 -0.2891 -0.2679
   87BOLB   C2A 2070  16.740   3.665  25.227  0.2143  0.1063 -0.1280
   87BOLB   C3A 2071  16.683   3.269  25.108 -0.1375 -0.2686  0.1460
   87BOLB   C4A 2072  16.821   2.963  25.126 -0.1854 -0.2738  0.3617
   87BOLB   C1B 2073  16.983   4.032  25.916  0.0087  0.0126  0.0243
   87BOLB   C2B 2074  17.201   3.618  25.916 -0.4196  0.0973 -0.1865
   87BOLB   C3B 2075  17.387   3.321  25.951  0.1313 -0.2363  0.0943
   87BOLB   C4B 2076  17.445   2.896  25.884 -0.0018 -0.0563 -0.0807
   87BOLB   NC2 2077  17.027   0.362  25.977  0.2025  0.0744  0.3075
   87BOLB   PO2 2078  17.255   0.499  25.593  0.2924 -0.4791 -0.1914
   87BOLB   GL3 2079  17.086   0.819  25.332  0.0863  0.0748  0.0530
   87BOLB   GL4 2080  16.757   0.847  25.213  0.0314 -0.1597  0.3255
   87BOLB   C1C 2081  17.117   1.374  25.181  0.0790  0.2432 -0.1223
   87BOLB   C2C 2082  17.158   1.806  25.097  0.0493 -0.1298 -0.0004
   87BOLB   C3C 2083  17.035   2.274  25.149  0.1673 -0.1384  0.4099
   87BOLB   C4C 2084  16.935   2.635  25.391 -0.3140 -0.1395  0.0361
   87BOLB   C1D 2085  16.778   1.200  25.504  0.2383 -0.1869 -0.1032
   87BOLB   C2D 2086  16.788   1.563  25.580 -0.1706 -0.3000 -0.4583
   87BOLB   C3D 2087  16.752   1.948  25.507 -0.0904 -0.0669 -0.4384
   87BOLB   C4D 2088  16.576   2.378  25.243  0.2102 -0.0683  0.0590
   88BOLB   NC1 2089  10.853  13.020  38.492  0.1216  0.0533  0.1383
   88BOLB   PO1 2090  11.186  13.283  38.671  0.2020 -0.2010  0.1191
   88BOLB   GL1 2091  10.946  13.464  38.901 -0.2548  0.0202  0.1387
   88BOLB   GL2 2092  10.748  13.144  39.001 -0.0687  0.0743  0.1043
   88BOLB   C1A 2093  10.569  13.773  39.003 -0.2015 -0.2115 -0.2443
   88BOLB   C2A 2094  10.243  13.843  39.197  0.2466  0.1490  0.0118
   88BOLB   C3A 2095   9.914  13.792  39.391  0.2216  0.1172  0.2649
   88BOLB   C4A 2096   9.581  13.703  39.784 -0.3775  0.1195 -0.0447
   88BOLB   C1B 2097  10.697  13.401  39.331  0.0061  0.1378 -0.2882
   88BOLB   C2B 2098  10.500  13.660  39.606 -0.2663 -0.1573 -0.2801
   88BOLB   C3B 2099  10.184  13.947  39.703  0.4078 -0.1310 -0.0262
   88BOLB   C4B 2100  10.066  14.258  39.426 -0.1257 -0.3049 -0.2083
   88BOLB   NC2 2101   9.449  14.111  42.019 -0.3678  0.0542 -0.0864
   88BOLB   PO2 2102   9.465  13.671  42.194 -0.1195 -0.0293 -0.2673
   88BOLB   GL3 2103   9.489  13.645  41.687 -0.0075 -0.5279  0.1364
   88BOLB   GL4 2104   9.586  13.992  41.517 -0.1073 -0.0129 -0.0353
   88BOLB   C1C 2105   9.573  13.468  41.357 -0.3131  0.0007 -0.2812
   88BOLB   C2C 2106   9.595  13.645  40.981  0.1044  0.2128 -0.1023
   88BOLB   C3C 2107   9.479  13.673  40.638  0.0528 -0.1783 -0.1850
   88BOLB   C4C 2108   9.408  13.751  40.149  0.4342  0.0848  0.1140
   88BOLB   C1D 2109   9.960  13.902  41.127 -0.3489 -0.0358 -0.0147
   88BOLB   C2D 2110  10.257  13.847  40.911  0.3541 -0.0655  0.2813
   88BOLB   C3D 2111  10.480  13.912  40.603  0.1316  0.1727 -0.1206
   88BOLB   C4D 2112  10.768  14.267  40.495  0.4024 -0.0015  0.0483
   89BOLB   NC1 2113   3.716  16.219  29.625  0.1808 -0.1121 -0.0113
   89BOLB   PO1 2114   3.813  16.346  29.226  0.0150 -0.2231 -0.5801
   89BOLB   GL1 2115   4.291  16.082  29.209  0.1395  0.1546  0.4029
   89BOLB   GL2 2116   4.368  15.705  29.200  0.3113  0.0113 -0.0043
   89BOLB   C1A 2117   4.717  16.192  29.326 -0.0247 -0.1696  0.1029
   89BOLB   C2A 2118   5.129  16.231  29.188  0.0451  0.3576  0.0881
   89BOLB   C3A 2119   5.570  16.429  29.108 -0.1574  0.2135  0.1359
   89BOLB   C4A 2120   5.887  16.697  28.883 -0.0661  0.0316 -0.0563
   89BOLB   C1B 2121   4.641  15.427  28.981 -0.1490  0.2056  0.0401
   89BOLB   C2B 2122   5.023  15.235  29.024 -0.1398  0.1828 -0.1246
   89BOLB   C3B 2123   5.455  15.110  29.171  0.0976 -0.0423 -0.0714
   89BOLB   C4B 2124   5.920  15.341  29.088  0.0977 -0.1940 -0.1901
   89BOLB   NC2 2125   4.037  18.598  29.902 -0.0630 -0.1094 -0.3147
   89BOLB   PO2 2126   4.210  18.681  29.467  0.0557 -0.1238 -0.3528
   89BOLB   GL3 2127   4.745  18.585  29.325 -0.0820  0.3385 -0.0519
   89BOLB   GL4 2128   5.020  18.694  29.105  0.2264  0.1550 -0.1135
   89BOLB   C1C 2129   5.113  18.313  29.442 -0.4539  0.0820  0.1164
   89BOLB   C2C 2130   5.605  18.011  29.400  0.3350 -0.2969 -0.1381
   89BOLB   C3C 2131   5.755  17.536  29.070 -0.0587 -0.0853 -0.0583
   89BOLB   C4C 2132   5.826  17.119  28.920 -0.2509 -0.0963 -0.1411
   89BOLB   C1D 2133   5.405  18.435  29.027 -0.3123  0.0028 -0.1871
   89BOLB   C2D 2134   5.726  18.157  28.868  0.1761  0.0852 -0.0563
   89BOLB   C3D 2135   5.998  17.876  28.702  0.0734 -0.1537 -0.0431
   89BOLB   C4D 2136   6.199  17.460  28.794 -0.1063 -0.1596 -0.2058
   90BOLB   NC1 2137  21.040  16.102  29.447  0.0036  0.0801  0.3142
   90BOLB   PO1 2138  21.156  16.184  29.065 -0.3859  0.2207 -0.1208
   90BOLB   GL1 2139  21.503  16.543  28.976  0.0686 -0.2534  0.0001
   90BOLB   GL2 2140  21.833  16.600  29.058 -0.5894 -0.0682  0.1055
   90BOLB   C1A 2141  21.684  16.894  28.530 -0.1779 -0.1139 -0.1376
   90BOLB   C2A 2142  21.964  17.062  28.240 -0.0014  0.0586  0.3169
   90BOLB   C3A 2143  22.428  17.150  28.212 -0.0550 -0.2330  0.2763
   90BOLB   C4A 2144  22.849  17.162  28.381 -0.0521 -0.0469  0.3198
   90BOLB   C1B 2145  22.009  17.017  28.960 -0.0104  0.1187  0.1915
   90BOLB   C2B 2146  22.150  17.247  28.646  0.3153 -0.0187  0.0107
   90BOLB   C3B 2147  22.504  17.507  28.577  0.2845 -0.0523 -0.0701
   90BOLB   C4B 2148  22.644  17.781  28.854  0.0076 -0.0571 -0.0598
   90BOLB   NC2 2149  24.966  18.783  27.459  0.1358  0.1364 -0.1052
   90BOLB   PO2 2150  24.585  18.681  27.694  0.2673 -0.1257  0.0963
   90BOLB   GL3 2151  24.265  18.636  27.986  0.2388 -0.2523 -0.1994
   90BOLB   GL4 2152  24.314  18.248  27.901  0.2186 -0.0120  0.2505
   90BOLB   C1C 2153  23.937  18.450  28.203  0.4050 -0.1554  0.1929
   90BOLB   C2C 2154  23.665  18.156  28.508 -0.0557 -0.0635 -0.1026
   90BOLB   C3C 2155  23.526  17.749  28.599 -0.2524  0.1092  0.1331
   90BOLB   C4C 2156  23.079  17.548  28.583  0.0017 -0.1736 -0.1584
   90BOLB   C1D 2157  23.970  18.083  27.917  0.0327 -0.0175  0.0674
   90BOLB   C2D 2158  23.661  17.804  28.124 -0.0261  0.1466  0.0084
   90BOLB   C3D 2159  23.276  17.376  28.128 -0.1128  0.1244  0.0590
   90BOLB   C4D 2160  22.927  17.340  27.924 -0.1261 -0.1950 -0.1166
   91BOLB   NC1 2161   8.915  19.309  30.630  0.0175  0.2283 -0.0417
   91BOLB   PO1 2162   8.909  19.109  30.259  0.1267 -0.0430  0.0261
   91BOLB   GL1 2163   8.788  19.362  30.022  0.3276 -0.0371  0.0092
   91BOLB   GL2 2164   8.627  19.374  29.870  0.0599 -0.1440 -0.1689
   91BOLB   C1A 2165   8.807  19.841  29.798 -0.1008  0.0200 -0.2878
   91BOLB   C2A 2166   9.018  20.232  29.659 -0.1164 -0.0826  0.0639
   91BOLB   C3A 2167   8.922  20.728  29.585 -0.2301  0.0340 -0.2169
   91BOLB   C4A 2168   8.787  21.044  29.295  0.0461  0.0075  0.0471
   91BOLB   C1B 2169   8.399  19.654  29.620 -0.1068 -0.2091  0.1778
   91BOLB   C2B 2170   8.105  19.891  29.549  0.0933  0.0140 -0.0748
   91BOLB   C3B 2171   8.014  20.301  29.519  0.1030  0.2153 -0.1220
   91BOLB   C4B 2172   7.785  20.739  29.298 -0.0945  0.0239  0.1770
   91BOLB   NC2 2173   6.604  22.318  29.642  0.2029  0.1678 -0.0676
   91BOLB   PO2 2174   6.874  22.383  29.188  0.1805 -0.1351 -0.2205
   91BOLB   GL3 2175   7.129  22.107  29.022 -0.0900 -0.1722  0.1734
   91BOLB   GL4 2176   6.976  21.987  28.776 -0.2039 -0.1301  0.1697
   91BOLB   C1C 2177   7.475  21.905  29.127 -0.1491  0.0263  0.2050
   91BOLB   C2C 2178   7.926  21.876  29.084  0.1153 -0.0198  0.0774
   91BOLB   C3C 2179   8.415  21.598  29.013  0.2972 -0.3555  0.2190
   91BOLB   C4C 2180   8.670  21.325  29.114 -0.2286  0.5126  0.1033
   91BOLB   C1D 2181   7.207  21.609  28.753  0.0634  0.0781  0.0799
   91BOLB   C2D 2182   7.597  21.336  28.867 -0.0447 -0.0099 -0.1414
   91BOLB   C3D 2183   7.846  21.298  29.189 -0.1982 -0.1977 -0.2333
   91BOLB   C4D 2184   8.249  21.130  29.416 -0.0315 -0.0693  0.1839
   92BOLB   NC1 2185  12.387  10.324  16.706 -0.0213 -0.0649  0.1411
   92BOLB   PO1 2186  12.135  10.692  16.702  0.0347 -0.2320  0.5050
   92BOLB   GL1 2187  12.440  10.612  17.115  0.1259  0.0918  0.0591
   92BOLB   GL2 2188  12.772  10.523  17.052 -0.1094  0.0046  0.0513
   92BOLB   C1A 2189  12.468  10.553  17.539 -0.1453 -0.0458  0.2781
   92BOLB   C2A 2190  12.584  10.899  17.790 -0.4266 -0.1583 -0.0958
   92BOLB   C3A 2191  12.607  11.182  18.102 -0.0641  0.1355 -0.1126
   92BOLB   C4A 2192  12.915  11.263  18.272  0.2326 -0.1030  0.3303
   92BOLB   C1B 2193  13.208  10.469  17.023 -0.1488 -0.1120  0.1163
   92BOLB   C2B 2194  13.427  10.679  17.216 -0.3204  0.1024  0.0581
   92BOLB   C3B 2195  13.721  10.521  17.444  0.1168 -0.0240 -0.0436
   92BOLB   C4B 2196  14.094  10.630  17.553 -0.0771  0.0198  0.0424
   92BOLB   NC2 2197  13.535  11.272  15.580 -0.0831  0.3453  0.1207
   92BOLB   PO2 2198  13.528  11.540  15.992  0.0030  0.1852 -0.1110
   92BOLB   GL3 2199  13.336  11.636  16.389 -0.0349 -0.2502 -0.0467
   92BOLB   GL4 2200  13.602  11.817  16.508  0.0996  0.2971  0.0850
   92BOLB   C1C 2201  13.469  11.539  16.885  0.0607 -0.1430  0.1598
   92BOLB   C2C 2202  13.484  11.569  17.311 -0.0829 -0.2050 -0.3552
   92BOLB   C3C 2203  13.466  11.515  17.763 -0.0839 -0.2317 -0.1809
   92BOLB   C4C 2204  13.349  11.297  18.191 -0.0683 -0.1406  0.0940
   92BOLB   C1D 2205  13.948  11.566  16.719  0.1973  0.4367 -0.1921
   92BOLB   C2D 2206  14.162  11.449  16.981 -0.2775  0.0605  0.1117
   92BOLB   C3D 2207  14.542  11.540  17.184  0.2422  0.0070 -0.0500
   92BOLB   C4D 2208  14.383  11.619  17.588 -0.1226  0.0856 -0.1343
   93BOLB   NC1 2209  19.265  15.594  15.642 -0.1164 -0.1124 -0.1879
   93BOLB   PO1 2210  19.074  16.060  15.500 -0.0630  0.2570  0.3751
   93BOLB   GL1 2211  18.830  15.766  15.846  0.1767 -0.0693  0.1849
   93BOLB   GL2 2212  18.448  15.829  15.857  0.4045 -0.3432  0.1374
   93BOLB   C1A 2213  18.791  15.404  16.013  0.1413  0.0088 -0.0973
   93BOLB   C2A 2214  18.770  15.015  16.240  0.1429  0.5812 -0.1942
   93BOLB   C3A 2215  18.707  14.715  16.494  0.1532  0.1907 -0.3290
   93BOLB   C4A 2216  18.980  14.601  16.771  0.0162 -0.0000  0.2621
   93BOLB   C1B 2217  18.247  15.590  16.070 -0.0993  0.2867 -0.5080
   93BOLB   C2B 2218  18.251  15.248  16.366  0.0413 -0.0929  0.3390
   93BOLB   C3B 2219  18.317  14.869  16.802 -0.0855 -0.3234  0.0680
   93BOLB   C4B 2220  18.508  14.641  17.054 -0.0377  0.2024  0.1096
   93BOLB   NC2 2221  20.908  14.200  15.358 -0.1043 -0.2349  0.2455
   93BOLB   PO2 2222  20.716  13.842  15.280 -0.0839  0.2534  0.0402
   93BOLB   GL3 2223  20.451  13.739  15.506  0.1452 -0.1005  0.0157
   93BOLB   GL4 2224  20.335  13.495  15.481  0.0893 -0.3076 -0.3320
   93BOLB   C1C 2225  20.319  13.880  15.932 -0.0010 -0.3131  0.3560
   93BOLB   C2C 2226  20.004  13.905  16.307 -0.2420 -0.0262  0.0341
   93BOLB   C3C 2227  19.688  14.092  16.526  0.0729 -0.0230  0.2864
   93BOLB   C4C 2228  19.429  14.483  16.669 -0.0731 -0.2521  0.0914
   93BOLB   C1D 2229  20.189  13.050  15.730 -0.2971 -0.0977  0.0290
   93BOLB   C2D 2230  20.235  12.682  16.003 -0.2565 -0.1652  0.1522
   93BOLB   C3D 2231  20.051  12.301  16.278 -0.2954 -0.0874 -0.0926
   93BOLB   C4D 2232  19.977  12.407  16.682 -0.0883  0.0733  0.0123
   94BOLB   NC1 2233   9.859   7.748  27.179 -0.0405  0.2352 -0.0540
   94BOLB   PO1 2234   9.868   7.375  26.927 -0.0061  0.1978 -0.0291
   94BOLB   GL1 2235   9.653   6.979  26.858 -0.1510  0.2429 -0.0590
   94BOLB   GL2 2236   9.644   6.944  26.562  0.0557  0.2504  0.3390
   94BOLB   C1A 2237   9.200   6.803  26.757  0.1202 -0.2754  0.0060
   94BOLB   C2A 2238   8.994   6.442  26.664  0.3872 -0.0055 -0.0018
   94BOLB   C3A 2239   8.747   6.085  26.872 -0.1707 -0.0388  0.2056
   94BOLB   C4A 2240   8.365   5.992  26.907  0.2086  0.2514  0.0868
   94BOLB   C1B 2241   9.370   6.600  26.360 -0.2131 -0.1287 -0.2864
   94BOLB   C2B 2242   9.091   6.359  26.155  0.1273  0.0364  0.1604
   94BOLB   C3B 2243   8.643   6.227  26.225 -0.1280 -0.1927  0.0829
   94BOLB   C4B 2244   8.267   6.069  26.212  0.1136  0.3165  0.0487
   94BOLB   NC2 2245   6.156   4.629  28.033  0.2260 -0.1685  0.2988
   94BOLB   PO2 2246   6.497   4.639  27.688 -0.2419  0.4288  0.2879
   94BOLB   GL3 2247   6.840   4.983  27.697  0.0638  0.2595 -0.1020
   94BOLB   GL4 2248   6.773   5.305  27.819  0.0806 -0.0131 -0.0127
   94BOLB   C1C 2249   7.065   5.270  27.445 -0.2626 -0.3249  0.1028
   94BOLB   C2C 2250   7.359   5.532  27.445 -0.1428 -0.1293 -0.0430
   94BOLB   C3C 2251   7.674   5.721  27.502  0.4545  0.0581 -0.3371
   94BOLB   C4C 2252   8.042   5.751  27.167  0.0123  0.1412  0.3565
   94BOLB   C1D 2253   7.298   5.248  27.871  0.0969 -0.0076  0.1043
   94BOLB   C2D 2254   7.700   5.228  27.721  0.2257 -0.2649 -0.1104
   94BOLB   C3D 2255   8.093   5.416  27.653 -0.0107  0.1739 -0.0729
   94BOLB   C4D 2256   8.181   5.262  27.234  0.1357  0.2389 -0.2232
   95BOLB   NC1 2257  20.870  13.093  25.423  0.0219 -0.0595 -0.1928
   95BOLB   PO1 2258  20.907  13.226  24.946 -0.1647 -0.0282 -0.0454
   95BOLB   GL1 2259  20.439  13.378  25.049  0.1632  0.1324 -0.1423
   95BOLB   GL2 2260  20.176  13.432  24.796  0.1874  0.0722  0.2909
   95BOLB   C1A 2261  19.946  13.488  25.207 -0.1790 -0.0562  0.2496
   95BOLB   C2A 2262  19.572  13.733  25.208  0.1923  0.0692 -0.1831
   95BOLB   C3A 2263  19.142  13.709  25.424  0.0616  0.2405 -0.3342
   95BOLB   C4A 2264  18.689  13.649  25.492 -0.2860  0.0325  0.0392
   95BOLB   C1B 2265  19.961  13.913  24.928  0.0134  0.4990  0.1219
   95BOLB   C2B 2266  19.665  14.208  25.045 -0.0456 -0.0288 -0.1651
   95BOLB   C3B 2267  19.804  14.564  24.930  0.1178  0.3399  0.0381
   95BOLB   C4B 2268  19.679  15.009  24.931 -0.3786  0.0201 -0.2776
   95BOLB   NC2 2269  18.905  12.244  23.324 -0.5163 -0.2766  0.0862
   95BOLB   PO2 2270  18.558  12.375  23.590  0.0227  0.1632 -0.1827
   95BOLB   GL3 2271  18.293  12.538  23.984 -0.1934 -0.2499 -0.0033
   95BOLB   GL4 2272  18.001  12.378  23.887  0.0892 -0.3455  0.1688
   95BOLB   C1C 2273  18.326  12.699  24.424 -0.0099  0.1617 -0.0176
   95BOLB   C2C 2274  18.360  12.719  24.779 -0.0551  0.0253 -0.0262
   95BOLB   C3C 2275  18.269  12.987  25.102  0.0534  0.2032  0.0962
   95BOLB   C4C 2276  18.270  13.413  25.345  0.2587  0.3631  0.1235
   95BOLB   C1D 2277  17.818  12.638  24.241 -0.1875  0.1552 -0.1054
   95BOLB   C2D 2278  17.822  12.765  24.711 -0.0089 -0.0133  0.0374
   95BOLB   C3D 2279  17.697  12.902  25.162  0.3151 -0.1554  0.1403
   95BOLB   C4D 2280  17.286  13.100  25.507  0.0185 -0.3747 -0.1914
   96BOLB   NC1 2281  22.975  14.002  28.726 -0.1742  0.2454  0.0772
   96BOLB   PO1 2282  23.113  13.573  28.549  0.0206  0.2180 -0.0612
   96BOLB   GL1 2283  23.565  13.675  28.411 -0.2044 -0.1241 -0.1582
   96BOLB   GL2 2284  23.729  13.826  28.104  0.0343 -0.1632  0.0765
   96BOLB   C1A 2285  23.982  13.530  28.351 -0.3865 -0.1284 -0.0510
   96BOLB   C2A 2286  24.391  13.625  28.283  0.0232 -0.0307  0.0600
   96BOLB   C3A 2287  24.780  13.535  28.015 -0.0939 -0.0729  0.4420
   96BOLB   C4A 2288  25.041  13.431  27.636  0.1128  0.3124 -0.2317
   96BOLB   C1B 2289  24.013  14.061  27.999  0.0148 -0.0598 -0.1912
   96BOLB   C2B 2290  24.393  14.416  28.085 -0.0421 -0.0528  0.1884
   96BOLB   C3B 2291  24.654  14.801  28.076 -0.1161  0.1039 -0.1327
   96BOLB   C4B 2292  24.895  14.976  28.364  0.1942  0.2965  0.2558
   96BOLB   NC2 2293   0.257  14.264  26.505 -0.0710  0.0316 -0.0594
   96BOLB   PO2 2294  26.807  14.280  26.468 -0.1321 -0.3033  0.0210
   96BOLB   GL3 2295  26.337  14.319  26.641 -0.2088  0.1239 -0.0138
   96BOLB   GL4 2296  26.213  14.501  26.391  0.0919 -0.5082 -0.0578
   96BOLB   C1C 2297  26.009  14.176  26.797 -0.2522 -0.0146  0.2413
   96BOLB   C2C 2298  25.601  14.094  26.733  0.2352  0.0590 -0.0345
   96BOLB   C3C 2299  25.391  13.865  27.035  0.1769  0.2083  0.0543
   96BOLB   C4C 2300  25.357  13.620  27.326 -0.0124 -0.1355  0.2057
   96BOLB   C1D 2301  25.865  14.211  26.285  0.0714 -0.1909  0.0006
   96BOLB   C2D 2302  25.487  13.932  26.293 -0.3158 -0.0541 -0.1789
   96BOLB   C3D 2303  25.113  13.836  26.577 -0.2013  0.0710 -0.1072
   96BOLB   C4D 2304  24.895  13.749  26.962 -0.2482  0.1975 -0.2186
   97BOLB   NC1 2305  12.127   3.715  38.910  0.5266  0.0575  0.0603
   97BOLB   PO1 2306  11.759   3.492  38.871 -0.2153  0.0797 -0.0816
   97BOLB   GL1 2307  11.741   3.846  38.620 -0.2145 -0.0791 -0.1378
   97BOLB   GL2 2308  12.012   4.076  38.607 -0.1830 -0.1486  0.0430
   97BOLB   C1A 2309  11.860   3.913  38.215 -0.0189  0.0644  0.1677
   97BOLB   C2A 2310  12.099   4.076  37.960  0.1230 -0.0047 -0.0608
   97BOLB   C3A 2311  12.151   4.432  37.763  0.0038 -0.0519  0.0025
   97BOLB   C4A 2312  12.305   4.884  37.680 -0.0055  0.1938  0.0053
   97BOLB   C1B 2313  12.240   4.363  38.350 -0.4197  0.1157 -0.1071
   97BOLB   C2B 2314  12.396   4.706  38.143  0.1142  0.0836 -0.0006
   97BOLB   C3B 2315  12.486   5.118  38.194 -0.1388  0.3170  0.2573
   97BOLB   C4B 2316  12.174   5.487  38.391 -0.3804 -0.1239 -0.1226
   97BOLB   NC2 2317  12.425   6.680  36.367 -0.1933 -0.0141 -0.2752
   97BOLB   PO2 2318  12.657   6.826  36.827 -0.4295  0.0588 -0.1726
   97BOLB   GL3 2319  12.561   6.830  37.214  0.0915  0.0708 -0.1162
   97BOLB   GL4 2320  12.408   6.998  37.426 -0.2082 -0.0442 -0.2447
   97BOLB   C1C 2321  12.617   6.411  37.434  0.1216 -0.0785 -0.3832
   97BOLB   C2C 2322  12.611   5.980  37.493  0.2253 -0.1541 -0.0594
   97BOLB   C3C 2323  12.449   5.639  37.741  0.1582  0.0417 -0.0984
   97BOLB   C4C 2324  12.221   5.246  37.778  0.5162 -0.0256  0.0751
   97BOLB   C1D 2325  12.255   6.981  37.796  0.2238  0.0059 -0.1744
   97BOLB   C2D 2326  12.125   6.627  38.056 -0.0782 -0.2843  0.2093
   97BOLB   C3D 2327  11.796   6.369  38.262  0.0584  0.2669 -0.0093
   97BOLB   C4D 2328  11.340   6.443  38.292  0.1757  0.1522  0.4588
   98BOLB   NC1 2329  21.492   6.164  31.454  0.0810 -0.0358 -0.0887
   98BOLB   PO1 2330  21.565   5.861  31.123  0.1081 -0.2837  0.1263
   98BOLB   GL1 2331  21.750   5.464  31.144 -0.1810  0.1174 -0.0712
   98BOLB   GL2 2332  21.820   5.399  30.810 -0.3432 -0.1877  0.0162
   98BOLB   C1A 2333  21.870   5.096  31.422  0.0683  0.2938 -0.2821
   98BOLB   C2A 2334  21.911   4.793  31.799 -0.0556  0.2565  0.0734
   98BOLB   C3A 2335  21.828   4.441  32.045 -0.0081 -0.2368  0.1127
   98BOLB   C4A 2336  22.102   4.216  32.262 -0.1598 -0.2166  0.0291
   98BOLB   C1B 2337  21.991   5.030  30.888 -0.0020 -0.1296 -0.1488
   98BOLB   C2B 2338  22.082   4.644  30.861 -0.2172  0.1206 -0.2022
   98BOLB   C3B 2339  22.365   4.370  30.947  0.2235  0.0239  0.0109
   98BOLB   C4B 2340  22.705   4.067  30.592 -0.3763  0.1492 -0.3677
   98BOLB   NC2 2341  23.359   1.955  33.378 -0.0377  0.3891  0.0786
   98BOLB   PO2 2342  23.056   2.305  33.384 -0.2570 -0.3574 -0.2772
   98BOLB   GL3 2343  22.953   2.680  33.404 -0.1673  0.3334  0.1472
   98BOLB   GL4 2344  22.810   2.776  33.587  0.0355  0.0367  0.0547
   98BOLB   C1C 2345  22.744   2.923  33.010 -0.3130 -0.1559  0.0919
   98BOLB   C2C 2346  22.665   3.307  32.843  0.2294  0.3779 -0.1231
   98BOLB   C3C 2347  22.556   3.736  32.727 -0.3722  0.1160  0.6420
   98BOLB   C4C 2348  22.302   3.932  32.356  0.2040  0.2253  0.1497
   98BOLB   C1D 2349  22.549   3.131  33.457  0.0725  0.1820  0.1621
   98BOLB   C2D 2350  22.465   3.609  33.339 -0.0839 -0.2839 -0.2811
   98BOLB   C3D 2351  22.304   4.076  33.147 -0.0499  0.0467  0.1066
   98BOLB   C4D 2352  22.099   4.098  32.811 -0.2385 -0.1820 -0.2255
   99BOLB   NC1 2353  25.951   5.282  25.115  0.1224  0.0726 -0.0292
   99BOLB   PO1 2354  25.558   5.207  25.297  0.0535 -0.0535 -0.0206
   99BOLB   GL1 2355  25.145   5.320  25.254 -0.2044  0.0271 -0.2970
   99BOLB   GL2 2356  25.240   5.721  25.367 -0.0125  0.0923 -0.0705
   99BOLB   C1A 2357  24.966   5.367  25.675 -0.0248 -0.4254  0.0649
   99BOLB   C2A 2358  24.715   5.760  25.833 -0.0105 -0.2380  0.1924
   99BOLB   C3A 2359  24.691   5.977  26.248  0.1860 -0.1808  0.2253
   99BOLB   C4A 2360  24.376   6.310  26.404 -0.0843  0.1612  0.0347
   99BOLB   C1B 2361  24.783   5.705  25.350 -0.0715 -0.0970 -0.4788
   99BOLB   C2B 2362  24.370   5.877  25.480  0.0873 -0.4389  0.1395
   99BOLB   C3B 2363  24.172   6.278  25.267 -0.0537 -0.2551  0.1829
   99BOLB   C4B 2364  23.815   6.538  25.259  0.1481  0.2586  0.0551
   99BOLB   NC2 2365  25.931   5.853  24.662  0.1139 -0.0131  0.1099
   99BOLB   PO2 2366  25.897   5.820  25.070 -0.1762  0.0524  0.0514
   99BOLB   GL3 2367  25.490   6.036  24.945 -0.2614  0.2721 -0.1348
   99BOLB   GL4 2368  25.635   6.355  24.827 -0.0535 -0.1773  0.1496
   99BOLB   C1C 2369  25.270   6.361  25.216 -0.0110 -0.2497  0.0287
   99BOLB   C2C 2370  25.055   6.676  25.476  0.1129  0.3209  0.0567
   99BOLB   C3C 2371  24.692   6.628  25.777  0.1171 -0.0575  0.1166
   99BOLB   C4C 2372  24.444   6.556  26.170 -0.1265  0.0785  0.0455
   99BOLB   C1D 2373  25.326   6.426  24.570  0.0979 -0.2175 -0.2025
   99BOLB   C2D 2374  25.085   6.531  24.190 -0.1335  0.1749  0.2403
   99BOLB   C3D 2375  24.815   6.839  23.988  0.1148 -0.1889 -0.2429
   99BOLB   C4D 2376  24.436   7.067  24.090 -0.0901 -0.1134 -0.0625
  100BOLB   NC1 2377  23.384   9.336  30.994  0.0533 -0.1328 -0.0793
  100BOLB   PO1 2378  23.223   9.131  31.324  0.0879  0.2706  0.2056
  100BOLB   GL1 2379  23.598   8.933  31.454  0.1692  0.1619 -0.2630
  100BOLB   GL2 2380  23.381   8.610  31.546 -0.2628 -0.3808 -0.0580
  100BOLB   C1A 2381  23.992   8.825  31.407 -0.0618 -0.2991  0.0107
  100BOLB   C2A 2382  24.384   8.700  31.356 -0.0602  0.0895 -0.1515
  100BOLB   C3A 2383  24.719   8.810  31.120 -0.0537 -0.0331 -0.2828
  100BOLB   C4A 2384  25.044   9.176  31.222  0.0800 -0.0993 -0.0667
  100BOLB   C1B 2385  23.650   8.332  31.430 -0.1046  0.1154  0.2226
  100BOLB   C2B 2386  23.855   8.096  31.623  0.0370  0.0221 -0.0454
  100BOLB   C3B 2387  24.041   7.795  31.909 -0.0401  0.0787  0.1338
  100BOLB   C4B 2388  24.405   7.913  32.041  0.0135 -0.0237 -0.1079
  100BOLB   NC2 2389   0.308   8.308  31.248 -0.1606 -0.0593  0.3512
  100BOLB   PO2 2390   0.247   8.500  31.564 -0.2550  0.0733 -0.1082
  100BOLB   GL3 2391   0.094   8.872  31.632 -0.2069  0.0411  0.0540
  100BOLB   GL4 2392  27.032   8.871  32.029 -0.4028  0.0088 -0.3021
  100BOLB   C1C 2393  26.650   8.997  31.587 -0.0120 -0.1747 -0.3939
  100BOLB   C2C 2394  26.294   9.022  31.499  0.2009  0.1924  0.0865
  100BOLB   C3C 2395  25.905   8.991  31.461  0.1982  0.0641  0.2100
  100BOLB   C4C 2396  25.475   9.298  31.449  0.0077  0.4461  0.1264
  100BOLB   C1D 2397  26.884   9.191  32.199 -0.0390  0.0929 -0.1743
  100BOLB   C2D 2398  26.490   9.482  32.187  0.1680 -0.3225 -0.1624
  100BOLB   C3D 2399  26.343   9.823  32.288 -0.1828 -0.0118 -0.0468
  100BOLB   C4D 2400  26.038  10.165  32.315  0.3804 -0.3551  0.2847
  101BOLB   NC1 2401  12.181  21.255  30.027  0.1504  0.0787  0.0659
  101BOLB   PO1 2402  12.066  20.960  30.479 -0.1316 -0.0114 -0.1800
  101BOLB   GL1 2403  11.918  21.363  30.488 -0.2374 -0.2550  0.3150
  101BOLB   GL2 2404  11.594  21.303  30.571 -0.0706 -0.1335 -0.2051
  101BOLB   C1A 2405  11.959  21.758  30.486 -0.0442  0.2678 -0.2142
  101BOLB   C2A 2406  11.700  22.181  30.299 -0.1392  0.2922  0.3924
  101BOLB   C3A 2407  11.726  22.627  30.033  0.3056  0.0054  0.1671
  101BOLB   C4A 2408  12.078  22.826  30.068  0.1814  0.1574 -0.1010
  101BOLB   C1B 2409  11.475  21.687  30.388  0.0737  0.0057 -0.1701
  101BOLB   C2B 2410  11.230  22.106  30.383 -0.0090  0.1972  0.1966
  101BOLB   C3B 2411  10.998  22.471  30.698 -0.0533  0.1296  0.1066
  101BOLB   C4B 2412  10.686  22.679  30.856 -0.0184 -0.0711  0.3758
  101BOLB   NC2 2413  12.305  25.109  29.488  0.1712  0.1096 -0.0427
  101BOLB   PO2 2414  11.932  25.207  29.753  0.2868 -0.1980  0.1576
  101BOLB   GL3 2415  12.219  24.965  29.961 -0.0201 -0.4134 -0.1309
  101BOLB   GL4 2416  12.571  25.059  29.923  0.1701  0.3220  0.2111
  101BOLB   C1C 2417  12.014  24.609  30.214  0.0035  0.1783 -0.1886
  101BOLB   C2C 2418  12.048  24.251  30.128  0.1260  0.3077  0.1223
  101BOLB   C3C 2419  12.028  23.756  30.098 -0.1917 -0.0518  0.0317
  101BOLB   C4C 2420  12.111  23.325  30.077  0.2262  0.1783 -0.1317
  101BOLB   C1D 2421  12.516  24.555  29.929 -0.0433 -0.0155  0.0808
  101BOLB   C2D 2422  12.518  24.156  29.811 -0.0886  0.2089  0.1578
  101BOLB   C3D 2423  12.495  23.769  29.803 -0.2127  0.2793  0.0008
  101BOLB   C4D 2424  12.836  23.521  29.825  0.1152 -0.2211  0.0633
  102BOLB   NC1 2425   8.261   3.848  25.159  0.1563 -0.0069 -0.0279
  102BOLB   PO1 2426   8.517   3.746  24.965  0.2069  0.1571 -0.1780
  102BOLB   GL1 2427   8.643   4.100  24.848  0.1498  0.1691  0.0821
  102BOLB   GL2 2428   8.398   4.333  24.909 -0.0714  0.1011  0.0467
  102BOLB   C1A 2429   8.866   4.568  24.869  0.1199  0.1050  0.1164
  102BOLB   C2A 2430   9.139   4.669  25.270 -0.0389  0.1244 -0.1901
  102BOLB   C3A 2431   8.981   4.667  25.680 -0.2401  0.1451 -0.3184
  102BOLB   C4A 2432   8.990   4.763  26.094 -0.0664 -0.1614  0.0438
  102BOLB   C1B 2433   8.422   4.620  25.208  0.3404 -0.1920 -0.0053
  102BOLB   C2B 2434   8.520   4.793  25.560  0.0149 -0.0201  0.0714
  102BOLB   C3B 2435   8.610   5.154  25.804 -0.2536 -0.2214  0.0456
  102BOLB   C4B 2436   8.594   5.239  26.253 -0.0958 -0.0428 -0.1664
  102BOLB   NC2 2437   8.680   2.707  27.022  0.0393  0.0160  0.3812
  102BOLB   PO2 2438   8.234   2.989  27.209 -0.0325 -0.2471  0.1287
  102BOLB   GL3 2439   8.428   3.410  27.174 -0.3198 -0.0164  0.1605
  102BOLB   GL4 2440   8.309   3.699  27.098 -0.1865  0.3476 -0.2763
  102BOLB   C1C 2441   8.793   3.661  27.394 -0.1468  0.0184 -0.0153
  102BOLB   C2C 2442   9.030   3.994  27.172 -0.3020 -0.0972  0.1035
  102BOLB   C3C 2443   9.072   4.166  26.688  0.3018 -0.0883  0.1337
  102BOLB   C4C 2444   9.056   4.429  26.402 -0.1684 -0.1326  0.1447
  102BOLB   C1D 2445   8.443   4.015  27.343  0.0922 -0.1250  0.1954
  102BOLB   C2D 2446   8.385   4.464  27.391 -0.0002  0.4061 -0.2905
  102BOLB   C3D 2447   8.574   4.792  27.307 -0.1806  0.0236  0.1862
  102BOLB   C4D 2448   8.672   5.210  27.380 -0.1608  0.5541 -0.0852
  103BOLB   NC1 2449  20.540  18.117  33.391  0.0030  0.0225  0.4711
  103BOLB   PO1 2450  20.260  18.324  33.718 -0.1387 -0.0768 -0.2009
  103BOLB   GL1 2451  20.274  18.695  33.858  0.0556  0.0510  0.2641
  103BOLB   GL2 2452  20.583  18.822  33.981 -0.2384  0.2557  0.3104
  103BOLB   C1A 2453  20.342  19.149  33.590 -0.0157  0.0126 -0.3744
  103BOLB   C2A 2454  20.568  19.471  33.671  0.3426  0.3563  0.0679
  103BOLB   C3A 2455  20.651  19.889  33.775 -0.3589  0.1642  0.0321
  103BOLB   C4A 2456  20.926  19.994  34.115 -0.3940  0.2009  0.0176
  103BOLB   C1B 2457  20.717  19.200  34.109  0.2762 -0.0038 -0.4017
  103BOLB   C2B 2458  20.978  19.478  33.943  0.1364 -0.0244 -0.1324
  103BOLB   C3B 2459  21.218  19.817  33.789 -0.1022 -0.0177 -0.0288
  103BOLB   C4B 2460  21.674  19.684  33.779  0.3080 -0.1210  0.4281
  103BOLB   NC2 2461  22.180  22.004  35.166  0.0639 -0.0432 -0.0324
  103BOLB   PO2 2462  21.709  21.977  35.130 -0.0446 -0.1822 -0.0085
  103BOLB   GL3 2463  21.489  21.696  35.032 -0.1966  0.0056 -0.1148
  103BOLB   GL4 2464  21.492  21.472  35.145 -0.0895  0.2379  0.0441
  103BOLB   C1C 2465  21.304  21.398  34.665 -0.0013 -0.1974  0.0708
  103BOLB   C2C 2466  21.249  21.068  34.660 -0.2406  0.3282 -0.2660
  103BOLB   C3C 2467  21.093  20.678  34.640 -0.0235  0.0711  0.0324
  103BOLB   C4C 2468  20.986  20.340  34.424  0.2629 -0.1156  0.0172
  103BOLB   C1D 2469  21.228  21.173  35.168 -0.1074 -0.2528  0.0280
  103BOLB   C2D 2470  21.099  20.731  35.179 -0.0324 -0.3154 -0.1441
  103BOLB   C3D 2471  20.888  20.361  35.287 -0.2981  0.2100 -0.0894
  103BOLB   C4D 2472  20.684  19.906  35.507 -0.2334  0.0891 -0.2484
  104BOLB   NC1 2473  19.930   4.472  28.846  0.0388 -0.2271  0.1153
  104BOLB   PO1 2474  19.789   4.510  29.179  0.3211  0.1592  0.0900
  104BOLB   GL1 2475  19.729   4.055  29.232  0.0968 -0.0743  0.2010
  104BOLB   GL2 2476  19.359   3.986  29.210  0.3431  0.0261  0.3880
  104BOLB   C1A 2477  19.929   3.699  29.241  0.2782 -0.2182 -0.0644
  104BOLB   C2A 2478  19.918   3.293  29.003 -0.2703  0.0081  0.1658
  104BOLB   C3A 2479  19.893   2.925  28.763  0.0603  0.0948  0.2283
  104BOLB   C4A 2480  19.543   2.548  29.031 -0.2929 -0.0148  0.0641
  104BOLB   C1B 2481  19.413   3.606  29.097  0.2873  0.0152  0.2204
  104BOLB   C2B 2482  19.595   3.336  29.417  0.0333 -0.2452  0.2421
  104BOLB   C3B 2483  19.797   3.156  29.674  0.2070 -0.0168 -0.3021
  104BOLB   C4B 2484  20.035   3.174  30.039 -0.1229 -0.0485  0.2048
  104BOLB   NC2 2485  20.204   0.547  28.168  0.0164  0.0403 -0.2929
  104BOLB   PO2 2486  20.003   0.288  28.455  0.0703  0.0525 -0.0282
  104BOLB   GL3 2487  19.847   0.706  28.553 -0.3761 -0.3936 -0.1079
  104BOLB   GL4 2488  19.708   0.872  28.852 -0.3300  0.0635 -0.3433
  104BOLB   C1C 2489  19.617   1.086  28.395 -0.2167 -0.2369 -0.2204
  104BOLB   C2C 2490  19.519   1.430  28.502  0.2713 -0.2403 -0.0048
  104BOLB   C3C 2491  19.557   1.764  28.658  0.1137 -0.0965 -0.2063
  104BOLB   C4C 2492  19.448   2.151  28.989  0.0494  0.1078 -0.3220
  104BOLB   C1D 2493  19.487   1.105  29.108 -0.1174  0.0767  0.1534
  104BOLB   C2D 2494  19.289   1.563  29.067  0.0591 -0.1804  0.2996
  104BOLB   C3D 2495  18.902   1.772  29.278 -0.3867  0.1833 -0.2653
  104BOLB   C4D 2496  18.622   2.061  29.636  0.0251  0.4183 -0.3041
  105BOLB   NC1 2497  15.889   5.146  24.928 -0.3063 -0.1608 -0.0534
  105BOLB   PO1 2498  15.441   5.109  24.790  0.0464  0.0516 -0.1529
  105BOLB   GL1 2499  15.109   4.839  24.966 -0.0496  0.2686  0.1937
  105BOLB   GL2 2500  14.909   4.730  24.668  0.2332 -0.0366 -0.0172
  105BOLB   C1A 2501  14.744   4.767  25.133  0.0692 -0.2369  0.1318
  105BOLB   C2A 2502  14.609   4.370  25.229 -0.1256  0.1144  0.4604
  105BOLB   C3A 2503  14.606   3.896  25.096 -0.1390  0.4004 -0.1522
  105BOLB   C4A 2504  14.756   3.613  25.284 -0.1281 -0.0312  0.0645
  105BOLB   C1B 2505  14.493   4.477  24.737  0.1491  0.1966 -0.0855
  105BOLB   C2B 2506  14.236   4.169  24.982 -0.0500 -0.0201  0.2122
  105BOLB   C3B 2507  14.099   4.040  25.340  0.2110  0.1622 -0.2955
  105BOLB   C4B 2508  14.048   3.872  25.738  0.0048  0.0540  0.0549
  105BOLB   NC2 2509  15.967   4.725  27.280 -0.0459  0.2809 -0.1141
  105BOLB   PO2 2510  15.626   4.635  26.945  0.2052 -0.3185 -0.0439
  105BOLB   GL3 2511  15.661   4.225  26.732  0.4356 -0.0811  0.1449
  105BOLB   GL4 2512  15.847   4.006  26.820  0.0409 -0.2738 -0.0079
  105BOLB   C1C 2513  15.651   3.926  26.379  0.0594 -0.1908  0.4215
  105BOLB   C2C 2514  15.450   3.479  26.136 -0.5138  0.3924 -0.0819
  105BOLB   C3C 2515  15.322   3.314  25.897 -0.3082  0.2013  0.0098
  105BOLB   C4C 2516  15.188   3.495  25.474 -0.0197  0.1716 -0.0535
  105BOLB   C1D 2517  15.753   3.577  26.710 -0.2164 -0.0939  0.1882
  105BOLB   C2D 2518  15.467   3.281  26.583 -0.1226  0.2751 -0.4271
  105BOLB   C3D 2519  15.343   2.863  26.802  0.1256  0.3605 -0.3027
  105BOLB   C4D 2520  15.112   3.007  27.007 -0.0126  0.3933 -0.0612
  106BOLB   NC1 2521  13.235   4.915  29.675  0.2422  0.3032  0.0481
  106BOLB   PO1 2522  13.183   4.724  30.053 -0.1770  0.1179  0.1378
  106BOLB   GL1 2523  12.902   4.414  29.964  0.4067  0.1600 -0.1697
  106BOLB   GL2 2524  12.688   4.281  30.301  0.1774  0.1054  0.1884
  106BOLB   C1A 2525  12.489   4.173  29.880 -0.1765  0.4005  0.1597
  106BOLB   C2A 2526  12.403   3.851  29.914  0.0092 -0.1179 -0.1444
  106BOLB   C3A 2527  12.335   3.530  30.139 -0.2691 -0.0010 -0.0301
  106BOLB   C4A 2528  12.068   3.157  30.293  0.0515  0.0287 -0.0995
  106BOLB   C1B 2529  12.843   3.900  30.166 -0.2284  0.1854 -0.1270
  106BOLB   C2B 2530  12.962   3.464  30.087 -0.1570 -0.0562  0.1528
  106BOLB   C3B 2531  13.028   3.107  30.275  0.2362 -0.0065 -0.1444
  106BOLB   C4B 2532  13.317   3.121  30.590 -0.1749 -0.3087  0.2224
  106BOLB   NC2 2533  10.837   0.903  31.045 -0.0439 -0.1785 -0.2396
  106BOLB   PO2 2534  11.174   1.057  31.224  0.0921 -0.2822 -0.3231
  106BOLB   GL3 2535  11.369   1.500  31.151 -0.2829 -0.2606  0.3252
  106BOLB   GL4 2536  11.142   1.821  31.301 -0.0445 -0.0386  0.1866
  106BOLB   C1C 2537  11.616   1.571  30.841 -0.0381  0.0680  0.1244
  106BOLB   C2C 2538  11.792   1.910  30.556 -0.5238  0.1092  0.0118
  106BOLB   C3C 2539  11.772   2.373  30.441 -0.2769  0.0566 -0.0105
  106BOLB   C4C 2540  11.934   2.773  30.378 -0.1954  0.0639 -0.0680
  106BOLB   C1D 2541  11.234   2.065  30.908 -0.0899  0.0604  0.2840
  106BOLB   C2D 2542  11.370   2.521  30.851 -0.0754  0.3232 -0.0285
  106BOLB   C3D 2543  11.674   2.797  30.907  0.1933 -0.0117  0.0290
  106BOLB   C4D 2544  11.717   3.188  31.129 -0.0037  0.1987 -0.1487
  107BOLB   NC1 2545  12.665   4.797  30.263  0.0868 -0.0193 -0.2771
  107BOLB   PO1 2546  12.602   4.748  30.681  0.2340  0.0228 -0.3093
  107BOLB   GL1 2547  12.364   4.538  30.912 -0.2723 -0.1400 -0.0831
  107BOLB   GL2 2548  12.591   4.522  31.137 -0.0522  0.2591  0.2265
  107BOLB   C1A 2549  12.209   4.162  30.958  0.1307 -0.2847  0.0087
  107BOLB   C2A 2550  12.006   3.770  30.999  0.0354  0.4809  0.2893
  107BOLB   C3A 2551  12.036   3.442  30.669 -0.3344  0.0197  0.0028
  107BOLB   C4A 2552  12.155   3.050  30.842 -0.0565  0.1100  0.0934
  107BOLB   C1B 2553  12.669   4.115  31.125 -0.1501 -0.0265 -0.1915
  107BOLB   C2B 2554  12.658   3.710  31.385 -0.0252 -0.0510  0.2640
  107BOLB   C3B 2555  12.582   3.305  31.503  0.0667  0.2058 -0.2114
  107BOLB   C4B 2556  12.535   2.909  31.669  0.0850  0.1487 -0.2451
  107BOLB   NC2 2557  11.889   0.671  32.128  0.1165 -0.1744 -0.1091
  107BOLB   PO2 2558  11.665   0.699  31.742  0.1654  0.0406  0.3346
  107BOLB   GL3 2559  11.702   1.218  31.794  0.0344  0.0050  0.1941
  107BOLB   GL4 2560  11.736   1.502  31.957  0.2327  0.3491 -0.0829
  107BOLB   C1C 2561  11.695   1.656  31.482 -0.0001 -0.0457  0.2619
  107BOLB   C2C 2562  11.975   1.941  31.204  0.1142 -0.3083 -0.1007
  107BOLB   C3C 2563  11.989   2.193  30.893 -0.0002  0.0568  0.3176
  107BOLB   C4C 2564  12.094   2.603  30.818  0.1747  0.3229 -0.0829
  107BOLB   C1D 2565  11.793   1.895  31.916  0.1724  0.0825  0.3452
  107BOLB   C2D 2566  11.803   2.363  31.747 -0.1295 -0.1148  0.1058
  107BOLB   C3D 2567  12.096   2.721  31.826  0.4759  0.0995  0.1381
  107BOLB   C4D 2568  12.032   3.205  31.791 -0.0565 -0.4964  0.0566
  108BOLB   NC1 2569  10.999   8.903  36.538 -0.3276  0.3225 -0.0545
  108BOLB   PO1 2570  11.291   8.980  36.918 -0.4306  0.0914  0.0414
  108BOLB   GL1 2571  11.344   8.702  37.219  0.3128  0.1129 -0.2323
  108BOLB   GL2 2572  11.586   8.443  37.292 -0.1881 -0.1090 -0.1250
  108BOLB   C1A 2573  11.136   8.518  37.542  0.0200  0.3158  0.3340
  108BOLB   C2A 2574  10.709   8.214  37.590  0.1804 -0.0144 -0.2941
  108BOLB   C3A 2575  10.850   7.777  37.819 -0.2036 -0.0398 -0.0820
  108BOLB   C4A 2576  10.780   7.507  38.293 -0.1441  0.1719 -0.3213
  108BOLB   C1B 2577  11.249   8.121  37.218 -0.3531 -0.1271  0.0993
  108BOLB   C2B 2578  10.948   7.761  37.343  0.2678  0.0410 -0.1972
  108BOLB   C3B 2579  10.859   7.367  37.371 -0.0460  0.2121 -0.0392
  108BOLB   C4B 2580  10.812   7.122  37.694 -0.1187 -0.3067 -0.2900
  108BOLB   NC2 2581   9.175   7.041  39.951  0.2217  0.1859 -0.1064
  108BOLB   PO2 2582   9.339   7.310  40.293  0.0273  0.1105 -0.0369
  108BOLB   GL3 2583   9.601   7.536  40.056  0.0896 -0.3623 -0.1607
  108BOLB   GL4 2584   9.748   7.688  40.224  0.1332  0.2649 -0.4082
  108BOLB   C1C 2585   9.896   7.543  39.696 -0.1058 -0.2471  0.2216
  108BOLB   C2C 2586  10.053   7.582  39.384 -0.3078 -0.0474 -0.3138
  108BOLB   C3C 2587  10.295   7.809  39.038  0.2280  0.0537  0.2636
  108BOLB   C4C 2588  10.606   7.518  38.760 -0.0303 -0.0816  0.1161
  108BOLB   C1D 2589   9.899   8.041  40.029 -0.0297  0.1433 -0.0375
  108BOLB   C2D 2590  10.266   8.227  39.877  0.0180  0.2684 -0.2438
  108BOLB   C3D 2591  10.258   8.591  39.708  0.1953 -0.0449 -0.0296
  108BOLB   C4D 2592  10.369   9.050  39.633  0.1081 -0.0437  0.1019
  109BOLB   NC1 2593  15.291   9.088  39.376  0.0658 -0.0293  0.5877
  109BOLB   PO1 2594  14.861   9.245  39.454 -0.0681  0.2848  0.1129
  109BOLB   GL1 2595  14.867   8.788  39.601 -0.2213 -0.2418 -0.0864
  109BOLB   GL2 2596  14.559   8.855  39.779 -0.0925 -0.1318  0.1619
  109BOLB   C1A 2597  14.979   8.691  40.002  0.3767  0.0563  0.4157
  109BOLB   C2A 2598  15.186   8.487  40.381 -0.0424  0.0794  0.1756
  109BOLB   C3A 2599  15.373   8.167  40.513  0.0641  0.1097 -0.0541
  109BOLB   C4A 2600  15.535   7.982  40.980  0.1885  0.0043  0.2083
  109BOLB   C1B 2601  14.485   8.678  40.219 -0.0008  0.0037 -0.1786
  109BOLB   C2B 2602  14.712   8.755  40.456  0.0131  0.2502 -0.4146
  109BOLB   C3B 2603  14.987   8.694  40.803 -0.1059  0.0650 -0.0734
  109BOLB   C4B 2604  15.348   8.459  40.960  0.1503 -0.0758  0.2358
  109BOLB   NC2 2605  16.173   8.257  43.508 -0.0326 -0.2448 -0.2590
  109BOLB   PO2 2606  16.281   8.635  43.334  0.0661 -0.1035  0.1528
  109BOLB   GL3 2607  16.303   8.293  42.987 -0.0514 -0.3070 -0.2229
  109BOLB   GL4 2608  16.456   7.972  42.956  0.1259 -0.0422  0.0821
  109BOLB   C1C 2609  16.246   8.160  42.505 -0.0608 -0.1996  0.2453
  109BOLB   C2C 2610  16.265   7.905  42.069 -0.2071  0.1006 -0.0086
  109BOLB   C3C 2611  16.081   7.903  41.612 -0.3367 -0.0917 -0.5363
  109BOLB   C4C 2612  15.876   8.077  41.266  0.0824  0.0537  0.2077
  109BOLB   C1D 2613  16.220   7.720  42.669 -0.0347 -0.1554  0.6698
  109BOLB   C2D 2614  16.048   7.526  42.228 -0.1514  0.5694 -0.0924
  109BOLB   C3D 2615  15.717   7.620  41.857 -0.1111 -0.0734 -0.1690
  109BOLB   C4D 2616  15.856   7.528  41.407 -0.1055 -0.2531  0.1171
  110BOLB   NC1 2617  21.893  16.504  29.711 -0.0995  0.3135 -0.1175
  110BOLB   PO1 2618  21.920  16.048  29.494  0.0270 -0.1257 -0.0545
  110BOLB   GL1 2619  22.236  16.215  29.277  0.1324 -0.1511  0.0320
  110BOLB   GL2 2620  22.388  16.421  28.914  0.1897 -0.0822  0.1649
  110BOLB   C1A 2621  22.721  16.163  29.238 -0.0354 -0.0364  0.2183
  110BOLB   C2A 2622  23.117  16.334  29.441 -0.1596  0.0249 -0.1691
  110BOLB   C3A 2623  23.472  16.562  29.399  0.0123 -0.1918  0.0517
  110BOLB   C4A 2624  23.886  16.775  29.264 -0.1912 -0.0365  0.1740
  110BOLB   C1B 2625  22.401  16.848  29.204  0.0550  0.2196  0.3283
  110BOLB   C2B 2626  22.434  17.378  29.114 -0.1044 -0.0029 -0.2113
  110BOLB   C3B 2627  22.661  17.698  29.360 -0.2340 -0.2565  0.6882
  110BOLB   C4B 2628  22.921  17.652  29.711  0.3623  0.0683 -0.2110
  110BOLB   NC2 2629  26.176  17.285  30.120  0.1678 -0.0359  0.3475
  110BOLB   PO2 2630  25.994  17.671  30.121 -0.2422 -0.0077  0.0669
  110BOLB   GL3 2631  25.626  17.419  30.174 -0.1709  0.0127  0.0694
  110BOLB   GL4 2632  25.700  17.367  30.463 -0.0947  0.2419  0.0308
  110BOLB   C1C 2633  25.294  17.195  30.004  0.2187  0.2684  0.3110
  110BOLB   C2C 2634  24.856  17.219  29.846  0.1231  0.0281 -0.1845
  110BOLB   C3C 2635  24.474  17.157  29.574  0.1328  0.0336  0.0415
  110BOLB   C4C 2636  24.343  16.888  29.248 -0.0840 -0.1488 -0.3984
  110BOLB   C1D 2637  25.497  17.078  30.787  0.2973 -0.0535 -0.2085
  110BOLB   C2D 2638  25.475  16.590  30.889  0.0269  0.0882 -0.1800
  110BOLB   C3D 2639  25.165  16.337  30.886 -0.2088  0.2234  0.3206
  110BOLB   C4D 2640  24.897  16.208  30.658 -0.2392 -0.2570  0.1598
  111BOLB   NC1 2641  21.482  13.718  15.605  0.1867 -0.3348  0.4436
  111BOLB   PO1 2642  21.636  13.481  15.941 -0.2517 -0.0238 -0.2364
  111BOLB   GL1 2643  21.693  13.590  16.399 -0.0084  0.1015  0.1126
  111BOLB   GL2 2644  21.821  13.280  16.544 -0.1390  0.2044 -0.1172
  111BOLB   C1A 2645  21.407  13.822  16.648 -0.1432  0.4143  0.1164
  111BOLB   C2A 2646  21.351  13.734  17.095 -0.4039 -0.0188  0.0236
  111BOLB   C3A 2647  21.333  13.516  17.420  0.0900 -0.2195 -0.2356
  111BOLB   C4A 2648  21.161  13.150  17.554  0.2659 -0.2137 -0.0019
  111BOLB   C1B 2649  21.474  13.263  16.851  0.0853 -0.2424  0.0447
  111BOLB   C2B 2650  21.113  13.193  17.100  0.1633  0.3745  0.2574
  111BOLB   C3B 2651  20.818  13.494  17.319 -0.1464 -0.0580 -0.2438
  111BOLB   C4B 2652  20.614  13.451  17.659 -0.2367 -0.0102  0.1251
  111BOLB   NC2 2653  21.436  11.210  15.556 -0.3812 -0.1915 -0.2540
  111BOLB   PO2 2654  21.615  11.536  15.806 -0.1005  0.2499  0.1080
  111BOLB   GL3 2655  21.312  11.441  16.098  0.4334 -0.1090 -0.1642
  111BOLB   GL4 2656  21.070  11.191  15.979  0.1459  0.2246 -0.0626
  111BOLB   C1C 2657  21.128  11.683  16.422 -0.1621  0.3046  0.0838
  111BOLB   C2C 2658  21.214  12.086  16.818  0.0516  0.2233 -0.0366
  111BOLB   C3C 2659  21.206  12.388  17.150  0.1914 -0.0065 -0.1924
  111BOLB   C4C 2660  21.052  12.779  17.442 -0.2262  0.0684 -0.3117
  111BOLB   C1D 2661  20.868  11.194  16.252  0.1934  0.1934 -0.1125
  111BOLB   C2D 2662  20.619  10.969  16.429  0.3499  0.0113 -0.0519
  111BOLB   C3D 2663  20.204  10.814  16.256  0.2768 -0.4957  0.4340
  111BOLB   C4D 2664  20.036  10.716  15.827  0.0089  0.4231 -0.1474
  112BOLB   NC1 2665   8.009  12.002  29.610 -0.1122 -0.2303  0.1834
  112BOLB   PO1 2666   7.702  11.767  29.632  0.2994 -0.1703 -0.0930
  112BOLB   GL1 2667   7.294  11.981  29.534  0.0510 -0.2311 -0.2067
  112BOLB   GL2 2668   7.187  12.323  29.616  0.0793 -0.4018  0.0115
  112BOLB   C1A 2669   6.885  11.933  29.486  0.1331  0.3150  0.2678
  112BOLB   C2A 2670   6.502  12.065  29.464 -0.1281  0.0757 -0.1396
  112BOLB   C3A 2671   6.129  11.934  29.398 -0.2668  0.0152  0.0091
  112BOLB   C4A 2672   5.864  11.632  29.324  0.2804  0.0529 -0.4026
  112BOLB   C1B 2673   6.791  12.462  29.468 -0.1869  0.0707  0.2836
  112BOLB   C2B 2674   6.314  12.528  29.669 -0.2421 -0.1404 -0.1429
  112BOLB   C3B 2675   5.999  12.592  29.953  0.0980 -0.0853 -0.0942
  112BOLB   C4B 2676   5.813  12.258  30.226 -0.1802 -0.2767 -0.0475
  112BOLB   NC2 2677   3.397  10.777  29.848 -0.1715 -0.1922 -0.0216
  112BOLB   PO2 2678   3.656  10.571  29.334  0.4047 -0.0885  0.0228
  112BOLB   GL3 2679   3.987  10.761  29.328  0.0218 -0.3597 -0.0029
  112BOLB   GL4 2680   3.874  10.998  29.042  0.2116 -0.2896 -0.1391
  112BOLB   C1C 2681   4.366  10.826  29.250 -0.0716  0.0006 -0.0925
  112BOLB   C2C 2682   4.824  10.972  29.274 -0.0780 -0.0294  0.1240
  112BOLB   C3C 2683   5.196  11.028  29.248  0.1672  0.0873 -0.0997
  112BOLB   C4C 2684   5.474  11.409  29.379  0.0758 -0.0843 -0.2464
  112BOLB   C1D 2685   3.836  11.338  29.457  0.0486  0.0717  0.1212
  112BOLB   C2D 2686   4.249  11.616  29.491 -0.0440 -0.0503  0.0998
  112BOLB   C3D 2687   4.609  11.704  29.621  0.0555  0.1329  0.0558
  112BOLB   C4D 2688   4.912  12.062  29.926  0.3121  0.1031  0.0286
  113BOLB   NC1 2689  19.092  18.868  35.590 -0.1816 -0.0680 -0.0991
  113BOLB   PO1 2690  19.257  18.855  35.131 -0.2704  0.1613  0.0343
  113BOLB   GL1 2691  19.455  19.181  35.363 -0.0332 -0.0935 -0.2385
  113BOLB   GL2 2692  19.817  19.267  35.133  0.1560 -0.1776  0.0704
  113BOLB   C1A 2693  19.508  19.279  35.838 -0.0088  0.1361  0.1576
  113BOLB   C2A 2694  19.737  19.399  36.124 -0.0164  0.0598  0.2583
  113BOLB   C3A 2695  19.962  19.228  36.450 -0.2042  0.2876  0.2681
  113BOLB   C4A 2696  20.175  19.487  36.741 -0.0695 -0.0348  0.3746
  113BOLB   C1B 2697  19.797  19.540  35.506  0.0699  0.0647 -0.0189
  113BOLB   C2B 2698  19.828  20.013  35.492 -0.0783  0.0870  0.1477
  113BOLB   C3B 2699  20.108  20.244  35.378  0.1611  0.3740  0.1503
  113BOLB   C4B 2700  20.481  20.374  35.539 -0.2325  0.0659  0.0595
  113BOLB   NC2 2701  21.005  21.694  37.732 -0.6077 -0.1703 -0.2868
  113BOLB   PO2 2702  20.923  21.740  37.388 -0.4191  0.0046 -0.1272
  113BOLB   GL3 2703  20.767  21.325  37.158  0.1745 -0.2488  0.0347
  113BOLB   GL4 2704  20.494  21.542  37.148  0.0646  0.1770 -0.1069
  113BOLB   C1C 2705  20.576  20.866  37.012  0.0534 -0.1799  0.0310
  113BOLB   C2C 2706  20.555  20.507  37.250 -0.1677 -0.1162 -0.4579
  113BOLB   C3C 2707  20.684  20.106  37.113 -0.3558 -0.3649  0.2938
  113BOLB   C4C 2708  20.441  19.772  36.904  0.2580  0.0939  0.2587
  113BOLB   C1D 2709  20.170  21.207  37.124 -0.0714 -0.0514 -0.0997
  113BOLB   C2D 2710  20.049  20.808  36.931  0.1634  0.2389 -0.1591
  113BOLB   C3D 2711  19.971  20.489  37.070  0.1725  0.0256  0.1551
  113BOLB   C4D 2712  19.645  20.173  37.160  0.0404 -0.4819  0.1089
  114BOLB   NC1 2713  24.804   9.076  18.252  0.2611  0.1710 -0.1177
  114BOLB   PO1 2714  24.787   8.642  18.409 -0.3713  0.1657 -0.1367
  114BOLB   GL1 2715  24.311   8.814  18.356  0.3830 -0.0909  0.3869
  114BOLB   GL2 2716  24.059   8.883  18.138  0.3830  0.2788 -0.0123
  114BOLB   C1A 2717  24.038   8.768  18.692 -0.1299  0.2005  0.0408
  114BOLB   C2A 2718  23.883   9.064  18.876  0.2626 -0.0516 -0.0622
  114BOLB   C3A 2719  23.678   9.455  18.939 -0.3100 -0.0284  0.0670
  114BOLB   C4A 2720  23.732   9.837  19.131 -0.0084 -0.0537  0.0563
  114BOLB   C1B 2721  23.667   9.130  18.404  0.0542  0.0147 -0.0421
  114BOLB   C2B 2722  23.276   9.009  18.501 -0.1616  0.1445 -0.4541
  114BOLB   C3B 2723  23.036   8.676  18.613 -0.1179  0.1148 -0.3155
  114BOLB   C4B 2724  22.992   8.294  18.870 -0.4092 -0.0365 -0.0344
  114BOLB   NC2 2725  24.133  10.099  17.279  0.0835  0.2894 -0.0898
  114BOLB   PO2 2726  24.586  10.074  17.407 -0.0786  0.2657  0.1039
  114BOLB   GL3 2727  24.308  10.273  17.701 -0.0909 -0.0235 -0.1595
  114BOLB   GL4 2728  23.941  10.388  17.703 -0.1981 -0.1253 -0.1425
  114BOLB   C1C 2729  24.136  10.462  18.128 -0.0384  0.3763 -0.4870
  114BOLB   C2C 2730  23.858  10.575  18.431  0.3377  0.1170 -0.0991
  114BOLB   C3C 2731  23.701  10.429  18.796 -0.0387 -0.0198 -0.1339
  114BOLB   C4C 2732  23.801  10.199  19.130 -0.0469  0.2542  0.0437
  114BOLB   C1D 2733  23.714  10.182  17.940  0.1402 -0.1543  0.2780
  114BOLB   C2D 2734  23.675  10.065  18.274 -0.1279 -0.1333 -0.2937
  114BOLB   C3D 2735  23.559   9.910  18.692  0.1966 -0.5978 -0.0758
  114BOLB   C4D 2736  23.300  10.011  19.006 -0.0261 -0.2757 -0.3581
  115BOLB   NC1 2737  12.815   9.545  21.864 -0.0603  0.0105 -0.0276
  115BOLB   PO1 2738  12.814   9.216  22.088  0.2530 -0.0417 -0.1972
  115BOLB   GL1 2739  12.651   8.997  21.693 -0.3951 -0.1155  0.0434
  115BOLB   GL2 2740  12.588   9.268  21.530 -0.1876  0.0046 -0.4207
  115BOLB   C1A 2741  12.440   8.810  21.316 -0.0727  0.3681 -0.0011
  115BOLB   C2A 2742  12.279   8.748  20.923  0.1750 -0.3289 -0.0048
  115BOLB   C3A 2743  12.152   8.699  20.459  0.0110 -0.0276  0.0342
  115BOLB   C4A 2744  12.025   8.343  20.173  0.0023  0.3679  0.2157
  115BOLB   C1B 2745  12.472   9.254  21.112  0.5408 -0.1927 -0.0940
  115BOLB   C2B 2746  12.172   9.349  20.917 -0.0641  0.1805  0.2289
  115BOLB   C3B 2747  11.752   9.152  20.766 -0.0929  0.0188  0.1359
  115BOLB   C4B 2748  11.367   9.032  20.980  0.2110 -0.0236  0.1357
  115BOLB   NC2 2749  10.333   7.907  18.708 -0.0779  0.2823  0.2181
  115BOLB   PO2 2750  10.291   7.462  18.868  0.3664  0.3664 -0.1057
  115BOLB   GL3 2751  10.643   7.628  19.101  0.2609 -0.3076 -0.0924
  115BOLB   GL4 2752  10.861   7.832  18.813  0.2278 -0.0209 -0.2723
  115BOLB   C1C 2753  11.026   7.750  19.379 -0.0892 -0.0939 -0.1356
  115BOLB   C2C 2754  11.311   7.951  19.490 -0.2858  0.1443  0.2040
  115BOLB   C3C 2755  11.610   8.140  19.526  0.1180  0.3932  0.1111
  115BOLB   C4C 2756  11.857   8.225  19.749  0.1105 -0.1664  0.0003
  115BOLB   C1D 2757  11.292   7.955  18.970  0.1865  0.1168  0.0239
  115BOLB   C2D 2758  11.686   7.847  19.105 -0.1115 -0.0986 -0.0268
  115BOLB   C3D 2759  12.010   7.545  19.019 -0.2936 -0.2084  0.1183
  115BOLB   C4D 2760  12.078   7.166  18.898  0.1789  0.0718 -0.3239
  116BOLB   NC1 2761  18.762   6.228  34.540  0.0758 -0.4419  0.0335
  116BOLB   PO1 2762  18.723   5.897  34.865 -0.1216 -0.3468 -0.1411
  116BOLB   GL1 2763  18.986   5.576  34.914 -0.1559  0.1722  0.1234
  116BOLB   GL2 2764  18.789   5.332  34.757  0.0960  0.1374  0.1340
  116BOLB   C1A 2765  19.269   5.196  34.785 -0.3136 -0.4335 -0.1061
  116BOLB   C2A 2766  19.325   4.978  35.110 -0.3546 -0.2235  0.1785
  116BOLB   C3A 2767  19.322   4.660  35.306  0.4993  0.1405  0.1718
  116BOLB   C4A 2768  19.434   4.337  35.617 -0.1435  0.0396 -0.1334
  116BOLB   C1B 2769  18.781   4.951  34.907  0.2237  0.0217 -0.2801
  116BOLB   C2B 2770  18.879   4.558  34.871 -0.0097 -0.2400 -0.0549
  116BOLB   C3B 2771  19.310   4.316  34.941  0.1269 -0.1916  0.2524
  116BOLB   C4B 2772  19.667   4.172  34.977 -0.0311  0.2875  0.1986
  116BOLB   NC2 2773  19.502   2.314  36.953 -0.0536 -0.2726 -0.0490
  116BOLB   PO2 2774  19.770   2.397  36.663 -0.0801 -0.1947 -0.0673
  116BOLB   GL3 2775  20.005   2.711  36.444 -0.3399  0.1932 -0.1216
  116BOLB   GL4 2776  19.894   2.890  36.585  0.0475 -0.0822 -0.1930
  116BOLB   C1C 2777  20.193   3.018  36.143 -0.3009  0.1538  0.0198
  116BOLB   C2C 2778  20.392   3.443  36.055 -0.2699  0.0966 -0.1200
  116BOLB   C3C 2779  20.155   3.798  35.936  0.1202 -0.2609 -0.0185
  116BOLB   C4C 2780  19.791   4.143  35.818 -0.2032  0.3027 -0.3990
  116BOLB   C1D 2781  19.850   3.237  36.425 -0.1417 -0.4595  0.3145
  116BOLB   C2D 2782  19.605   3.654  36.124  0.1048 -0.0308  0.0035
  116BOLB   C3D 2783  19.204   3.815  35.937  0.2269  0.1159 -0.0335
  116BOLB   C4D 2784  18.728   3.853  35.757 -0.1803  0.0750 -0.1380
  117BOLB   NC1 2785  18.457  15.303  15.168  0.1141 -0.1342 -0.0157
  117BOLB   PO1 2786  18.739  14.925  15.104 -0.0412  0.0677 -0.0347
  117BOLB   GL1 2787  18.435  14.783  15.258 -0.3901 -0.2261  0.0197
  117BOLB   GL2 2788  18.550  14.707  15.596 -0.1603 -0.3689 -0.6905
  117BOLB   C1A 2789  18.133  14.492  15.288  0.0523  0.1897 -0.1712
  117BOLB   C2A 2790  17.817  14.268  15.404  0.1396 -0.1718  0.0827
  117BOLB   C3A 2791  17.826  14.104  15.840 -0.1545 -0.0483  0.0852
  117BOLB   C4A 2792  17.785  13.907  16.084  0.0122 -0.1345  0.0642
  117BOLB   C1B 2793  18.676  14.611  15.936 -0.2485  0.0930  0.0488
  117BOLB   C2B 2794  19.090  14.580  16.192  0.3819 -0.1773 -0.1758
  117BOLB   C3B 2795  19.521  14.516  16.079 -0.2498  0.0987  0.2232
  117BOLB   C4B 2796  19.794  14.279  16.008 -0.1725  0.1806 -0.0544
  117BOLB   NC2 2797  15.464  12.977  15.278 -0.0476 -0.4101  0.2397
  117BOLB   PO2 2798  15.822  13.230  15.369 -0.0134  0.1010  0.2416
  117BOLB   GL3 2799  16.160  13.394  15.690  0.0512 -0.1166 -0.3744
  117BOLB   GL4 2800  16.350  13.195  15.597  0.0048  0.4909  0.1807
  117BOLB   C1C 2801  16.302  13.665  16.085  0.0146  0.0657 -0.0482
  117BOLB   C2C 2802  16.678  13.635  16.417  0.1495 -0.0813  0.2842
  117BOLB   C3C 2803  17.163  13.681  16.473 -0.2440 -0.0143  0.0639
  117BOLB   C4C 2804  17.595  13.659  16.331 -0.2198 -0.0829  0.0386
  117BOLB   C1D 2805  16.331  12.935  15.870  0.1204 -0.0850 -0.2088
  117BOLB   C2D 2806  16.393  12.690  16.197  0.5186 -0.0611 -0.0552
  117BOLB   C3D 2807  16.540  12.722  16.646  0.0249 -0.4469 -0.0027
  117BOLB   C4D 2808  16.617  12.433  16.962  0.0308 -0.2297 -0.3154
  118BOLB   NC1 2809  10.587  20.608  30.673  0.1828  0.1759  0.4109
  118BOLB   PO1 2810  10.879  20.560  31.028 -0.2597  0.0876 -0.1167
  118BOLB   GL1 2811  10.594  20.919  31.066 -0.0934  0.2161  0.4330
  118BOLB   GL2 2812  10.337  20.904  30.957  0.2974 -0.0982  0.1660
  118BOLB   C1A 2813  10.770  21.342  31.118 -0.2489  0.3964 -0.0561
  118BOLB   C2A 2814  10.825  21.688  31.391 -0.0220 -0.1071 -0.2639
  118BOLB   C3A 2815  10.632  21.982  31.749  0.0713 -0.1527  0.0973
  118BOLB   C4A 2816  10.475  22.363  31.623  0.0412 -0.0275 -0.0893
  118BOLB   C1B 2817  10.063  21.336  30.913  0.0156  0.1335 -0.0889
  118BOLB   C2B 2818   9.863  21.509  31.210 -0.1362  0.1511 -0.1148
  118BOLB   C3B 2819   9.494  21.778  31.220  0.3403 -0.0316  0.0774
  118BOLB   C4B 2820   9.432  22.061  30.967  0.1763 -0.0009 -0.0976
  118BOLB   NC2 2821   9.494  24.973  31.875  0.2430 -0.2687  0.2100
  118BOLB   PO2 2822   9.608  24.641  32.160  0.2743 -0.3536  0.0762
  118BOLB   GL3 2823   9.569  24.133  32.005  0.2678  0.1101 -0.1173
  118BOLB   GL4 2824   9.808  23.933  31.864  0.0142  0.0456  0.0733
  118BOLB   C1C 2825   9.473  23.621  32.038  0.0518 -0.0353 -0.0247
  118BOLB   C2C 2826   9.680  23.197  32.296  0.0700 -0.0742 -0.1629
  118BOLB   C3C 2827   9.862  22.877  32.118  0.0309  0.1730 -0.1655
  118BOLB   C4C 2828  10.048  22.586  31.710  0.1511 -0.1931  0.1072
  118BOLB   C1D 2829  10.098  23.658  31.597 -0.0009  0.0485  0.0107
  118BOLB   C2D 2830  10.386  23.302  31.509 -0.1527  0.0147  0.0354
  118BOLB   C3D 2831  10.753  23.089  31.369 -0.3863 -0.2810  0.2479
  118BOLB   C4D 2832  10.804  22.657  31.342  0.1121  0.0996  0.0246
  119BOLB   NC1 2833   6.258   4.795  28.532 -0.2044 -0.1478 -0.0526
  119BOLB   PO1 2834   6.495   4.458  28.357  0.3950  0.0416 -0.2932
  119BOLB   GL1 2835   6.827   4.669  28.401 -0.1633  0.3178  0.2275
  119BOLB   GL2 2836   6.646   4.902  28.130 -0.0917  0.0134  0.1401
  119BOLB   C1A 2837   7.192   4.956  28.684 -0.3058  0.3572 -0.2224
  119BOLB   C2A 2838   7.441   4.868  29.110 -0.0686  0.1415 -0.1386
  119BOLB   C3A 2839   7.949   4.976  29.345 -0.1987 -0.0996  0.0965
  119BOLB   C4A 2840   8.345   5.007  29.155  0.0716 -0.1157  0.0198
  119BOLB   C1B 2841   6.955   5.163  28.271  0.0390 -0.0603  0.1122
  119BOLB   C2B 2842   7.037   5.520  28.189  0.1438  0.1026  0.0920
  119BOLB   C3B 2843   7.274   5.860  28.392  0.0407 -0.1706 -0.0817
  119BOLB   C4B 2844   7.620   6.062  28.339 -0.0233  0.0541 -0.0859
  119BOLB   NC2 2845   8.397   3.140  28.308 -0.2120 -0.0453  0.6659
  119BOLB   PO2 2846   8.412   3.002  28.645  0.0406 -0.0129 -0.1953
  119BOLB   GL3 2847   8.665   3.324  28.716  0.2379  0.2622  0.0626
  119BOLB   GL4 2848   8.830   3.364  28.363 -0.0806 -0.0734  0.0826
  119BOLB   C1C 2849   8.806   3.698  28.796  0.1540  0.1387  0.1280
  119BOLB   C2C 2850   8.925   4.035  28.732  0.0595  0.1711  0.3950
  119BOLB   C3C 2851   8.750   4.455  28.784 -0.0165  0.2519  0.0817
  119BOLB   C4C 2852   8.712   4.859  28.885 -0.0210 -0.0101 -0.1186
  119BOLB   C1D 2853   9.178   3.671  28.402 -0.0923  0.0736 -0.1551
  119BOLB   C2D 2854   9.241   4.015  28.277 -0.0128 -0.1879  0.0807
  119BOLB   C3D 2855   9.228   4.447  28.024 -0.2212  0.4111 -0.0554
  119BOLB   C4D 2856   9.393   4.822  27.856  0.0984  0.2044  0.0789
  120BOLB   NC1 2857   8.598  15.673  26.570  0.0316 -0.2725  0.1464
  120BOLB   PO1 2858   8.442  15.449  26.132 -0.3848 -0.1492  0.1901
  120BOLB   GL1 2859   8.362  15.668  25.683  0.1450  0.0585 -0.1517
  120BOLB   GL2 2860   8.234  15.346  25.574  0.0728 -0.2157 -0.0577
  120BOLB   C1A 2861   8.058  16.003  25.410 -0.0572 -0.3626  0.0332
  120BOLB   C2A 2862   7.564  15.938  25.416  0.0444  0.0229 -0.1214
  120BOLB   C3A 2863   7.117  16.146  25.479  0.1579 -0.2578 -0.2149
  120BOLB   C4A 2864   6.737  16.340  25.544 -0.0625 -0.3569 -0.0506
  120BOLB   C1B 2865   7.858  15.427  25.348  0.4066  0.0661 -0.1169
  120BOLB   C2B 2866   7.431  15.597  25.075  0.3273 -0.1146 -0.1409
  120BOLB   C3B 2867   7.077  15.813  24.982 -0.1706 -0.1770 -0.0453
  120BOLB   C4B 2868   6.672  15.926  25.230 -0.1410  0.0702 -0.0929
  120BOLB   NC2 2869   4.488  16.450  25.436 -0.0948 -0.3618  0.1286
  120BOLB   PO2 2870   4.399  16.894  25.234  0.1524 -0.2136 -0.1722
  120BOLB   GL3 2871   4.891  16.705  25.134  0.0472  0.2429  0.1053
  120BOLB   GL4 2872   4.908  16.435  24.976 -0.0765 -0.0348 -0.3652
  120BOLB   C1C 2873   5.286  16.799  25.190  0.2460  0.3969 -0.0586
  120BOLB   C2C 2874   5.695  16.844  25.407  0.2633 -0.1484 -0.0992
  120BOLB   C3C 2875   5.946  16.875  25.691 -0.1912 -0.1412 -0.0810
  120BOLB   C4C 2876   6.325  16.559  25.674 -0.0103  0.0879 -0.3756
  120BOLB   C1D 2877   5.193  16.312  25.249 -0.0301  0.0926 -0.1417
  120BOLB   C2D 2878   5.608  16.310  25.214 -0.0955 -0.0614  0.2159
  120BOLB   C3D 2879   6.064  16.502  25.217 -0.2125 -0.0823 -0.0360
  120BOLB   C4D 2880   6.449  16.437  25.122  0.1664 -0.5140  0.0074
  121BOLB   NC1 2881  10.245  24.217  34.008 -0.1645  0.1036 -0.1414
  121BOLB   PO1 2882  10.597  24.371  33.800 -0.4537  0.0708  0.2530
  121BOLB   GL1 2883  10.778  24.053  33.517  0.3174  0.0355  0.2119
  121BOLB   GL2 2884  10.453  23.799  33.513 -0.0708  0.0705 -0.2571
  121BOLB   C1A 2885  11.059  23.927  33.227  0.0923  0.1346 -0.0258
  121BOLB   C2A 2886  11.266  23.823  32.895  0.1917  0.0250 -0.0386
  121BOLB   C3A 2887  11.459  23.778  32.523  0.0105 -0.1665 -0.0877
  121BOLB   C4A 2888  11.620  23.591  32.185  0.1381 -0.0204 -0.0903
  121BOLB   C1B 2889  10.425  23.298  33.427 -0.0269 -0.0498 -0.1229
  121BOLB   C2B 2890  10.174  22.954  33.478 -0.1776  0.1866 -0.1014
  121BOLB   C3B 2891  10.247  22.650  33.261 -0.2403 -0.0722  0.1093
  121BOLB   C4B 2892  10.484  22.287  33.336  0.1627 -0.0478 -0.0005
  121BOLB   NC2 2893  11.829  25.045  31.789  0.3684  0.1727  0.0442
  121BOLB   PO2 2894  12.007  25.010  32.299 -0.0416 -0.1399 -0.0929
  121BOLB   GL3 2895  12.026  24.660  32.112  0.1073 -0.3841 -0.1966
  121BOLB   GL4 2896  12.330  24.539  32.132 -0.3714 -0.0600  0.1293
  121BOLB   C1C 2897  11.984  24.285  31.902  0.3970 -0.1081  0.1941
  121BOLB   C2C 2898  12.163  23.902  31.637  0.0927  0.4054  0.1174
  121BOLB   C3C 2899  12.114  23.458  31.708  0.2828 -0.1509 -0.0247
  121BOLB   C4C 2900  11.740  23.297  31.872 -0.1372 -0.1145  0.2259
  121BOLB   C1D 2901  12.514  24.113  32.135  0.1011  0.1881  0.3343
  121BOLB   C2D 2902  12.810  23.874  32.336  0.3493 -0.1097 -0.1231
  121BOLB   C3D 2903  13.253  23.724  32.234 -0.0601  0.1675  0.2165
  121BOLB   C4D 2904  13.566  23.468  32.122  0.0034  0.0496  0.0236
  122BOLB   NC1 2905  16.696  20.507  29.801 -0.0336 -0.0109 -0.3875
  122BOLB   PO1 2906  17.075  20.557  29.943  0.2265  0.2547 -0.1069
  122BOLB   GL1 2907  17.196  20.803  29.823 -0.1576  0.1078  0.0418
  122BOLB   GL2 2908  17.544  21.018  29.884 -0.1298  0.1306  0.0950
  122BOLB   C1A 2909  17.176  21.110  29.567 -0.1059 -0.0257  0.0324
  122BOLB   C2A 2910  17.499  21.257  29.213 -0.1124 -0.0032  0.1504
  122BOLB   C3A 2911  17.849  21.530  29.161  0.1851 -0.4822 -0.0427
  122BOLB   C4A 2912  18.010  21.870  28.884  0.1086  0.2107  0.1204
  122BOLB   C1B 2913  17.539  21.468  29.756  0.3204 -0.4982 -0.1648
  122BOLB   C2B 2914  17.564  21.806  29.624  0.3475  0.2306 -0.3542
  122BOLB   C3B 2915  17.863  22.104  29.506  0.2284  0.0152  0.2535
  122BOLB   C4B 2916  17.954  22.465  29.534 -0.1266 -0.1090  0.0516
  122BOLB   NC2 2917  18.355  24.411  27.835 -0.0058  0.1162 -0.1357
  122BOLB   PO2 2918  18.396  24.239  28.367 -0.0217  0.3097  0.2169
  122BOLB   GL3 2919  18.350  23.801  28.370  0.1339  0.1132  0.1197
  122BOLB   GL4 2920  18.171  23.872  28.083 -0.1578 -0.0980 -0.0295
  122BOLB   C1C 2921  18.407  23.335  28.471 -0.0823  0.2680  0.0748
  122BOLB   C2C 2922  18.302  22.775  28.503 -0.2424 -0.1576  0.0227
  122BOLB   C3C 2923  18.081  22.370  28.371 -0.0166 -0.0835  0.0748
  122BOLB   C4C 2924  18.005  22.012  28.488 -0.0670 -0.3732 -0.2593
  122BOLB   C1D 2925  17.887  23.559  28.277  0.2404 -0.0895 -0.2910
  122BOLB   C2D 2926  17.941  23.232  28.520  0.0212 -0.0585 -0.0852
  122BOLB   C3D 2927  17.864  22.886  28.720 -0.1609 -0.0636 -0.0232
  122BOLB   C4D 2928  17.994  22.433  28.865  0.1527  0.1708 -0.0418
  123BOLB   NC1 2929  21.652  13.178  37.281  0.0988  0.0784  0.1303
  123BOLB   PO1 2930  21.528  12.857  37.408  0.1255  0.2244 -0.0768
  123BOLB   GL1 2931  21.943  12.849  37.587  0.1673  0.0985 -0.2200
  123BOLB   GL2 2932  22.147  12.840  37.331  0.1025 -0.3640  0.1427
  123BOLB   C1A 2933  22.368  12.835  37.798  0.3340 -0.0805 -0.5130
  123BOLB   C2A 2934  22.744  12.679  37.854 -0.0013 -0.3547  0.0495
  123BOLB   C3A 2935  22.607  12.238  38.084 -0.0877 -0.1616  0.1703
  123BOLB   C4A 2936  22.854  12.011  38.388 -0.0083 -0.3323 -0.1664
  123BOLB   C1B 2937  22.333  13.242  37.505  0.1311  0.0615 -0.0555
  123BOLB   C2B 2938  22.437  13.408  37.839  0.0919 -0.2998  0.0075
  123BOLB   C3B 2939  22.670  13.589  38.135 -0.1449  0.2293  0.1747
  123BOLB   C4B 2940  22.742  13.840  38.582  0.1720 -0.0951  0.0491
  123BOLB   NC2 2941  25.145  12.835  39.577 -0.3100 -0.1131  0.0537
  123BOLB   PO2 2942  25.022  12.569  39.863  0.2304  0.2027 -0.3036
  123BOLB   GL3 2943  24.754  12.601  39.439  0.2824  0.0117 -0.1002
  123BOLB   GL4 2944  24.696  12.290  39.384 -0.0062  0.1174 -0.2377
  123BOLB   C1C 2945  24.315  12.554  39.151 -0.0850  0.1096  0.0754
  123BOLB   C2C 2946  23.931  12.299  38.937  0.1403 -0.3101 -0.2762
  123BOLB   C3C 2947  23.490  12.234  38.831 -0.0207  0.0446  0.1563
  123BOLB   C4C 2948  23.124  12.027  38.724  0.1217  0.1627 -0.2911
  123BOLB   C1D 2949  24.456  12.117  39.004 -0.1590  0.1464  0.2667
  123BOLB   C2D 2950  24.424  11.761  38.726  0.0256 -0.2260 -0.0352
  123BOLB   C3D 2951  24.688  11.458  38.519 -0.2260  0.2351 -0.1631
  123BOLB   C4D 2952  25.049  11.118  38.483  0.1435  0.2732  0.0428
  124BOLB   NC1 2953  13.808  16.481  38.378 -0.2512  0.1542 -0.2138
  124BOLB   PO1 2954  14.333  16.530  38.589 -0.2396 -0.1321 -0.2806
  124BOLB   GL1 2955  14.190  16.820  38.873  0.4078 -0.3050  0.2624
  124BOLB   GL2 2956  14.451  17.122  38.990  0.2076  0.1409 -0.3077
  124BOLB   C1A 2957  13.871  17.100  39.267  0.0259  0.0758  0.0760
  124BOLB   C2A 2958  13.510  17.238  39.420  0.1707 -0.1695 -0.2053
  124BOLB   C3A 2959  13.294  17.464  39.740 -0.0613 -0.0758 -0.3353
  124BOLB   C4A 2960  13.088  17.632  39.751 -0.4065  0.0396  0.2202
  124BOLB   C1B 2961  14.346  17.386  39.225 -0.1516 -0.0510 -0.1945
  124BOLB   C2B 2962  14.093  17.692  39.364 -0.3043  0.2524 -0.0362
  124BOLB   C3B 2963  13.668  17.822  39.608 -0.1177  0.0324 -0.1713
  124BOLB   C4B 2964  13.321  17.993  39.413  0.1744  0.1779  0.0101
  124BOLB   NC2 2965  12.562  19.296  41.293  0.0628 -0.1230 -0.0365
  124BOLB   PO2 2966  12.919  19.325  41.085  0.2597  0.1156  0.0407
  124BOLB   GL3 2967  13.044  19.194  40.677  0.0365  0.1963 -0.1595
  124BOLB   GL4 2968  13.363  19.295  40.520  0.4068  0.0222 -0.0192
  124BOLB   C1C 2969  12.687  19.054  40.448 -0.0896 -0.1786  0.1302
  124BOLB   C2C 2970  12.630  18.631  40.283 -0.0548 -0.1506  0.1909
  124BOLB   C3C 2971  12.764  18.276  40.112  0.0833  0.1356 -0.2324
  124BOLB   C4C 2972  12.849  17.964  39.818 -0.1398  0.0242 -0.1111
  124BOLB   C1D 2973  13.281  18.926  40.306  0.2052 -0.0925 -0.0569
  124BOLB   C2D 2974  13.335  18.832  39.849  0.0360  0.3089 -0.1129
  124BOLB   C3D 2975  13.520  18.821  39.431  0.1403  0.0993 -0.2002
  124BOLB   C4D 2976  13.996  18.890  39.284 -0.1957  0.0131  0.1733
  125BOLB   NC1 2977  14.581   8.817  39.156 -0.2719  0.0539  0.4281
  125BOLB   PO1 2978  14.606   8.357  39.068 -0.1327  0.1026 -0.0766
  125BOLB   GL1 2979  14.794   8.298  39.302  0.3823  0.1395  0.3582
  125BOLB   GL2 2980  15.089   8.228  39.139  0.0188  0.1726  0.0790
  125BOLB   C1A 2981  14.846   8.286  39.811  0.1446 -0.4926  0.1905
  125BOLB   C2A 2982  14.724   8.235  40.209 -0.1473 -0.0760  0.0751
  125BOLB   C3A 2983  14.807   8.253  40.632 -0.0369 -0.1328  0.2444
  125BOLB   C4A 2984  14.694   8.314  41.092 -0.3060  0.2631 -0.2725
  125BOLB   C1B 2985  15.192   7.921  39.504  0.0687  0.1633 -0.1408
  125BOLB   C2B 2986  15.318   7.708  39.809 -0.3156  0.2384 -0.2742
  125BOLB   C3B 2987  15.236   7.348  39.978 -0.1796 -0.3587 -0.2301
  125BOLB   C4B 2988  14.956   6.809  39.985 -0.0417  0.0330  0.0545
  125BOLB   NC2 2989  14.511   7.406  43.156 -0.0437 -0.0490  0.0024
  125BOLB   PO2 2990  14.116   7.609  43.043  0.0422  0.0956 -0.2474
  125BOLB   GL3 2991  14.152   8.131  42.753  0.3857 -0.1059  0.0104
  125BOLB   GL4 2992  13.910   8.334  42.639  0.0497 -0.2110 -0.0062
  125BOLB   C1C 2993  14.400   8.373  42.406  0.4389 -0.0021  0.1237
  125BOLB   C2C 2994  14.721   8.431  42.158 -0.0251  0.2463 -0.3949
  125BOLB   C3C 2995  14.933   8.584  41.846 -0.1728  0.3417  0.0736
  125BOLB   C4C 2996  14.869   8.661  41.355 -0.0152  0.0147 -0.3608
  125BOLB   C1D 2997  13.928   8.700  42.302  0.2569  0.0427  0.0102
  125BOLB   C2D 2998  14.070   9.046  41.950  0.2168 -0.1146  0.1318
  125BOLB   C3D 2999  14.105   9.327  41.590  0.0196 -0.0177 -0.1365
  125BOLB   C4D 3000  13.899   9.792  41.455 -0.0632  0.0880 -0.0780
  126BOLB   NC1 3001  16.673   8.328  38.526  0.3798  0.1875  0.4029
  126BOLB   PO1 3002  16.632   8.571  38.879  0.0071 -0.3152  0.1455
  126BOLB   GL1 3003  16.772   8.166  39.030  0.0324 -0.1256  0.2041
  126BOLB   GL2 3004  16.786   7.808  38.839 -0.1757  0.0490  0.0624
  126BOLB   C1A 3005  16.624   7.815  39.366  0.1435 -0.0498 -0.1991
  126BOLB   C2A 3006  16.593   7.739  39.840  0.0044  0.3576  0.0215
  126BOLB   C3A 3007  16.561   7.521  40.189 -0.0397 -0.0739  0.0986
  126BOLB   C4A 3008  16.447   7.174  40.488 -0.1310 -0.2666  0.0775
  126BOLB   C1B 3009  17.001   7.450  39.142  0.2394 -0.3354  0.0580
  126BOLB   C2B 3010  17.145   7.130  39.307 -0.0796 -0.0285 -0.0161
  126BOLB   C3B 3011  17.360   6.782  39.587  0.0891  0.0941 -0.0836
  126BOLB   C4B 3012  17.737   6.579  39.864 -0.0893 -0.1862 -0.2283
  126BOLB   NC2 3013  16.438   6.721  42.645 -0.1728 -0.0212 -0.0873
  126BOLB   PO2 3014  16.042   6.890  42.545  0.0825  0.2195 -0.2369
  126BOLB   GL3 3015  16.160   6.957  42.071 -0.0265 -0.1219  0.0081
  126BOLB   GL4 3016  15.843   7.058  41.998  0.0469  0.1297 -0.0566
  126BOLB   C1C 3017  16.242   6.746  41.654 -0.1317  0.2740  0.0309
  126BOLB   C2C 3018  16.343   6.485  41.341 -0.0129 -0.3640 -0.1572
  126BOLB   C3C 3019  16.558   6.633  41.068 -0.1571  0.3270  0.0442
  126BOLB   C4C 3020  16.647   6.951  40.697 -0.0609  0.0636 -0.1558
  126BOLB   C1D 3021  16.113   7.335  41.758 -0.0739  0.2007 -0.2321
  126BOLB   C2D 3022  16.238   7.145  41.359  0.0898  0.0815  0.0309
  126BOLB   C3D 3023  16.129   6.855  41.058  0.0246  0.4924  0.0876
  126BOLB   C4D 3024  16.069   6.347  40.959  0.1876  0.3597  0.1960
  127BOLB   NC1 3025  19.240   4.443  29.351  0.1354 -0.2615  0.1027
  127BOLB   PO1 3026  19.535   4.449  29.572 -0.0355  0.0719  0.2329
  127BOLB   GL1 3027  19.642   4.123  29.906  0.1824  0.1120  0.2665
  127BOLB   GL2 3028  19.759   3.854  29.694 -0.1737 -0.0223 -0.1232
  127BOLB   C1A 3029  19.793   3.866  30.349  0.1726  0.0031  0.0376
  127BOLB   C2A 3030  19.715   3.465  30.656  0.0588  0.4342  0.0349
  127BOLB   C3A 3031  19.628   3.358  31.063 -0.4761  0.2262  0.1541
  127BOLB   C4A 3032  19.613   2.964  31.235 -0.2032  0.1348  0.0562
  127BOLB   C1B 3033  20.018   3.621  29.869 -0.2258  0.0012 -0.0619
  127BOLB   C2B 3034  20.443   3.514  29.957  0.0019  0.3394 -0.0804
  127BOLB   C3B 3035  20.563   3.082  30.059  0.0107 -0.0598 -0.0290
  127BOLB   C4B 3036  20.846   2.939  30.280  0.3362 -0.0214  0.0326
  127BOLB   NC2 3037  18.244   4.260  31.180 -0.0705  0.3342  0.0759
  127BOLB   PO2 3038  18.290   4.284  30.791 -0.2581  0.0746 -0.1821
  127BOLB   GL3 3039  18.222   3.921  30.817 -0.0285  0.0166 -0.1835
  127BOLB   GL4 3040  18.456   3.834  31.043  0.0477 -0.1370 -0.0733
  127BOLB   C1C 3041  18.227   3.543  30.725  0.2414 -0.3402 -0.2707
  127BOLB   C2C 3042  18.383   3.218  30.927  0.0212  0.0392  0.0027
  127BOLB   C3C 3043  18.824   3.048  31.080 -0.2209  0.0270 -0.3817
  127BOLB   C4C 3044  19.132   2.762  31.272 -0.2254  0.3785  0.1129
  127BOLB   C1D 3045  18.899   3.747  31.258  0.0738 -0.2009  0.3186
  127BOLB   C2D 3046  18.962   3.700  31.669  0.2624  0.2561 -0.0564
  127BOLB   C3D 3047  19.057   3.421  32.037 -0.2884 -0.2944 -0.3066
  127BOLB   C4D 3048  19.318   3.364  32.373  0.0298 -0.1463 -0.0194
  128BOLB   NC1 3049  17.481  26.996  29.701  0.3186 -0.2316  0.0321
  128BOLB   PO1 3050  17.043  27.033  29.462 -0.0449 -0.1327 -0.0634
  128BOLB   GL1 3051  16.868   0.357  29.369 -0.1202 -0.1073  0.0025
  128BOLB   GL2 3052  16.539   0.164  29.360  0.0169  0.0354  0.1379
  128BOLB   C1A 3053  16.843   0.724  29.270  0.0205 -0.0214 -0.0398
  128BOLB   C2A 3054  16.735   1.204  29.157 -0.0173  0.1869 -0.0132
  128BOLB   C3A 3055  16.855   1.619  29.136  0.0402 -0.1684 -0.0399
  128BOLB   C4A 3056  17.181   1.867  29.297 -0.0258  0.1540  0.1082
  128BOLB   C1B 3057  16.326   0.503  29.459  0.0668 -0.0431 -0.0675
  128BOLB   C2B 3058  16.316   0.938  29.404  0.0408  0.0250  0.2824
  128BOLB   C3B 3059  16.233   1.298  29.700 -0.0500  0.0411 -0.0746
  128BOLB   C4B 3060  16.291   1.690  29.719 -0.2894 -0.4361  0.2682
  128BOLB   NC2 3061  18.146   3.974  28.263  0.1646 -0.0234  0.1763
  128BOLB   PO2 3062  18.014   3.656  28.660 -0.0763  0.1737  0.1063
  128BOLB   GL3 3063  18.115   3.261  28.522  0.0619 -0.0943 -0.3145
  128BOLB   GL4 3064  18.373   3.211  28.361 -0.0416 -0.2211  0.0869
  128BOLB   C1C 3065  18.079   2.951  28.877 -0.2675 -0.2217 -0.1822
  128BOLB   C2C 3066  18.035   2.633  29.177  0.3842  0.0990 -0.2634
  128BOLB   C3C 3067  17.836   2.213  29.334 -0.2276  0.1687 -0.0457
  128BOLB   C4C 3068  17.601   2.026  29.207  0.1559 -0.0195  0.0877
  128BOLB   C1D 3069  18.273   2.813  28.251  0.1128  0.2207 -0.1170
  128BOLB   C2D 3070  18.052   2.400  28.127 -0.0481  0.0176 -0.0405
  128BOLB   C3D 3071  17.794   2.150  27.953 -0.1689 -0.0217  0.0777
  128BOLB   C4D 3072  17.812   1.794  27.726 -0.2188  0.2013  0.0592
  129BOLB   NC1 3073  12.027  21.079  31.337  0.2439  0.1127 -0.1176
  129BOLB   PO1 3074  11.757  21.048  30.938 -0.2210 -0.0492  0.1456
  129BOLB   GL1 3075  11.904  21.412  30.958 -0.1295  0.2383  0.2663
  129BOLB   GL2 3076  12.163  21.613  30.910  0.2254  0.1344  0.0528
  129BOLB   C1A 3077  11.634  21.740  30.921 -0.0266  0.2474 -0.1635
  129BOLB   C2A 3078  11.578  22.115  30.752  0.1032  0.1144  0.0702
  129BOLB   C3A 3079  11.503  22.513  30.664  0.2732  0.1499  0.2743
  129BOLB   C4A 3080  11.681  22.872  30.543 -0.1033  0.0967  0.1335
  129BOLB   C1B 3081  12.022  22.040  30.946  0.1029  0.2746  0.0904
  129BOLB   C2B 3082  11.818  22.159  31.299  0.1250 -0.0173  0.0048
  129BOLB   C3B 3083  11.743  22.416  31.575  0.2217  0.0816 -0.5206
  129BOLB   C4B 3084  11.714  22.811  31.658  0.2309  0.0095  0.1290
  129BOLB   NC2 3085  12.560  25.012  32.124 -0.0447 -0.1934  0.0818
  129BOLB   PO2 3086  12.366  24.903  31.774 -0.0033  0.1693  0.1297
  129BOLB   GL3 3087  12.116  24.651  31.631  0.1411  0.0233  0.0281
  129BOLB   GL4 3088  12.402  24.435  31.466  0.3967  0.0649  0.1471
  129BOLB   C1C 3089  11.935  24.250  31.387 -0.1177 -0.0497  0.0768
  129BOLB   C2C 3090  11.947  23.799  31.138  0.3273 -0.0600  0.2273
  129BOLB   C3C 3091  11.725  23.601  30.790  0.1893 -0.1613  0.0157
  129BOLB   C4C 3092  11.697  23.318  30.442 -0.5892  0.0074  0.1191
  129BOLB   C1D 3093  12.677  24.151  31.610 -0.2412  0.0797 -0.0554
  129BOLB   C2D 3094  12.732  23.737  31.814 -0.1223  0.0531 -0.0445
  129BOLB   C3D 3095  12.954  23.359  31.712 -0.0107 -0.0941 -0.0034
  129BOLB   C4D 3096  13.042  22.896  31.508  0.0333  0.0102  0.0396
  130BOLB   NC1 3097  14.741   4.693  30.262 -0.1382  0.1459  0.0842
  130BOLB   PO1 3098  15.079   4.513  29.853  0.3724  0.4870  0.0740
  130BOLB   GL1 3099  15.009   4.194  29.781 -0.0959  0.1058  0.1330
  130BOLB   GL2 3100  15.010   3.967  29.477 -0.1646 -0.0953 -0.0611
  130BOLB   C1A 3101  15.159   3.794  29.948  0.2788 -0.1966 -0.0463
  130BOLB   C2A 3102  15.057   3.342  29.909 -0.0772 -0.0418 -0.2563
  130BOLB   C3A 3103  14.977   2.916  30.004  0.0067 -0.0463  0.0500
  130BOLB   C4A 3104  14.677   2.593  29.769 -0.2146  0.0855 -0.0397
  130BOLB   C1B 3105  15.074   3.494  29.405  0.0877 -0.3834 -0.2091
  130BOLB   C2B 3106  15.080   3.062  29.506  0.2356 -0.1644  0.3203
  130BOLB   C3B 3107  14.919   2.724  29.251  0.0926 -0.0823 -0.1550
  130BOLB   C4B 3108  15.041   2.487  29.021 -0.2101 -0.0185 -0.2642
  130BOLB   NC2 3109  13.973   0.021  28.912 -0.1203  0.2586  0.1397
  130BOLB   PO2 3110  13.807   0.335  28.793  0.0582 -0.2687  0.2364
  130BOLB   GL3 3111  14.004   0.597  28.873 -0.5110  0.0972 -0.1700
  130BOLB   GL4 3112  14.045   0.817  28.741 -0.0865  0.1413  0.1794
  130BOLB   C1C 3113  13.983   1.032  29.181  0.0826 -0.1912 -0.1484
  130BOLB   C2C 3114  14.132   1.517  29.210 -0.0118 -0.1003  0.2226
  130BOLB   C3C 3115  14.241   1.776  29.584 -0.1928  0.2645  0.1213
  130BOLB   C4C 3116  14.513   2.156  29.691  0.0504  0.0496 -0.2205
  130BOLB   C1D 3117  14.150   1.276  28.732  0.1870  0.1507  0.1125
  130BOLB   C2D 3118  14.333   1.728  28.816  0.3835 -0.0275  0.2552
  130BOLB   C3D 3119  14.646   1.988  29.053 -0.0074 -0.2102 -0.0345
  130BOLB   C4D 3120  15.004   1.900  29.009 -0.0780 -0.1384 -0.1535
  131BOLB   NC1 3121  10.884   9.287  37.095 -0.0623 -0.1824  0.0568
  131BOLB   PO1 3122  10.819   8.931  37.132 -0.2485 -0.1238  0.2357
  131BOLB   GL1 3123  10.473   9.019  37.359  0.0701 -0.0500 -0.3609
  131BOLB   GL2 3124  10.444   9.246  37.571  0.2081  0.1880 -0.0742
  131BOLB   C1A 3125  10.048   8.944  37.384 -0.3085  0.0635  0.1610
  131BOLB   C2A 3126   9.829   8.574  37.499  0.3338  0.1955  0.1188
  131BOLB   C3A 3127   9.520   8.289  37.466 -0.1256  0.5389  0.3012
  131BOLB   C4A 3128   9.102   8.032  37.554  0.1493 -0.3348 -0.0884
  131BOLB   C1B 3129  10.197   9.130  37.891  0.1117 -0.1330  0.2636
  131BOLB   C2B 3130   9.864   8.859  37.914 -0.1385 -0.3213  0.0977
  131BOLB   C3B 3131   9.865   8.482  38.022 -0.2275  0.0619  0.4555
  131BOLB   C4B 3132   9.778   8.163  38.215  0.2258  0.3178 -0.0455
  131BOLB   NC2 3133   8.223   7.432  39.768  0.1841 -0.0507 -0.0607
  131BOLB   PO2 3134   8.688   7.271  39.775 -0.1007 -0.1632  0.1045
  131BOLB   GL3 3135   9.013   7.421  39.522  0.4999 -0.0489  0.0559
  131BOLB   GL4 3136   9.207   7.502  39.654 -0.0286 -0.0259 -0.1771
  131BOLB   C1C 3137   9.058   7.512  39.146  0.1555  0.1171 -0.0460
  131BOLB   C2C 3138   9.054   7.700  38.779 -0.2411  0.0885  0.1966
  131BOLB   C3C 3139   8.853   7.702  38.279  0.1229  0.1679 -0.0864
  131BOLB   C4C 3140   9.025   7.863  37.972  0.0154 -0.2158 -0.2237
  131BOLB   C1D 3141   9.559   7.571  39.344  0.3069  0.0765  0.2433
  131BOLB   C2D 3142   9.709   7.854  39.036 -0.3879 -0.2213  0.0587
  131BOLB   C3D 3143   9.845   8.176  38.725  0.2669  0.3721 -0.5261
  131BOLB   C4D 3144  10.069   8.515  38.627 -0.0277  0.2070 -0.1325
  132BOLB   NC1 3145  20.751   4.038  39.539  0.0420 -0.1224  0.0338
  132BOLB   PO1 3146  21.060   4.308  39.378 -0.0214  0.2048  0.1741
  132BOLB   GL1 3147  20.850   4.597  39.360 -0.1401 -0.0001 -0.1660
  132BOLB   GL2 3148  20.870   4.687  39.037  0.1812 -0.1414  0.3107
  132BOLB   C1A 3149  20.527   4.883  39.329 -0.1615  0.2062 -0.2143
  132BOLB   C2A 3150  20.417   5.238  39.159  0.1442 -0.4620  0.1629
  132BOLB   C3A 3151  20.350   5.528  38.774 -0.2293  0.0491 -0.0616
  132BOLB   C4A 3152  20.143   5.810  38.586  0.1267  0.2656  0.1279
  132BOLB   C1B 3153  20.819   5.084  38.882  0.0925 -0.0902  0.0097
  132BOLB   C2B 3154  20.831   5.360  38.644 -0.1348 -0.0800 -0.0885
  132BOLB   C3B 3155  20.827   5.745  38.630 -0.1259 -0.0326  0.0366
  132BOLB   C4B 3156  20.920   5.958  38.325 -0.1434  0.2054 -0.2694
  132BOLB   NC2 3157  21.991   6.108  40.230  0.0253 -0.1372 -0.0411
  132BOLB   PO2 3158  21.528   5.893  40.311 -0.2213 -0.4315 -0.2031
  132BOLB   GL3 3159  21.072   5.907  40.170 -0.0842  0.3061 -0.2625
  132BOLB   GL4 3160  20.742   5.767  40.190  0.3331  0.0936  0.2885
  132BOLB   C1C 3161  20.834   6.155  39.904 -0.1721  0.0336 -0.1566
  132BOLB   C2C 3162  20.519   6.073  39.495 -0.1062  0.3101  0.3096
  132BOLB   C3C 3163  20.173   6.212  39.189  0.0186  0.1770 -0.0344
  132BOLB   C4C 3164  20.081   6.158  38.726 -0.2134 -0.0567  0.0854
  132BOLB   C1D 3165  20.446   5.880  40.058  0.1318  0.0621  0.0571
  132BOLB   C2D 3166  20.110   6.105  39.836  0.1145  0.3253  0.0745
  132BOLB   C3D 3167  19.761   6.377  39.735  0.0720  0.2436 -0.3076
  132BOLB   C4D 3168  19.406   6.513  39.692  0.0330 -0.2009 -0.0684
  133BOLB   NC1 3169  23.115  14.347  32.354 -0.1991  0.2150 -0.3066
  133BOLB   PO1 3170  22.768  14.583  32.072  0.0491  0.3088  0.4515
  133BOLB   GL1 3171  23.111  14.828  32.105  0.1244 -0.1238  0.3222
  133BOLB   GL2 3172  23.163  14.947  31.870  0.1077  0.0064 -0.0570
  133BOLB   C1A 3173  23.510  14.918  32.178  0.0564  0.0525  0.2269
  133BOLB   C2A 3174  23.884  15.076  32.037 -0.1824 -0.1402 -0.0359
  133BOLB   C3A 3175  24.213  15.359  32.107 -0.3080  0.3930  0.2585
  133BOLB   C4A 3176  24.655  15.417  31.970 -0.0190 -0.1929 -0.1935
  133BOLB   C1B 3177  23.583  15.254  31.721  0.2598 -0.1280  0.0125
  133BOLB   C2B 3178  24.029  15.439  31.626 -0.1507 -0.4653  0.0273
  133BOLB   C3B 3179  24.378  15.669  31.626 -0.8042  0.0640  0.0709
  133BOLB   C4B 3180  24.618  15.980  31.687  0.3673 -0.2592  0.0699
  133BOLB   NC2 3181  26.833  16.102  32.448  0.1968  0.0880 -0.1471
  133BOLB   PO2 3182  26.654  16.417  32.636 -0.2837 -0.1102  0.0223
  133BOLB   GL3 3183  26.260  16.103  32.527  0.1387  0.3873 -0.0356
  133BOLB   GL4 3184  25.969  16.272  32.286 -0.0816 -0.0139  0.1601
  133BOLB   C1C 3185  25.859  15.928  32.717  0.1013 -0.1636 -0.1081
  133BOLB   C2C 3186  25.481  15.719  32.612 -0.2314 -0.0382 -0.1216
  133BOLB   C3C 3187  25.268  15.819  32.283  0.0920  0.0003 -0.1308
  133BOLB   C4C 3188  24.930  15.671  32.185 -0.3835 -0.2149  0.0077
  133BOLB   C1D 3189  25.810  15.820  32.227  0.3939 -0.0905 -0.1442
  133BOLB   C2D 3190  25.757  15.366  32.214 -0.0137 -0.1075 -0.0073
  133BOLB   C3D 3191  25.341  15.317  32.243  0.0163 -0.1292  0.2236
  133BOLB   C4D 3192  25.034  15.329  32.642 -0.2345 -0.1811  0.0091
  134BOLB   NC1 3193  11.348  16.644  23.047 -0.0864  0.1692  0.0776
  134BOLB   PO1 3194  11.415  16.979  22.655 -0.0406 -0.1534  0.2435
  134BOLB   GL1 3195  11.221  17.360  22.546  0.1423 -0.0150  0.0875
  134BOLB   GL2 3196  11.123  17.592  22.642 -0.2615 -0.1859 -0.2946
  134BOLB   C1A 3197  11.099  17.591  22.101 -0.1164  0.1193  0.4658
  134BOLB   C2A 3198  10.979  17.794  21.679 -0.0529 -0.0033 -0.4042
  134BOLB   C3A 3199  10.985  17.645  21.313 -0.1065  0.2890  0.0971
  134BOLB   C4A 3200  11.278  17.620  20.911  0.2054 -0.0185 -0.0968
  134BOLB   C1B 3201  11.181  18.016  22.418  0.3258  0.2673  0.2850
  134BOLB   C2B 3202  11.435  18.325  22.205 -0.0943  0.1740 -0.3381
  134BOLB   C3B 3203  11.486  18.469  21.885 -0.3762 -0.1812 -0.0095
  134BOLB   C4B 3204  11.323  18.598  21.452  0.0574  0.2040  0.1197
  134BOLB   NC2 3205  10.922  18.591  18.379  0.0768  0.0887 -0.0472
  134BOLB   PO2 3206  11.258  18.583  18.388  0.2390 -0.1485 -0.0056
  134BOLB   GL3 3207  11.190  18.492  18.905  0.1869  0.2998  0.0552
  134BOLB   GL4 3208  11.354  18.731  19.014  0.1086 -0.2207 -0.2762
  134BOLB   C1C 3209  11.280  18.387  19.368  0.0773 -0.0281  0.0104
  134BOLB   C2C 3210  11.303  18.131  19.714 -0.0423 -0.3054  0.1059
  134BOLB   C3C 3211  11.254  17.965  20.105 -0.2317  0.0706  0.0169
  134BOLB   C4C 3212  11.250  17.802  20.516  0.0946  0.1456  0.2302
  134BOLB   C1D 3213  11.768  18.491  19.192 -0.0977 -0.0713 -0.1858
  134BOLB   C2D 3214  12.138  18.268  19.398  0.1511  0.1323  0.0723
  134BOLB   C3D 3215  12.507  18.084  19.640 -0.0108  0.1809 -0.0590
  134BOLB   C4D 3216  12.841  18.001  19.893 -0.1416 -0.2377 -0.3392
  135BOLB   NC1 3217  14.479   5.433  25.694 -0.0665  0.1121 -0.0736
  135BOLB   PO1 3218  14.084   5.394  25.956 -0.1479  0.2715 -0.1663
  135BOLB   GL1 3219  14.036   5.088  25.594  0.2987 -0.1236  0.1133
  135BOLB   GL2 3220  13.752   4.804  25.536 -0.1011  0.1589 -0.0568
  135BOLB   C1A 3221  14.185   4.632  25.388  0.0953 -0.3523 -0.0808
  135BOLB   C2A 3222  13.951   4.535  25.051  0.1047 -0.1825  0.0554
  135BOLB   C3A 3223  14.022   4.470  24.611 -0.0392  0.3028  0.4157
  135BOLB   C4A 3224  14.158   4.103  24.355  0.1809 -0.2995  0.0444
  135BOLB   C1B 3225  13.394   4.429  25.425  0.2547  0.0039 -0.0420
  135BOLB   C2B 3226  13.200   4.161  25.167 -0.1363 -0.0836 -0.1926
  135BOLB   C3B 3227  12.872   3.841  25.175 -0.2823  0.0519 -0.2614
  135BOLB   C4B 3228  12.515   3.736  25.400  0.2103  0.1627 -0.4064
  135BOLB   NC2 3229  13.195   1.516  24.528 -0.0093  0.0746 -0.2623
  135BOLB   PO2 3230  13.656   1.465  24.381 -0.0786  0.0081  0.0063
  135BOLB   GL3 3231  13.604   1.791  24.660 -0.2879 -0.0835  0.3232
  135BOLB   GL4 3232  13.309   1.927  24.878 -0.1245  0.1702  0.0989
  135BOLB   C1C 3233  13.661   2.291  24.542  0.1463  0.0111 -0.0140
  135BOLB   C2C 3234  13.733   2.784  24.595  0.0819 -0.1025  0.0467
  135BOLB   C3C 3235  13.855   3.187  24.502 -0.0280  0.1388  0.1134
  135BOLB   C4C 3236  13.894   3.671  24.286 -0.0670  0.1253  0.0539
  135BOLB   C1D 3237  13.442   2.391  25.058  0.2038 -0.4327 -0.2148
  135BOLB   C2D 3238  13.629   2.671  25.067 -0.0095  0.0695  0.1078
  135BOLB   C3D 3239  13.589   3.102  24.981  0.1282  0.0903  0.1326
  135BOLB   C4D 3240  13.604   3.576  24.747  0.1484 -0.3232 -0.2385
  136BOLB   NC1 3241   8.624  23.346  27.015  0.2174  0.0213  0.1448
  136BOLB   PO1 3242   8.469  23.421  27.473 -0.0619  0.2316 -0.2283
  136BOLB   GL1 3243   8.558  23.119  27.586  0.0997 -0.2636 -0.0807
  136BOLB   GL2 3244   8.634  22.948  27.302 -0.0400  0.1607  0.0691
  136BOLB   C1A 3245   8.731  22.849  27.854  0.0243 -0.0545 -0.2157
  136BOLB   C2A 3246   9.161  22.598  27.872 -0.2707 -0.0408 -0.0621
  136BOLB   C3A 3247   9.455  22.248  27.745 -0.0179  0.2775 -0.3089
  136BOLB   C4A 3248   9.592  21.885  27.751  0.1818  0.2299  0.1378
  136BOLB   C1B 3249   9.052  22.877  27.356  0.0309 -0.0784  0.1758
  136BOLB   C2B 3250   9.465  22.915  27.157 -0.1362 -0.2808  0.1521
  136BOLB   C3B 3251   9.901  22.931  27.180 -0.2700  0.3662 -0.0558
  136BOLB   C4B 3252  10.126  22.630  27.342 -0.3680 -0.0062 -0.2123
  136BOLB   NC2 3253  10.854  20.105  28.183 -0.0941 -0.0981  0.1068
  136BOLB   PO2 3254  10.507  19.933  28.371 -0.1685 -0.1704 -0.1539
  136BOLB   GL3 3255  10.574  20.345  28.558  0.0208 -0.2853  0.4220
  136BOLB   GL4 3256  10.620  20.604  28.282  0.3438 -0.0705  0.0175
  136BOLB   C1C 3257  10.273  20.644  28.584  0.2064  0.1580 -0.2262
  136BOLB   C2C 3258  10.096  20.977  28.627 -0.2168  0.0757  0.1664
  136BOLB   C3C 3259   9.890  21.184  28.210  0.0163 -0.1861  0.0424
  136BOLB   C4C 3260   9.726  21.566  27.975  0.1920  0.0641  0.4063
  136BOLB   C1D 3261  10.466  20.963  28.170  0.0067  0.3304 -0.3266
  136BOLB   C2D 3262  10.392  21.349  28.041 -0.0260 -0.0681 -0.0555
  136BOLB   C3D 3263  10.256  21.764  27.885  0.0969 -0.0729  0.1546
  136BOLB   C4D 3264  10.003  22.131  27.630  0.3666 -0.1290  0.1698
  137BOLB   NC1 3265  12.547  11.184  38.289  0.1939  0.2846  0.0039
  137BOLB   PO1 3266  12.395  10.917  38.682  0.1232  0.0064 -0.0107
  137BOLB   GL1 3267  12.139  10.702  39.127 -0.0555 -0.1233  0.0006
  137BOLB   GL2 3268  12.030  10.931  39.410  0.0894  0.1656 -0.1394
  137BOLB   C1A 3269  12.077  10.374  39.404 -0.0329 -0.0875 -0.0733
  137BOLB   C2A 3270  12.108  10.221  39.809  0.4197  0.3638  0.0293
  137BOLB   C3A 3271  12.019  10.155  40.234  0.3253  0.1171  0.3161
  137BOLB   C4A 3272  11.837  10.404  40.596 -0.1133  0.2991 -0.1549
  137BOLB   C1B 3273  11.771  10.647  39.691 -0.1127 -0.0794  0.4344
  137BOLB   C2B 3274  11.609  10.581  40.090 -0.1830  0.1098  0.0793
  137BOLB   C3B 3275  11.362  10.236  40.332 -0.2338 -0.1139 -0.2358
  137BOLB   C4B 3276  11.060   9.878  40.419 -0.1681  0.1517 -0.0737
  137BOLB   NC2 3277  11.452  10.531  43.063  0.2085  0.3729  0.1452
  137BOLB   PO2 3278  11.228  10.757  42.957  0.0845  0.2714 -0.2769
  137BOLB   GL3 3279  11.557  10.924  42.672  0.1352 -0.1663  0.0517
  137BOLB   GL4 3280  11.883  10.822  42.786  0.1105 -0.3770 -0.1777
  137BOLB   C1C 3281  11.494  10.859  42.166  0.0686  0.0025 -0.1368
  137BOLB   C2C 3282  11.624  10.764  41.789  0.1315  0.1845  0.1050
  137BOLB   C3C 3283  11.879  10.639  41.375 -0.1500 -0.2095 -0.1777
  137BOLB   C4C 3284  12.074  10.512  41.028 -0.0351 -0.0199 -0.1743
  137BOLB   C1D 3285  11.940  10.785  42.318  0.0936 -0.1898  0.0284
  137BOLB   C2D 3286  12.203  10.699  41.889 -0.1480 -0.0371  0.0457
  137BOLB   C3D 3287  12.346  10.584  41.532 -0.2789 -0.1190  0.2308
  137BOLB   C4D 3288  12.595  10.416  41.185  0.1101 -0.0498  0.2178
  138BOLB   NC1 3289  22.468  11.070  36.271  0.0293 -0.2374  0.0155
  138BOLB   PO1 3290  22.226  11.030  36.752 -0.1120  0.0984 -0.0261
  138BOLB   GL1 3291  22.472  10.851  37.179  0.0565 -0.1068  0.0739
  138BOLB   GL2 3292  22.770  11.132  37.328  0.2473 -0.3237  0.1304
  138BOLB   C1A 3293  22.669  10.670  37.550 -0.2832  0.0929 -0.0254
  138BOLB   C2A 3294  22.801  10.530  37.951  0.0263 -0.1815 -0.1579
  138BOLB   C3A 3295  22.864  10.085  38.116  0.1446  0.0734  0.0814
  138BOLB   C4A 3296  23.095   9.816  38.340 -0.3234  0.0571  0.3046
  138BOLB   C1B 3297  23.135  11.041  37.394  0.0840  0.0195 -0.1152
  138BOLB   C2B 3298  23.502  11.148  37.597  0.0781  0.0157  0.0443
  138BOLB   C3B 3299  23.728  11.477  37.781 -0.0003  0.3789  0.0598
  138BOLB   C4B 3300  24.136  11.588  37.815  0.0871  0.0226 -0.1372
  138BOLB   NC2 3301  25.011   8.607  39.269 -0.0012  0.0189  0.1805
  138BOLB   PO2 3302  25.213   8.621  38.922 -0.2323 -0.2493  0.2629
  138BOLB   GL3 3303  25.112   8.947  38.518  0.0666  0.3023  0.0103
  138BOLB   GL4 3304  24.997   8.834  38.203 -0.0446 -0.3517  0.0848
  138BOLB   C1C 3305  24.788   9.301  38.210 -0.0535 -0.0055 -0.1257
  138BOLB   C2C 3306  24.418   9.575  38.193  0.2569 -0.3171 -0.0169
  138BOLB   C3C 3307  23.957   9.558  38.228 -0.0325 -0.1428  0.1878
  138BOLB   C4C 3308  23.525   9.578  38.450 -0.4177 -0.0050 -0.2500
  138BOLB   C1D 3309  24.607   8.821  38.084 -0.1039 -0.2217 -0.1408
  138BOLB   C2D 3310  24.264   9.019  38.172  0.1424  0.0018 -0.2807
  138BOLB   C3D 3311  23.749   9.045  38.041  0.0951  0.3783 -0.1211
  138BOLB   C4D 3312  23.369   9.231  38.132 -0.0431  0.0344  0.0607
  139BOLB   NC1 3313  11.327   5.653  28.798  0.1198 -0.0226 -0.1262
  139BOLB   PO1 3314  11.666   5.770  29.126 -0.1831 -0.0323  0.3647
  139BOLB   GL1 3315  11.377   5.418  29.354 -0.0894  0.1787  0.2247
  139BOLB   GL2 3316  11.299   5.265  29.037 -0.0298  0.0624 -0.0222
  139BOLB   C1A 3317  11.243   4.987  29.437 -0.0524  0.2294  0.2086
  139BOLB   C2A 3318  11.260   4.807  29.953 -0.0599  0.1349  0.0421
  139BOLB   C3A 3319  10.967   4.405  29.970 -0.1992  0.1999  0.1349
  139BOLB   C4A 3320  10.545   4.509  29.946  0.0540 -0.0361  0.0813
  139BOLB   C1B 3321  11.034   4.891  28.923 -0.1355  0.0873  0.0544
  139BOLB   C2B 3322  10.706   4.672  28.812 -0.3897  0.0669  0.4400
  139BOLB   C3B 3323  10.804   4.231  28.947 -0.0722 -0.1456 -0.0705
  139BOLB   C4B 3324  10.581   3.836  28.966 -0.2956  0.4988  0.2130
  139BOLB   NC2 3325   8.727   2.744  30.311  0.0834  0.0046  0.2057
  139BOLB   PO2 3326   9.084   2.670  30.467  0.1713  0.3117  0.1077
  139BOLB   GL3 3327   9.256   3.109  30.483 -0.2482  0.0913 -0.0357
  139BOLB   GL4 3328   9.563   2.886  30.437 -0.0473 -0.0222 -0.0161
  139BOLB   C1C 3329   9.459   3.520  30.624  0.1661  0.1711 -0.0542
  139BOLB   C2C 3330   9.636   3.912  30.590 -0.1929 -0.2553 -0.0316
  139BOLB   C3C 3331   9.930   4.210  30.406  0.1349 -0.0773  0.1366
  139BOLB   C4C 3332  10.239   4.471  30.276 -0.1099 -0.0451  0.1398
  139BOLB   C1D 3333   9.991   2.996  30.367  0.1828 -0.2140  0.1028
  139BOLB   C2D 3334  10.240   3.380  30.142  0.2672 -0.0888 -0.0722
  139BOLB   C3D 3335  10.521   3.591  29.884 -0.0789  0.1685  0.2073
  139BOLB   C4D 3336  10.930   3.715  29.851 -0.3518  0.3138 -0.0385
  140BOLB   NC1 3337   9.953  14.677  35.966  0.4992  0.0847 -0.1279
  140BOLB   PO1 3338   9.987  14.762  36.434  0.1485  0.1364 -0.0881
  140BOLB   GL1 3339   9.508  14.887  36.607 -0.0069 -0.2597 -0.1151
  140BOLB   GL2 3340   9.281  15.164  36.469  0.2036  0.4352 -0.0659
  140BOLB   C1A 3341   9.213  14.797  36.912 -0.1778 -0.1491  0.3763
  140BOLB   C2A 3342   8.814  14.906  37.297  0.4055 -0.3019  0.0768
  140BOLB   C3A 3343   8.478  15.225  37.436  0.2222  0.1696  0.2816
  140BOLB   C4A 3344   8.164  15.309  37.687  0.0467  0.0026 -0.0824
  140BOLB   C1B 3345   9.105  15.302  36.756 -0.1486 -0.0951 -0.0314
  140BOLB   C2B 3346   8.908  15.385  37.186 -0.1162 -0.0653  0.2464
  140BOLB   C3B 3347   8.954  15.393  37.560 -0.2960  0.0443 -0.0775
  140BOLB   C4B 3348   8.737  15.573  37.908 -0.5691 -0.1069 -0.0702
  140BOLB   NC2 3349   5.887  15.229  38.863  0.0813 -0.1454  0.0776
  140BOLB   PO2 3350   6.223  15.445  39.199  0.1761 -0.3355 -0.1985
  140BOLB   GL3 3351   6.391  15.221  38.848  0.0210 -0.0373  0.1957
  140BOLB   GL4 3352   6.498  14.967  38.926  0.1448 -0.0641  0.0061
  140BOLB   C1C 3353   6.649  15.354  38.485  0.1594 -0.2929 -0.3240
  140BOLB   C2C 3354   6.886  15.335  38.142  0.0082 -0.0038  0.1762
  140BOLB   C3C 3355   7.370  15.249  38.082 -0.0324  0.1282 -0.1391
  140BOLB   C4C 3356   7.851  15.344  37.950  0.2261  0.0517  0.0849
  140BOLB   C1D 3357   6.638  14.858  38.511  0.1635  0.0803  0.0892
  140BOLB   C2D 3358   6.779  14.848  38.066 -0.0984 -0.0348 -0.0953
  140BOLB   C3D 3359   6.976  14.654  37.778 -0.0163  0.2650  0.1319
  140BOLB   C4D 3360   7.215  14.492  37.560 -0.3579  0.0989  0.2161
  141BOLB   NC1 3361   9.016  17.456  26.531  0.0786 -0.1262 -0.0313
  141BOLB   PO1 3362   8.999  17.379  26.117 -0.0616  0.4119 -0.1892
  141BOLB   GL1 3363   8.709  17.345  25.878  0.2125 -0.0611  0.2570
  141BOLB   GL2 3364   8.689  16.975  25.656  0.0510  0.0169 -0.0419
  141BOLB   C1A 3365   8.281  17.419  25.727 -0.2855 -0.2453  0.1431
  141BOLB   C2A 3366   7.955  17.508  25.453 -0.1350  0.1580 -0.0281
  141BOLB   C3A 3367   7.552  17.629  25.382  0.2678  0.1823 -0.3730
  141BOLB   C4A 3368   7.308  17.908  25.563 -0.0863  0.0553  0.1725
  141BOLB   C1B 3369   8.394  16.950  25.270  0.0649  0.0453  0.1039
  141BOLB   C2B 3370   8.282  17.087  24.835 -0.3124 -0.3620 -0.0073
  141BOLB   C3B 3371   7.906  17.012  24.484  0.0071 -0.1759  0.1359
  141BOLB   C4B 3372   7.463  17.172  24.476 -0.4585  0.0720 -0.0308
  141BOLB   NC2 3373   5.326  18.933  25.393  0.1826 -0.0953 -0.2148
  141BOLB   PO2 3374   5.466  19.345  25.495  0.3246  0.0814  0.0762
  141BOLB   GL3 3375   5.827  19.145  25.571 -0.0106  0.1082 -0.0523
  141BOLB   GL4 3376   5.899  19.258  25.846  0.2300 -0.0997 -0.2511
  141BOLB   C1C 3377   6.044  18.960  25.342 -0.2546 -0.1055 -0.4423
  141BOLB   C2C 3378   6.321  18.696  25.187  0.3224  0.2770 -0.1316
  141BOLB   C3C 3379   6.602  18.526  25.436 -0.4058  0.1777  0.1695
  141BOLB   C4C 3380   6.901  18.257  25.697 -0.0298  0.1098  0.0677
  141BOLB   C1D 3381   6.275  19.294  25.922  0.1186  0.1272  0.1380
  141BOLB   C2D 3382   6.739  19.410  26.048  0.2491  0.1114 -0.2814
  141BOLB   C3D 3383   7.103  19.213  26.333 -0.1213 -0.1211 -0.0329
  141BOLB   C4D 3384   7.382  19.172  26.554  0.0748  0.2625 -0.3046
  142BOLB   NC1 3385  18.092  17.917  36.645  0.2501 -0.3124 -0.1952
  142BOLB   PO1 3386  18.090  18.269  37.049 -0.0251  0.2750  0.0060
  142BOLB   GL1 3387  18.173  18.344  37.527  0.1117  0.0899  0.1657
  142BOLB   GL2 3388  18.462  18.565  37.527  0.0729 -0.1412  0.2748
  142BOLB   C1A 3389  18.221  18.284  37.965  0.0831 -0.2148  0.1788
  142BOLB   C2A 3390  18.165  18.426  38.380 -0.0978  0.0709 -0.0894
  142BOLB   C3A 3391  18.375  18.674  38.717  0.0964  0.0793 -0.0141
  142BOLB   C4A 3392  18.408  18.910  39.095  0.0947  0.0729  0.0068
  142BOLB   C1B 3393  18.493  18.893  37.685 -0.0370 -0.5283 -0.0588
  142BOLB   C2B 3394  18.714  19.282  37.501 -0.2088  0.0431 -0.0421
  142BOLB   C3B 3395  18.733  19.522  37.072  0.1242 -0.1814  0.2647
  142BOLB   C4B 3396  18.412  19.650  36.756  0.0488  0.0090 -0.2955
  142BOLB   NC2 3397  18.824  20.351  40.939 -0.2030 -0.3664 -0.2920
  142BOLB   PO2 3398  18.470  20.315  40.998  0.2417  0.1114 -0.3047
  142BOLB   GL3 3399  18.408  20.237  40.576 -0.0951  0.1582 -0.4871
  142BOLB   GL4 3400  18.017  20.114  40.432 -0.0068 -0.1615 -0.2189
  142BOLB   C1C 3401  18.392  19.936  40.261  0.3086 -0.0587 -0.1146
  142BOLB   C2C 3402  18.444  19.460  40.156 -0.2435  0.2065  0.0553
  142BOLB   C3C 3403  18.506  19.291  39.805 -0.0179  0.0491 -0.1884
  142BOLB   C4C 3404  18.391  19.243  39.346 -0.2278 -0.0777  0.1718
  142BOLB   C1D 3405  17.790  19.904  40.099 -0.0559 -0.3558 -0.0520
  142BOLB   C2D 3406  17.527  19.776  39.813 -0.1848  0.2765 -0.1061
  142BOLB   C3D 3407  17.706  19.633  39.479 -0.1037 -0.0855 -0.0419
  142BOLB   C4D 3408  17.730  19.879  39.050  0.1894 -0.2147  0.2728
  143BOLB   NC1 3409  22.326   7.119  32.703  0.0917 -0.2552 -0.0687
  143BOLB   PO1 3410  22.210   6.765  32.392  0.1969 -0.2273 -0.0885
  143BOLB   GL1 3411  22.320   6.458  32.529 -0.2954  0.1747  0.0731
  143BOLB   GL2 3412  22.617   6.450  32.277  0.3083 -0.0186 -0.3574
  143BOLB   C1A 3413  22.632   6.212  32.835 -0.2805  0.0383  0.0677
  143BOLB   C2A 3414  22.840   6.010  33.225 -0.1476  0.4255 -0.2015
  143BOLB   C3A 3415  23.135   6.085  33.628 -0.0170 -0.0371  0.0007
  143BOLB   C4A 3416  23.210   6.105  34.043 -0.0028 -0.0275 -0.1432
  143BOLB   C1B 3417  22.566   6.024  32.374 -0.0224 -0.1433  0.1545
  143BOLB   C2B 3418  22.786   5.669  32.453  0.3501  0.2560 -0.2146
  143BOLB   C3B 3419  23.043   5.411  32.142  0.0754  0.3100 -0.0778
  143BOLB   C4B 3420  23.057   5.088  31.821 -0.0487  0.0383  0.2358
  143BOLB   NC2 3421  25.247   5.301  34.701 -0.2939  0.0231 -0.0220
  143BOLB   PO2 3422  25.282   5.542  34.290 -0.2228 -0.2587  0.2842
  143BOLB   GL3 3423  24.915   5.487  34.344  0.0125  0.1258  0.4417
  143BOLB   GL4 3424  24.760   5.196  34.422  0.0708 -0.3672  0.0558
  143BOLB   C1C 3425  24.476   5.593  34.434 -0.1279 -0.0769  0.0466
  143BOLB   C2C 3426  24.085   5.608  34.630  0.0236  0.1627 -0.0166
  143BOLB   C3C 3427  23.722   5.909  34.663  0.2928  0.0457 -0.1085
  143BOLB   C4C 3428  23.369   5.887  34.379 -0.1489  0.0335 -0.0913
  143BOLB   C1D 3429  24.354   5.291  34.088 -0.0774 -0.0364  0.1180
  143BOLB   C2D 3430  24.057   5.700  34.186 -0.1693 -0.1384  0.0383
  143BOLB   C3D 3431  23.732   5.918  34.058  0.3605 -0.0556  0.2885
  143BOLB   C4D 3432  23.616   6.097  33.586  0.3293 -0.4767 -0.0599
  144BOLB   NC1 3433  15.958   9.098  38.716 -0.1258 -0.1800 -0.2634
  144BOLB   PO1 3434  15.724   9.014  39.161  0.2149 -0.1735 -0.2129
  144BOLB   GL1 3435  16.008   9.037  39.499  0.0299 -0.0223 -0.1716
  144BOLB   GL2 3436  15.847   9.264  39.860  0.2157  0.2027  0.1901
  144BOLB   C1A 3437  16.315   8.749  39.792 -0.0184 -0.1302 -0.2388
  144BOLB   C2A 3438  16.440   8.625  40.233  0.0271  0.0365 -0.1451
  144BOLB   C3A 3439  16.588   8.309  40.525 -0.1414 -0.4525  0.1869
  144BOLB   C4A 3440  16.393   7.827  40.605  0.0322  0.0254  0.1077
  144BOLB   C1B 3441  15.881   9.064  40.240 -0.0180 -0.2371 -0.1156
  144BOLB   C2B 3442  15.867   9.159  40.644  0.0225 -0.1189  0.4964
  144BOLB   C3B 3443  15.656   9.357  41.005 -0.0246 -0.1477 -0.1443
  144BOLB   C4B 3444  15.468   9.333  41.361 -0.1032 -0.0124  0.2671
  144BOLB   NC2 3445  16.993   7.342  42.989  0.1189  0.2750  0.0647
  144BOLB   PO2 3446  16.789   7.038  42.801  0.2592  0.0603 -0.0190
  144BOLB   GL3 3447  17.000   7.190  42.457  0.2410 -0.2310 -0.2051
  144BOLB   GL4 3448  16.830   7.436  42.468 -0.1219 -0.2343  0.0608
  144BOLB   C1C 3449  16.996   7.303  42.022 -0.1911  0.6607  0.2778
  144BOLB   C2C 3450  16.956   7.225  41.569 -0.3134 -0.1601 -0.2418
  144BOLB   C3C 3451  16.694   7.182  41.203  0.1448  0.0945  0.3207
  144BOLB   C4C 3452  16.422   7.432  40.943  0.0701  0.4669  0.0189
  144BOLB   C1D 3453  16.516   7.389  42.138 -0.3627 -0.2835  0.1201
  144BOLB   C2D 3454  16.578   7.102  41.885  0.0846  0.0921 -0.3808
  144BOLB   C3D 3455  16.767   6.784  41.483 -0.1015  0.1172 -0.0163
  144BOLB   C4D 3456  17.052   6.642  41.047 -0.0792  0.1153  0.1740
  145BOLB   NC1 3457   8.244  13.191  26.911  0.1454  0.1844  0.0458
  145BOLB   PO1 3458   8.306  13.645  26.802  0.0941  0.0762 -0.1764
  145BOLB   GL1 3459   7.941  13.423  26.603 -0.0290 -0.2099 -0.0195
  145BOLB   GL2 3460   7.783  13.288  26.810 -0.2215  0.1143 -0.0346
  145BOLB   C1A 3461   7.496  13.367  26.354 -0.3473 -0.4285  0.0423
  145BOLB   C2A 3462   7.181  13.590  26.395  0.2045  0.1450 -0.0512
  145BOLB   C3A 3463   6.795  13.598  26.265  0.4138  0.0604  0.1134
  145BOLB   C4A 3464   6.368  13.716  26.152  0.2232  0.1974  0.1467
  145BOLB   C1B 3465   7.307  13.311  26.889 -0.1642  0.0144  0.2381
  145BOLB   C2B 3466   6.923  13.421  26.750  0.0377 -0.3405 -0.2079
  145BOLB   C3B 3467   6.573  13.221  26.782 -0.1674 -0.0530  0.1312
  145BOLB   C4B 3468   6.177  13.275  26.712 -0.0334  0.4030 -0.2672
  145BOLB   NC2 3469   4.226  14.912  26.028 -0.1163 -0.0528 -0.2941
  145BOLB   PO2 3470   4.294  14.638  25.629  0.1085  0.0759  0.1193
  145BOLB   GL3 3471   4.545  14.371  25.816  0.2181  0.0027 -0.1187
  145BOLB   GL4 3472   4.577  14.577  26.060 -0.0969  0.0403 -0.1651
  145BOLB   C1C 3473   4.844  14.082  25.910 -0.1508 -0.0574  0.2608
  145BOLB   C2C 3474   5.194  14.019  26.115  0.0004  0.0493  0.2691
  145BOLB   C3C 3475   5.608  13.886  26.182  0.0088  0.0654 -0.1106
  145BOLB   C4C 3476   5.944  14.040  26.078 -0.2084  0.2007 -0.1257
  145BOLB   C1D 3477   5.033  14.621  26.024 -0.3408  0.0431 -0.0033
  145BOLB   C2D 3478   5.532  14.539  25.887 -0.0722  0.0935  0.1093
  145BOLB   C3D 3479   5.996  14.516  25.881 -0.1671  0.2227 -0.1530
  145BOLB   C4D 3480   6.367  14.307  25.632 -0.2901 -0.2954 -0.2217
  146BOLB   NC1 3481  14.192   4.627  27.211  0.0694  0.2540 -0.1169
  146BOLB   PO1 3482  14.491   4.392  27.375 -0.2178  0.0518 -0.3365
  146BOLB   GL1 3483  14.350   4.059  27.110 -0.2409 -0.3346 -0.1792
  146BOLB   GL2 3484  14.097   4.185  27.079 -0.4183 -0.1965 -0.1245
  146BOLB   C1A 3485  14.122   3.547  27.224  0.0888 -0.1217  0.0579
  146BOLB   C2A 3486  13.892   3.467  27.582 -0.0592  0.0906  0.2897
  146BOLB   C3A 3487  13.772   3.195  27.864  0.0896 -0.0123 -0.0372
  146BOLB   C4A 3488  13.651   2.949  28.001 -0.0608  0.2223 -0.1744
  146BOLB   C1B 3489  13.724   3.879  27.195 -0.1076  0.1448 -0.0215
  146BOLB   C2B 3490  13.503   3.449  27.263  0.0541  0.1846 -0.2118
  146BOLB   C3B 3491  13.306   3.146  27.093 -0.2052  0.0870  0.1494
  146BOLB   C4B 3492  13.421   2.681  26.963 -0.3878  0.4511  0.0722
  146BOLB   NC2 3493  13.309   0.364  28.771 -0.1010  0.2489 -0.1012
  146BOLB   PO2 3494  13.378   0.585  28.351  0.1583 -0.1368  0.2798
  146BOLB   GL3 3495  13.564   0.889  28.098  0.0498  0.1653  0.4668
  146BOLB   GL4 3496  13.854   0.960  28.037  0.0845  0.0735 -0.2790
  146BOLB   C1C 3497  13.439   1.335  28.202 -0.0694  0.0028 -0.3185
  146BOLB   C2C 3498  13.383   1.732  28.386 -0.0001  0.2807  0.0134
  146BOLB   C3C 3499  13.441   2.154  28.279 -0.3613  0.0391  0.1826
  146BOLB   C4C 3500  13.693   2.520  28.049 -0.1233 -0.0983  0.1066
  146BOLB   C1D 3501  13.948   1.284  28.236 -0.0534  0.2523  0.2513
  146BOLB   C2D 3502  13.845   1.680  28.212 -0.1239 -0.3067 -0.1854
  146BOLB   C3D 3503  13.875   2.053  28.036  0.0853  0.1746 -0.1584
  146BOLB   C4D 3504  14.024   2.253  27.607 -0.1870  0.1660 -0.0809
  147BOLB   NC1 3505  15.309  22.394  18.731  0.1835 -0.4653 -0.0054
  147BOLB   PO1 3506  15.024  22.191  19.026  0.2298 -0.1438 -0.2525
  147BOLB   GL1 3507  15.099  21.740  19.098  0.3410  0.1152 -0.2978
  147BOLB   GL2 3508  14.827  21.823  19.397 -0.3378  0.2992  0.2351
  147BOLB   C1A 3509  15.400  21.609  19.402 -0.4999  0.1232  0.2235
  147BOLB   C2A 3510  15.702  21.423  19.776 -0.0809  0.1357  0.0886
  147BOLB   C3A 3511  15.711  21.628  20.117 -0.0205  0.1969  0.2092
  147BOLB   C4A 3512  15.842  21.482  20.526  0.0738 -0.3058  0.0937
  147BOLB   C1B 3513  14.945  21.334  19.342  0.0169  0.0117  0.3303
  147BOLB   C2B 3514  15.204  21.153  19.431 -0.0171 -0.5180  0.2250
  147BOLB   C3B 3515  15.658  21.038  19.341 -0.0873 -0.0198 -0.0400
  147BOLB   C4B 3516  15.641  20.570  19.175 -0.0024  0.2491  0.0664
  147BOLB   NC2 3517  17.031  23.206  21.230 -0.3017 -0.0284 -0.0889
  147BOLB   PO2 3518  17.094  22.982  20.987 -0.2560 -0.0663  0.1288
  147BOLB   GL3 3519  17.175  22.690  21.255  0.1183 -0.1401  0.0213
  147BOLB   GL4 3520  17.390  22.484  21.083  0.3095 -0.0251  0.0741
  147BOLB   C1C 3521  16.982  22.224  21.305 -0.0437 -0.0051  0.0297
  147BOLB   C2C 3522  16.659  22.037  20.926  0.0082 -0.1741 -0.1946
  147BOLB   C3C 3523  16.301  21.933  20.898  0.4557  0.0308 -0.0461
  147BOLB   C4C 3524  16.022  21.623  20.821 -0.0552  0.1263 -0.1861
  147BOLB   C1D 3525  17.460  22.274  21.529 -0.0579 -0.3584  0.4009
  147BOLB   C2D 3526  17.389  22.057  21.938  0.0631  0.0398  0.1178
  147BOLB   C3D 3527  17.196  21.869  22.197 -0.1687  0.1050  0.0224
  147BOLB   C4D 3528  16.848  21.804  22.431 -0.2404 -0.2037 -0.0155
  148BOLB   NC1 3529   1.127  11.657  33.771 -0.1761  0.1215  0.3496
  148BOLB   PO1 3530   0.690  11.677  33.938  0.2187 -0.1627  0.3135
  148BOLB   GL1 3531   0.280  11.600  34.053 -0.0906 -0.1417 -0.3311
  148BOLB   GL2 3532   0.118  11.524  34.308  0.2928  0.1578 -0.2031
  148BOLB   C1A 3533  26.900  11.752  33.956  0.0526 -0.1314 -0.2299
  148BOLB   C2A 3534  26.472  11.751  33.842 -0.0194  0.1688  0.3038
  148BOLB   C3A 3535  26.096  11.780  33.674  0.1034 -0.2486 -0.1053
  148BOLB   C4A 3536  25.939  11.798  33.243  0.1173  0.3798  0.1639
  148BOLB   C1B 3537   0.134  11.179  33.942  0.0116  0.0962 -0.5233
  148BOLB   C2B 3538   0.278  11.142  33.504 -0.1033  0.3140  0.3307
  148BOLB   C3B 3539   0.076  11.259  33.074 -0.1240 -0.0465 -0.0635
  148BOLB   C4B 3540  26.801  11.180  32.786  0.3976  0.0049  0.0086
  148BOLB   NC2 3541   0.641  12.021  31.206 -0.1116  0.0966  0.0427
  148BOLB   PO2 3542   0.880  12.119  31.521  0.0011 -0.0327  0.0179
  148BOLB   GL3 3543   0.549  11.862  31.780  0.0477 -0.2755  0.2012
  148BOLB   GL4 3544   0.241  11.760  31.478 -0.2097 -0.1855  0.3622
  148BOLB   C1C 3545   0.165  11.830  32.076 -0.1928  0.1450  0.1097
  148BOLB   C2C 3546  27.023  11.800  32.611 -0.1667 -0.1449 -0.1818
  148BOLB   C3C 3547  26.644  11.714  32.732 -0.0400  0.1194 -0.0230
  148BOLB   C4C 3548  26.144  11.875  32.901 -0.0007 -0.1902 -0.0940
  148BOLB   C1D 3549  26.931  11.927  31.670  0.0628  0.0389  0.1179
  148BOLB   C2D 3550  26.610  12.135  31.834 -0.1405  0.1981 -0.0702
  148BOLB   C3D 3551  26.284  12.322  32.081  0.0159 -0.0388 -0.2142
  148BOLB   C4D 3552  25.897  12.200  32.015  0.0174  0.4532 -0.3389
  149BOLB   NC1 3553   8.858  18.174  40.383 -0.1191  0.3274 -0.2187
  149BOLB   PO1 3554   8.709  17.933  40.050  0.0081 -0.0320  0.2340
  149BOLB   GL1 3555   9.015  18.073  39.702  0.1126 -0.1620  0.0439
  149BOLB   GL2 3556   9.279  17.821  39.662  0.1438 -0.4897  0.1887
  149BOLB   C1A 3557   9.209  18.100  39.280 -0.3928  0.2387 -0.3398
  149BOLB   C2A 3558   9.065  18.232  38.901 -0.2328  0.1828 -0.1304
  149BOLB   C3A 3559   8.987  17.999  38.461 -0.1292 -0.0407 -0.3397
  149BOLB   C4A 3560   9.113  17.824  37.977  0.0049  0.1414 -0.0167
  149BOLB   C1B 3561   9.495  17.718  39.244  0.0447 -0.2076  0.2033
  149BOLB   C2B 3562   9.403  17.698  38.810  0.0221 -0.1128  0.0525
  149BOLB   C3B 3563   9.464  18.002  38.469 -0.2667  0.0664 -0.1224
  149BOLB   C4B 3564   9.498  18.460  38.630 -0.0251 -0.2056  0.2879
  149BOLB   NC2 3565  10.299  16.505  36.391 -0.1653 -0.4034  0.1330
  149BOLB   PO2 3566  10.467  16.940  36.307  0.2589 -0.0706  0.2089
  149BOLB   GL3 3567  10.283  17.184  36.515 -0.3935 -0.1541 -0.0647
  149BOLB   GL4 3568   9.990  17.050  36.480 -0.2080  0.3365 -0.1685
  149BOLB   C1C 3569  10.117  17.421  36.869 -0.0329  0.0749  0.3241
  149BOLB   C2C 3570   9.905  17.627  37.090  0.3716 -0.0415  0.0516
  149BOLB   C3C 3571   9.486  17.773  37.209  0.3278  0.2436  0.0324
  149BOLB   C4C 3572   9.300  17.737  37.612  0.0958 -0.0474  0.1435
  149BOLB   C1D 3573   9.795  17.350  36.540 -0.0047  0.2833 -0.0630
  149BOLB   C2D 3574   9.448  17.333  36.929 -0.0329  0.0090 -0.0540
  149BOLB   C3D 3575   9.035  17.468  37.122  0.1707  0.2696 -0.0241
  149BOLB   C4D 3576   8.676  17.380  37.338  0.1286 -0.2982 -0.1316
  150BOLB   NC1 3577  20.223   5.588  25.209  0.1211  0.0022  0.0893
  150BOLB   PO1 3578  20.199   5.190  25.129  0.1178 -0.0588  0.1059
  150BOLB   GL1 3579  20.165   4.957  24.830 -0.1268 -0.3383  0.2721
  150BOLB   GL2 3580  19.860   4.971  24.753 -0.3599  0.0182 -0.0569
  150BOLB   C1A 3581  20.425   4.624  24.698  0.5646  0.0065  0.0192
  150BOLB   C2A 3582  20.631   4.247  24.609  0.2704 -0.1091  0.1015
  150BOLB   C3A 3583  20.856   4.117  24.970  0.1758  0.0093 -0.0818
  150BOLB   C4A 3584  20.846   4.029  25.417 -0.0125 -0.3497 -0.0855
  150BOLB   C1B 3585  20.003   4.733  24.419 -0.2766  0.1835 -0.1964
  150BOLB   C2B 3586  20.070   4.310  24.127 -0.1598  0.2244 -0.0354
  150BOLB   C3B 3587  20.053   4.012  23.887  0.3754  0.0713 -0.0635
  150BOLB   C4B 3588  20.001   3.575  23.816 -0.0248 -0.0168  0.0016
  150BOLB   NC2 3589  20.975   1.604  25.019 -0.1711  0.0958 -0.2690
  150BOLB   PO2 3590  20.831   1.444  25.428 -0.3091 -0.0233 -0.0639
  150BOLB   GL3 3591  20.854   1.869  25.472  0.0169 -0.1257 -0.0928
  150BOLB   GL4 3592  21.160   2.061  25.384 -0.0685  0.0581  0.0326
  150BOLB   C1C 3593  20.930   2.315  25.706 -0.0387  0.0598  0.0337
  150BOLB   C2C 3594  20.830   2.739  25.631  0.0278  0.1894 -0.1270
  150BOLB   C3C 3595  20.816   3.206  25.768  0.1109 -0.0332 -0.0308
  150BOLB   C4C 3596  20.934   3.630  25.569 -0.1804 -0.2816 -0.2563
  150BOLB   C1D 3597  20.839   2.335  25.203  0.0622  0.3265 -0.1180
  150BOLB   C2D 3598  20.598   2.769  25.216 -0.0282 -0.1839  0.2447
  150BOLB   C3D 3599  20.700   3.165  25.244  0.0857  0.2550  0.0686
  150BOLB   C4D 3600  20.526   3.410  25.142  0.0322 -0.0406 -0.1890
  151BOLB   NC1 3601  22.674  15.579  30.597 -0.1468 -0.0966  0.1527
  151BOLB   PO1 3602  22.311  15.609  30.287  0.3213  0.0478 -0.2913
  151BOLB   GL1 3603  22.743  15.915  30.088  0.0307  0.0336 -0.2322
  151BOLB   GL2 3604  22.729  16.173  29.824  0.0603  0.0277 -0.2190
  151BOLB   C1A 3605  23.185  15.808  30.213  0.0639 -0.0796 -0.2131
  151BOLB   C2A 3606  23.604  15.817  30.075  0.0405 -0.1732 -0.1713
  151BOLB   C3A 3607  24.042  15.892  29.980 -0.0862 -0.4767  0.0079
  151BOLB   C4A 3608  24.376  16.264  29.825  0.3517  0.0519 -0.1813
  151BOLB   C1B 3609  23.125  16.274  29.954 -0.2349 -0.0910 -0.0344
  151BOLB   C2B 3610  23.415  16.560  29.903  0.2057  0.5323 -0.0637
  151BOLB   C3B 3611  23.853  16.585  29.960 -0.0559 -0.2133 -0.0806
  151BOLB   C4B 3612  24.095  16.840  29.722 -0.1819 -0.0985  0.0976
  151BOLB   NC2 3613  26.693  16.624  29.827 -0.1396  0.2623 -0.1848
  151BOLB   PO2 3614  26.337  16.797  30.061  0.2059 -0.2293  0.0786
  151BOLB   GL3 3615  26.014  16.835  29.879 -0.1608  0.0186  0.5023
  151BOLB   GL4 3616  25.902  16.569  30.025 -0.0143 -0.1399  0.1066
  151BOLB   C1C 3617  25.681  16.966  29.528  0.0614  0.0514 -0.0715
  151BOLB   C2C 3618  25.242  16.959  29.587 -0.1915  0.4151 -0.0113
  151BOLB   C3C 3619  24.871  16.695  29.598  0.0189 -0.1581  0.1669
  151BOLB   C4C 3620  24.507  16.607  29.628  0.1657 -0.2085  0.0063
  151BOLB   C1D 3621  25.885  16.222  29.809 -0.0023  0.1909  0.1564
  151BOLB   C2D 3622  25.442  16.037  29.834 -0.1989 -0.0684  0.4293
  151BOLB   C3D 3623  25.122  15.751  29.803 -0.2262 -0.0764 -0.1515
  151BOLB   C4D 3624  24.897  15.670  29.479  0.0429  0.0944 -0.0133
  152BOLB   NC1 3625   8.227  14.695  27.932  0.0369  0.0512  0.1781
  152BOLB   PO1 3626   7.977  15.085  27.688  0.0306 -0.0703  0.1405
  152BOLB   GL1 3627   7.572  15.044  27.500 -0.4721  0.0117  0.4831
  152BOLB   GL2 3628   7.278  14.780  27.561 -0.1093 -0.1058  0.0698
  152BOLB   C1A 3629   7.104  15.204  27.553 -0.1885  0.0406  0.0493
  152BOLB   C2A 3630   6.660  15.289  27.342  0.0016  0.0155  0.1564
  152BOLB   C3A 3631   6.246  15.370  27.098  0.3671  0.3495 -0.1531
  152BOLB   C4A 3632   5.911  15.041  27.016 -0.4184  0.1147 -0.2691
  152BOLB   C1B 3633   7.061  14.836  27.968 -0.1921  0.1776  0.1336
  152BOLB   C2B 3634   6.698  14.947  28.041  0.0170 -0.0725  0.1997
  152BOLB   C3B 3635   6.384  15.069  27.700  0.3563 -0.1602  0.0993
  152BOLB   C4B 3636   5.970  15.163  27.521 -0.0373 -0.2973  0.0799
  152BOLB   NC2 3637   4.127  15.877  25.747 -0.2068  0.0836  0.0491
  152BOLB   PO2 3638   4.134  15.424  25.769  0.2012 -0.0949 -0.0208
  152BOLB   GL3 3639   4.333  15.424  26.103 -0.0644  0.2039  0.0527
  152BOLB   GL4 3640   4.536  15.173  26.317 -0.0012 -0.1318 -0.0950
  152BOLB   C1C 3641   4.383  15.529  26.590 -0.1362  0.4780  0.4698
  152BOLB   C2C 3642   4.675  15.313  26.811 -0.0830  0.4421  0.0742
  152BOLB   C3C 3643   5.039  15.133  26.761 -0.0667 -0.1364 -0.1332
  152BOLB   C4C 3644   5.559  15.194  27.001 -0.2330 -0.0745  0.4404
  152BOLB   C1D 3645   4.846  15.502  26.376 -0.0190 -0.1299  0.0439
  152BOLB   C2D 3646   5.059  15.675  26.825 -0.1581 -0.3065 -0.0204
  152BOLB   C3D 3647   5.035  16.022  27.038  0.0222  0.1523  0.1088
  152BOLB   C4D 3648   4.993  16.284  27.292  0.0362 -0.2420  0.0020
  153BOLB   NC1 3649  10.721  21.791  21.414  0.1294  0.1648 -0.1025
  153BOLB   PO1 3650  11.045  22.164  21.416 -0.2124  0.0471  0.1822
  153BOLB   GL1 3651  11.115  21.870  21.715 -0.0927 -0.0548  0.0363
  153BOLB   GL2 3652  11.183  21.581  21.570 -0.2024  0.1832 -0.1254
  153BOLB   C1A 3653  11.568  21.752  21.839 -0.1216 -0.0653  0.0853
  153BOLB   C2A 3654  11.848  21.382  21.958  0.0259 -0.0735 -0.0661
  153BOLB   C3A 3655  12.335  21.462  21.845 -0.1918  0.3429  0.1583
  153BOLB   C4A 3656  12.386  21.378  21.441  0.1812  0.1733 -0.2603
  153BOLB   C1B 3657  11.458  21.218  21.704  0.2991 -0.0090 -0.0715
  153BOLB   C2B 3658  11.666  20.968  22.117  0.1883 -0.0628  0.0992
  153BOLB   C3B 3659  11.782  21.014  22.519  0.1321  0.3782  0.0026
  153BOLB   C4B 3660  11.830  21.332  22.779  0.0546 -0.2375  0.1725
  153BOLB   NC2 3661  12.927  22.527  19.840  0.4245 -0.0493  0.1872
  153BOLB   PO2 3662  12.553  22.230  19.701  0.1461 -0.2473 -0.0964
  153BOLB   GL3 3663  12.582  21.785  19.922  0.0238 -0.0232  0.1150
  153BOLB   GL4 3664  12.797  21.580  19.896  0.0935 -0.0042  0.1187
  153BOLB   C1C 3665  12.715  21.647  20.347  0.3163 -0.1067  0.2762
  153BOLB   C2C 3666  12.582  21.309  20.543 -0.1411  0.0411  0.3205
  153BOLB   C3C 3667  12.822  21.154  20.882  0.1670 -0.1748  0.2295
  153BOLB   C4C 3668  12.722  21.354  21.174  0.2491 -0.0711  0.1576
  153BOLB   C1D 3669  13.125  21.148  19.951  0.0163  0.0877  0.1402
  153BOLB   C2D 3670  13.304  20.736  19.897  0.2103 -0.0878  0.0678
  153BOLB   C3D 3671  13.328  20.320  20.122  0.1012 -0.2712 -0.1917
  153BOLB   C4D 3672  13.654  20.294  20.303 -0.0798  0.1001 -0.2639
  154BOLB   NC1 3673  26.673  17.559  28.726 -0.1223  0.2962 -0.2539
  154BOLB   PO1 3674  26.352  17.185  28.826 -0.0600  0.3727 -0.0075
  154BOLB   GL1 3675  25.935  17.000  28.833 -0.2728 -0.3407  0.0687
  154BOLB   GL2 3676  25.811  16.747  28.661  0.0219 -0.0309 -0.0634
  154BOLB   C1A 3677  25.575  16.855  29.068  0.0348  0.1042  0.3870
  154BOLB   C2A 3678  25.202  16.625  29.139  0.1004  0.0809  0.0342
  154BOLB   C3A 3679  24.787  16.368  29.206  0.1066 -0.0723  0.2660
  154BOLB   C4A 3680  24.464  16.082  29.326 -0.2318 -0.2409  0.1816
  154BOLB   C1B 3681  25.516  16.471  28.721 -0.2160  0.1262 -0.0109
  154BOLB   C2B 3682  25.372  16.159  28.990  0.0863 -0.0990 -0.1088
  154BOLB   C3B 3683  24.912  15.961  28.982  0.0397  0.1167 -0.2334
  154BOLB   C4B 3684  24.602  15.645  29.068  0.2478 -0.0517 -0.1528
  154BOLB   NC2 3685  21.936  14.722  30.197  0.0318  0.4635  0.3011
  154BOLB   PO2 3686  22.310  14.999  30.135 -0.1477  0.0343 -0.3055
  154BOLB   GL3 3687  22.601  15.210  30.057 -0.0684 -0.1143  0.1530
  154BOLB   GL4 3688  22.576  15.505  29.875  0.2129 -0.1383 -0.1494
  154BOLB   C1C 3689  23.012  15.351  30.040  0.4456 -0.2703 -0.0224
  154BOLB   C2C 3690  23.355  15.412  29.858 -0.1263  0.2224  0.0301
  154BOLB   C3C 3691  23.807  15.580  29.702 -0.0077  0.0357  0.5335
  154BOLB   C4C 3692  24.200  15.760  29.536 -0.0601  0.1952  0.1389
  154BOLB   C1D 3693  22.860  15.663  29.625  0.0050 -0.2990 -0.2168
  154BOLB   C2D 3694  23.182  15.833  29.666 -0.3513 -0.0425  0.2082
  154BOLB   C3D 3695  23.580  16.120  29.645 -0.0868  0.0222 -0.1300
  154BOLB   C4D 3696  23.908  16.237  29.490 -0.2488 -0.0114  0.2057
  155BOLB   NC1 3697  10.435  19.608  27.983 -0.4225  0.0488 -0.2817
  155BOLB   PO1 3698  10.576  20.016  27.822  0.0886 -0.0226  0.2204
  155BOLB   GL1 3699  10.281  20.339  27.933 -0.0791  0.0945  0.0490
  155BOLB   GL2 3700  10.172  20.280  28.221 -0.1269  0.0923  0.2155
  155BOLB   C1A 3701  10.086  20.733  27.964  0.0212  0.2393  0.0536
  155BOLB   C2A 3702  10.060  21.084  27.722 -0.2614  0.0772  0.4379
  155BOLB   C3A 3703   9.948  21.552  27.515 -0.2434 -0.1014  0.1266
  155BOLB   C4A 3704  10.223  21.821  27.286  0.1520 -0.1463  0.0283
  155BOLB   C1B 3705   9.851  20.556  28.366  0.0703  0.0256  0.1415
  155BOLB   C2B 3706   9.590  20.770  28.163  0.0119 -0.0840 -0.1521
  155BOLB   C3B 3707   9.529  20.922  28.602  0.0211 -0.4449 -0.1520
  155BOLB   C4B 3708   9.670  21.035  29.000  0.3652 -0.0704  0.0206
  155BOLB   NC2 3709   9.775  24.649  26.554 -0.1111  0.0649 -0.1675
  155BOLB   PO2 3710   9.718  24.110  26.568  0.0134 -0.2670 -0.0479
  155BOLB   GL3 3711   9.942  23.795  26.647  0.2933  0.0908 -0.0048
  155BOLB   GL4 3712  10.225  23.791  26.796 -0.0213  0.2260  0.2770
  155BOLB   C1C 3713   9.981  23.378  26.788  0.1902  0.1025 -0.2089
  155BOLB   C2C 3714  10.143  22.915  26.727 -0.0836  0.0273 -0.2139
  155BOLB   C3C 3715  10.171  22.542  26.828 -0.1459  0.2126  0.1526
  155BOLB   C4C 3716  10.272  22.253  27.098  0.3144  0.1060 -0.0812
  155BOLB   C1D 3717  10.469  23.379  26.698 -0.1084  0.1666  0.2619
  155BOLB   C2D 3718  10.642  22.996  26.621 -0.1459 -0.2907  0.0569
  155BOLB   C3D 3719  10.890  22.686  26.589  0.0004  0.0772  0.1847
  155BOLB   C4D 3720  11.189  22.443  26.302 -0.2803  0.0696 -0.1636
  156BOLB   NC1 3721  23.872  10.032  32.462  0.0045 -0.1143 -0.2678
  156BOLB   PO1 3722  23.732  10.029  32.118 -0.1465 -0.3759 -0.0179
  156BOLB   GL1 3723  24.195  10.043  31.960  0.0665 -0.0198  0.2426
  156BOLB   GL2 3724  24.326  10.194  31.593  0.1491  0.0158  0.3650
  156BOLB   C1A 3725  24.660   9.873  31.792 -0.2522  0.1482 -0.0687
  156BOLB   C2A 3726  24.956   9.846  31.986  0.0701  0.0954 -0.1527
  156BOLB   C3A 3727  25.351   9.790  31.996 -0.0361 -0.0299 -0.2912
  156BOLB   C4A 3728  25.684   9.781  32.075 -0.0254 -0.2699  0.2323
  156BOLB   C1B 3729  24.571  10.375  31.989 -0.2992  0.1156 -0.0027
  156BOLB   C2B 3730  24.892  10.341  32.213  0.0378 -0.0291 -0.0604
  156BOLB   C3B 3731  25.333  10.256  32.209  0.1873 -0.1316  0.1705
  156BOLB   C4B 3732  25.551   9.946  32.521 -0.2006  0.4326 -0.0357
  156BOLB   NC2 3733   0.878  10.192  32.560  0.0663  0.3328  0.1848
  156BOLB   PO2 3734   1.021  10.082  32.312 -0.5523  0.1905  0.0552
  156BOLB   GL3 3735   0.624   9.971  32.172 -0.0771 -0.1900 -0.0780
  156BOLB   GL4 3736   0.635   9.785  32.422  0.0467 -0.0222 -0.2794
  156BOLB   C1C 3737   0.275  10.198  31.953 -0.2361  0.0485 -0.3173
  156BOLB   C2C 3738  27.040  10.070  31.786  0.2073  0.2420 -0.1547
  156BOLB   C3C 3739  26.580   9.943  31.824 -0.1704  0.0751 -0.0615
  156BOLB   C4C 3740  26.123   9.906  31.897  0.1081  0.0239  0.3316
  156BOLB   C1D 3741   0.203   9.973  32.523 -0.0546  0.0705 -0.1150
  156BOLB   C2D 3742  26.998  10.118  32.790  0.0706 -0.0243  0.0284
  156BOLB   C3D 3743  26.531  10.175  32.991  0.1956 -0.2529  0.1067
  156BOLB   C4D 3744  26.109  10.251  32.773 -0.0237  0.1796  0.2303
  157BOLB   NC1 3745  17.426  13.314  15.002  0.0220 -0.1557  0.1975
  157BOLB   PO1 3746  17.345  13.675  14.765 -0.2370 -0.0312 -0.3779
  157BOLB   GL1 3747  17.471  13.815  15.204  0.1947  0.0595  0.0959
  157BOLB   GL2 3748  17.241  14.107  15.370  0.2770  0.1509  0.0507
  157BOLB   C1A 3749  17.519  13.576  15.625 -0.0156  0.2055  0.0479
  157BOLB   C2A 3750  17.423  13.138  15.768 -0.4330 -0.1765  0.0345
  157BOLB   C3A 3751  17.636  12.666  15.795 -0.1184  0.1285  0.0298
  157BOLB   C4A 3752  17.561  12.332  16.001 -0.1228  0.1475 -0.1017
  157BOLB   C1B 3753  17.392  14.029  15.680  0.1365 -0.1024 -0.0003
  157BOLB   C2B 3754  17.283  14.193  16.076 -0.1400 -0.0838  0.0202
  157BOLB   C3B 3755  17.129  14.161  16.511  0.2081  0.0811 -0.2074
  157BOLB   C4B 3756  17.032  14.015  17.016 -0.2455  0.1717  0.3742
  157BOLB   NC2 3757  17.393  10.417  14.885  0.1225  0.4028  0.1656
  157BOLB   PO2 3758  17.452  10.911  14.991 -0.1811  0.0220  0.2855
  157BOLB   GL3 3759  17.320  10.854  15.409 -0.2321  0.0634  0.1922
  157BOLB   GL4 3760  17.255  11.144  15.429  0.1076  0.2304 -0.0188
  157BOLB   C1C 3761  17.519  10.833  15.809  0.0081  0.3440 -0.3154
  157BOLB   C2C 3762  17.829  11.026  16.163 -0.0234 -0.4253 -0.1235
  157BOLB   C3C 3763  17.699  11.442  16.306 -0.1991 -0.1736 -0.1308
  157BOLB   C4C 3764  17.776  11.895  16.149  0.0290  0.0120 -0.2746
  157BOLB   C1D 3765  17.120  11.098  15.835 -0.1253 -0.2736 -0.0253
  157BOLB   C2D 3766  17.345  11.056  16.278 -0.4210  0.1556 -0.0163
  157BOLB   C3D 3767  17.395  11.274  16.691 -0.3182  0.2620 -0.0806
  157BOLB   C4D 3768  17.039  11.057  16.992 -0.0412 -0.0539 -0.1664
  158BOLB   NC1 3769   9.154   7.900  30.889 -0.2148 -0.0327  0.1736
  158BOLB   PO1 3770   8.878   8.279  30.887 -0.2392 -0.2580 -0.0911
  158BOLB   GL1 3771   8.702   7.975  30.814 -0.3320 -0.2187  0.1359
  158BOLB   GL2 3772   8.320   8.126  30.832 -0.0381  0.1842  0.1132
  158BOLB   C1A 3773   8.526   7.605  31.018  0.0545  0.1022 -0.0613
  158BOLB   C2A 3774   8.317   7.242  30.972  0.0943  0.2407  0.0259
  158BOLB   C3A 3775   8.327   6.979  31.264 -0.0224 -0.0672 -0.1218
  158BOLB   C4A 3776   8.019   6.932  31.601 -0.0394 -0.1264 -0.3712
  158BOLB   C1B 3777   7.919   8.240  31.001  0.1468  0.0287 -0.3054
  158BOLB   C2B 3778   7.582   7.964  31.182  0.0859 -0.2417 -0.1440
  158BOLB   C3B 3779   7.168   7.729  31.261  0.0684 -0.0598  0.0338
  158BOLB   C4B 3780   6.787   7.680  31.277  0.0333 -0.1237  0.1975
  158BOLB   NC2 3781   6.481   4.582  31.347 -0.0552  0.0377 -0.0087
  158BOLB   PO2 3782   6.651   4.541  31.725 -0.2966 -0.1257 -0.2025
  158BOLB   GL3 3783   6.976   4.845  31.738  0.0156  0.0100 -0.2436
  158BOLB   GL4 3784   6.978   4.945  32.121  0.2759 -0.0967 -0.1565
  158BOLB   C1C 3785   7.165   5.295  31.542  0.0616  0.3692 -0.2066
  158BOLB   C2C 3786   7.423   5.702  31.467 -0.0686  0.0004 -0.1250
  158BOLB   C3C 3787   7.522   6.101  31.595 -0.0140  0.1681 -0.0036
  158BOLB   C4C 3788   7.762   6.522  31.655 -0.0026  0.1606 -0.0483
  158BOLB   C1D 3789   7.327   5.139  31.993  0.0853 -0.3391 -0.1318
  158BOLB   C2D 3790   7.674   5.291  31.742 -0.2768  0.3609 -0.0605
  158BOLB   C3D 3791   8.095   5.295  31.478  0.1449 -0.0180 -0.3077
  158BOLB   C4D 3792   8.426   5.354  31.646  0.0058  0.1244 -0.3285
  159BOLB   NC1 3793  16.911   0.960  24.271  0.0758  0.2732 -0.2247
  159BOLB   PO1 3794  17.247   1.114  24.225 -0.1272 -0.1746  0.2369
  159BOLB   GL1 3795  17.131   1.523  24.279  0.0977 -0.0507 -0.2936
  159BOLB   GL2 3796  17.469   1.706  24.275 -0.3699 -0.2646  0.1458
  159BOLB   C1A 3797  17.034   1.951  24.041 -0.1357  0.0145  0.2319
  159BOLB   C2A 3798  16.831   2.270  24.163 -0.3351 -0.1183  0.2144
  159BOLB   C3A 3799  16.861   2.654  24.270 -0.1547 -0.0308 -0.4119
  159BOLB   C4A 3800  16.857   3.022  24.340 -0.2144  0.1496 -0.0486
  159BOLB   C1B 3801  17.748   2.019  24.499 -0.0151  0.1201  0.0492
  159BOLB   C2B 3802  18.082   2.350  24.611  0.3922  0.2188 -0.1367
  159BOLB   C3B 3803  18.422   2.574  24.657  0.4515  0.0901 -0.3948
  159BOLB   C4B 3804  18.910   2.625  24.530 -0.0976 -0.2103  0.3603
  159BOLB   NC2 3805  16.219   5.712  24.702 -0.1751  0.3090 -0.3584
  159BOLB   PO2 3806  16.312   5.317  24.761  0.2659  0.0954 -0.2755
  159BOLB   GL3 3807  16.241   4.834  24.681  0.1064 -0.4462  0.2382
  159BOLB   GL4 3808  16.543   4.729  24.700 -0.0106  0.1751 -0.3141
  159BOLB   C1C 3809  16.116   4.429  24.409 -0.0163  0.3595  0.0177
  159BOLB   C2C 3810  16.216   4.061  24.377  0.1744 -0.1084 -0.3969
  159BOLB   C3C 3811  16.262   3.773  24.344  0.0422  0.0304 -0.0402
  159BOLB   C4C 3812  16.649   3.427  24.187  0.0951  0.1433 -0.0223
  159BOLB   C1D 3813  16.581   4.250  24.604  0.1580 -0.0825  0.0070
  159BOLB   C2D 3814  16.728   3.931  24.344 -0.1549  0.1454 -0.0607
  159BOLB   C3D 3815  16.649   3.843  23.817 -0.1360  0.1932 -0.2386
  159BOLB   C4D 3816  16.662   3.523  23.572  0.4895  0.1712  0.1788
  160BOLB   NC1 3817  17.560   7.233  21.186 -0.0142  0.0887  0.2591
  160BOLB   PO1 3818  17.837   7.433  20.999 -0.0718 -0.0511  0.3207
  160BOLB   GL1 3819  17.954   7.027  20.911  0.0425 -0.0005  0.0184
  160BOLB   GL2 3820  18.264   7.038  20.892 -0.0572  0.1447  0.1615
  160BOLB   C1A 3821  17.972   6.604  20.760 -0.0312  0.1013  0.0879
  160BOLB   C2A 3822  18.043   6.247  20.360  0.1195  0.0191 -0.3017
  160BOLB   C3A 3823  18.154   5.940  20.239 -0.1727  0.3641  0.0723
  160BOLB   C4A 3824  18.264   5.705  19.847  0.0189  0.2427 -0.2065
  160BOLB   C1B 3825  18.266   6.866  20.492 -0.1238  0.0062 -0.0795
  160BOLB   C2B 3826  18.569   6.503  20.354 -0.0187  0.0048 -0.0662
  160BOLB   C3B 3827  18.488   6.165  19.956  0.0341  0.0312  0.0764
  160BOLB   C4B 3828  18.399   6.305  19.459  0.0494 -0.2684  0.2362
  160BOLB   NC2 3829  18.875   3.457  19.695  0.0966  0.0947  0.3161
  160BOLB   PO2 3830  18.561   3.541  19.408  0.4955 -0.2261 -0.0977
  160BOLB   GL3 3831  18.779   3.889  19.509  0.1402  0.1016  0.2950
  160BOLB   GL4 3832  19.064   4.029  19.311 -0.0993 -0.2728 -0.0376
  160BOLB   C1C 3833  18.683   4.159  19.797 -0.1215 -0.1438 -0.1258
  160BOLB   C2C 3834  18.445   4.562  20.035 -0.1997 -0.1744 -0.0233
  160BOLB   C3C 3835  18.426   4.977  20.184  0.0534  0.2098  0.0178
  160BOLB   C4C 3836  18.382   5.341  19.774  0.0908  0.1412  0.2478
  160BOLB   C1D 3837  18.999   4.479  19.406  0.2152  0.0236  0.0650
  160BOLB   C2D 3838  18.860   4.628  19.804  0.2443 -0.0062  0.0468
  160BOLB   C3D 3839  18.907   4.689  20.199  0.0555  0.0081 -0.0774
  160BOLB   C4D 3840  18.624   4.649  20.531 -0.1865  0.2887 -0.1240
  161BOLB   NC1 3841  14.252   6.180  24.683  0.2868 -0.0778 -0.0977
  161BOLB   PO1 3842  14.395   5.715  24.858 -0.0724  0.0747  0.0909
  161BOLB   GL1 3843  14.168   5.373  24.861  0.4096 -0.0799  0.1440
  161BOLB   GL2 3844  13.953   5.153  25.122 -0.1317  0.3405  0.1307
  161BOLB   C1A 3845  13.815   5.019  24.671 -0.0375  0.5339 -0.2415
  161BOLB   C2A 3846  13.655   4.808  24.365  0.0309  0.0053  0.0544
  161BOLB   C3A 3847  13.548   4.436  24.263 -0.2927  0.0750 -0.5049
  161BOLB   C4A 3848  13.488   3.937  24.234  0.1295  0.4133  0.1131
  161BOLB   C1B 3849  14.291   4.897  24.965  0.0850 -0.0120 -0.1227
  161BOLB   C2B 3850  14.455   4.931  24.521  0.0743 -0.0501  0.1129
  161BOLB   C3B 3851  14.580   4.661  24.188  0.0435  0.0939 -0.1397
  161BOLB   C4B 3852  14.544   4.314  23.968 -0.1353  0.1855  0.1691
  161BOLB   NC2 3853  13.234   1.639  23.919 -0.1398  0.3343 -0.0648
  161BOLB   PO2 3854  13.245   1.735  23.584 -0.0883  0.1387  0.1548
  161BOLB   GL3 3855  13.321   2.184  23.684  0.1446  0.1039 -0.3610
  161BOLB   GL4 3856  13.569   2.124  23.921 -0.2827 -0.2463 -0.2475
  161BOLB   C1C 3857  13.139   2.397  24.014  0.0837  0.1290  0.1515
  161BOLB   C2C 3858  13.201   2.744  24.300  0.1511 -0.0674 -0.1556
  161BOLB   C3C 3859  13.308   3.135  24.428 -0.2465 -0.0030  0.0473
  161BOLB   C4C 3860  13.405   3.408  24.166 -0.0424  0.1146  0.0926
  161BOLB   C1D 3861  13.683   2.553  24.050 -0.0468  0.3936  0.3943
  161BOLB   C2D 3862  13.772   2.984  24.044 -0.0989 -0.3081 -0.2559
  161BOLB   C3D 3863  13.755   3.341  23.757  0.0757  0.3520  0.0540
  161BOLB   C4D 3864  13.629   3.710  23.827 -0.0965 -0.0066 -0.0638
  162BOLB   NC1 3865  16.157   3.967  28.717  0.2877 -0.2771 -0.2127
  162BOLB   PO1 3866  16.491   3.883  29.111 -0.0836 -0.2836  0.0764
  162BOLB   GL1 3867  16.652   3.465  29.041  0.3583  0.0487 -0.0711
  162BOLB   GL2 3868  16.869   3.525  29.362  0.1026  0.0761  0.1065
  162BOLB   C1A 3869  16.769   3.186  28.736 -0.2264  0.2497 -0.0675
  162BOLB   C2A 3870  16.818   2.793  28.478 -0.0167 -0.0430 -0.1891
  162BOLB   C3A 3871  16.902   2.519  28.171 -0.0503 -0.0481  0.2154
  162BOLB   C4A 3872  16.816   2.194  27.844  0.1486 -0.0490  0.2244
  162BOLB   C1B 3873  16.965   3.177  29.536 -0.2001  0.1754  0.1774
  162BOLB   C2B 3874  17.171   2.871  29.500 -0.0176 -0.0515 -0.0959
  162BOLB   C3B 3875  17.297   2.467  29.312 -0.0474 -0.1647  0.2355
  162BOLB   C4B 3876  17.566   2.483  28.938 -0.0267  0.0196 -0.0794
  162BOLB   NC2 3877  15.721  26.917  27.368 -0.0337  0.0639  0.5207
  162BOLB   PO2 3878  15.348   0.220  27.411  0.0635 -0.0902  0.1346
  162BOLB   GL3 3879  15.456   0.435  27.683  0.0622  0.0005  0.0359
  162BOLB   GL4 3880  15.699   0.372  28.024 -0.1627  0.1282 -0.1435
  162BOLB   C1C 3881  15.742   0.802  27.592  0.4177  0.1702 -0.4202
  162BOLB   C2C 3882  16.131   1.123  27.512 -0.1685 -0.2254  0.0441
  162BOLB   C3C 3883  16.336   1.467  27.600  0.2169 -0.0678  0.1537
  162BOLB   C4C 3884  16.471   1.814  27.742 -0.1942  0.1723 -0.1951
  162BOLB   C1D 3885  15.896   0.789  28.162  0.3985 -0.0611  0.1415
  162BOLB   C2D 3886  15.857   1.148  27.934  0.1155 -0.2142  0.1160
  162BOLB   C3D 3887  15.741   1.571  28.027 -0.1758  0.2269  0.0444
  162BOLB   C4D 3888  15.487   1.969  28.150  0.0220 -0.2427 -0.1715
  163BOLB   NC1 3889  17.997   4.547  27.029 -0.2639 -0.2511 -0.1996
  163BOLB   PO1 3890  17.629   4.638  26.662 -0.0923  0.1087  0.0879
  163BOLB   GL1 3891  17.832   4.240  26.585 -0.1144 -0.0795 -0.1440
  163BOLB   GL2 3892  17.867   3.974  26.968  0.0891  0.1726  0.1554
  163BOLB   C1A 3893  18.052   3.797  26.446 -0.2057 -0.1033 -0.2443
  163BOLB   C2A 3894  18.148   3.447  26.387 -0.0431  0.1652 -0.1981
  163BOLB   C3A 3895  18.392   3.117  26.302  0.0118  0.0298 -0.0059
  163BOLB   C4A 3896  18.614   2.833  26.469 -0.0427 -0.0203 -0.1794
  163BOLB   C1B 3897  17.610   3.771  26.603  0.1980 -0.1304  0.1077
  163BOLB   C2B 3898  17.667   3.343  26.316  0.2755  0.0489 -0.0716
  163BOLB   C3B 3899  17.750   2.807  26.310  0.2177 -0.1308  0.0288
  163BOLB   C4B 3900  18.120   2.626  26.528  0.0155  0.0639 -0.0341
  163BOLB   NC2 3901  20.041   0.831  26.240  0.1838 -0.1220  0.1530
  163BOLB   PO2 3902  19.803   0.888  25.925  0.0432  0.3551  0.1310
  163BOLB   GL3 3903  19.680   1.290  25.926  0.0577 -0.3421  0.0168
  163BOLB   GL4 3904  19.717   1.556  25.716  0.0558  0.1151  0.3109
  163BOLB   C1C 3905  19.413   1.569  26.144  0.0275  0.2144 -0.1151
  163BOLB   C2C 3906  19.058   1.863  26.234 -0.1317 -0.1912 -0.2458
  163BOLB   C3C 3907  18.962   2.155  26.522 -0.0610  0.0156  0.3500
  163BOLB   C4C 3908  18.955   2.604  26.477 -0.0404  0.2182 -0.1468
  163BOLB   C1D 3909  20.030   1.910  25.756 -0.2981 -0.0392 -0.4681
  163BOLB   C2D 3910  20.033   2.323  25.860 -0.0763  0.0171 -0.1067
  163BOLB   C3D 3911  19.800   2.598  26.045 -0.1003 -0.0103  0.1801
  163BOLB   C4D 3912  19.819   2.411  26.449  0.1529 -0.2201  0.2441
  164BOLB   NC1 3913   9.065   8.662  31.093  0.2340 -0.0537  0.1266
  164BOLB   PO1 3914   8.681   8.881  31.228  0.1165  0.0847 -0.0712
  164BOLB   GL1 3915   8.601   8.444  31.321  0.0298  0.0665 -0.0337
  164BOLB   GL2 3916   8.577   8.285  31.654 -0.2375  0.4136 -0.0141
  164BOLB   C1A 3917   8.131   8.310  31.483  0.1235  0.1458 -0.0108
  164BOLB   C2A 3918   7.707   8.135  31.636 -0.1350 -0.1075  0.1793
  164BOLB   C3A 3919   7.480   7.731  31.751  0.1129  0.0024 -0.1719
  164BOLB   C4A 3920   7.056   7.453  31.747 -0.0828 -0.0761 -0.2727
  164BOLB   C1B 3921   8.253   8.024  31.852  0.4624  0.0187 -0.1661
  164BOLB   C2B 3922   7.913   7.811  31.962 -0.0634  0.3146  0.0347
  164BOLB   C3B 3923   7.897   7.497  32.199 -0.0013  0.2369 -0.0946
  164BOLB   C4B 3924   7.701   7.110  32.419  0.2873 -0.0583  0.1660
  164BOLB   NC2 3925   5.387   5.785  31.908 -0.1810  0.0317 -0.1540
  164BOLB   PO2 3926   5.821   5.686  31.798 -0.1610  0.1845  0.1582
  164BOLB   GL3 3927   5.899   6.110  31.634  0.0315  0.1648 -0.3373
  164BOLB   GL4 3928   5.586   6.218  31.784  0.0969  0.1523 -0.0923
  164BOLB   C1C 3929   6.171   6.336  31.430 -0.0719 -0.1431 -0.0307
  164BOLB   C2C 3930   6.403   6.643  31.273  0.2858  0.2483 -0.0313
  164BOLB   C3C 3931   6.671   6.987  31.398  0.0984  0.0442 -0.1468
  164BOLB   C4C 3932   6.922   7.232  31.435 -0.4025  0.0820  0.2013
  164BOLB   C1D 3933   5.720   6.572  31.692 -0.1618  0.1647  0.3461
  164BOLB   C2D 3934   5.937   6.824  31.582 -0.0772 -0.0746  0.3890
  164BOLB   C3D 3935   6.302   7.108  31.699 -0.0354  0.0877  0.2677
  164BOLB   C4D 3936   6.572   7.455  31.677  0.1491 -0.0364  0.0521
  165BOLB   NC1 3937  13.598  18.471  22.943  0.1459 -0.1445  0.4645
  165BOLB   PO1 3938  13.674  18.513  22.470  0.0211 -0.2003  0.3592
  165BOLB   GL1 3939  13.444  18.716  22.080  0.0697  0.0381  0.0309
  165BOLB   GL2 3940  13.309  18.967  22.185 -0.1383  0.0033 -0.0717
  165BOLB   C1A 3941  13.574  18.956  21.728 -0.2597 -0.0264 -0.1193
  165BOLB   C2A 3942  13.507  19.278  21.525  0.0786 -0.1252 -0.1765
  165BOLB   C3A 3943  13.248  19.488  21.159 -0.1916  0.1805 -0.0633
  165BOLB   C4A 3944  13.088  19.883  21.106  0.0368  0.1121 -0.3064
  165BOLB   C1B 3945  13.037  19.376  22.195  0.0111 -0.1120  0.0189
  165BOLB   C2B 3946  12.705  19.721  22.044 -0.2020 -0.1493  0.3881
  165BOLB   C3B 3947  12.513  19.826  21.618 -0.2845 -0.5065 -0.0886
  165BOLB   C4B 3948  12.783  20.160  21.348  0.0211  0.1520  0.2147
  165BOLB   NC2 3949  12.956  21.479  19.287 -0.0981 -0.4361  0.4150
  165BOLB   PO2 3950  12.594  21.442  19.505 -0.0252  0.0178 -0.0841
  165BOLB   GL3 3951  12.524  21.139  19.833 -0.1927 -0.0417 -0.1798
  165BOLB   GL4 3952  12.282  21.226  20.134  0.1057  0.0505  0.0276
  165BOLB   C1C 3953  12.697  20.891  20.141  0.0080  0.0827 -0.0323
  165BOLB   C2C 3954  13.075  20.849  20.391 -0.1101 -0.1430  0.0673
  165BOLB   C3C 3955  13.176  20.732  20.833 -0.2709  0.1028 -0.1871
  165BOLB   C4C 3956  13.006  20.349  20.943  0.0227 -0.1256  0.2102
  165BOLB   C1D 3957  12.127  20.881  20.378 -0.2518 -0.0262  0.1349
  165BOLB   C2D 3958  12.211  20.667  20.814 -0.1679 -0.0584 -0.2513
  165BOLB   C3D 3959  12.198  20.326  21.173  0.0737 -0.1497 -0.0846
  165BOLB   C4D 3960  12.155  19.889  21.256 -0.2509  0.1616 -0.0526
  166BOLB   NC1 3961  18.974   4.693  32.367 -0.0421 -0.0733  0.0999
  166BOLB   PO1 3962  19.073   4.473  32.008  0.0318 -0.0648  0.1236
  166BOLB   GL1 3963  18.963   4.172  32.190  0.1333  0.1314 -0.1197
  166BOLB   GL2 3964  18.792   4.237  32.537  0.0442  0.2732 -0.1101
  166BOLB   C1A 3965  19.221   3.866  32.299  0.2606 -0.3082 -0.1377
  166BOLB   C2A 3966  19.562   3.764  32.671  0.2452  0.4058  0.2235
  166BOLB   C3A 3967  19.762   3.351  32.662  0.2480 -0.0486  0.0022
  166BOLB   C4A 3968  19.661   3.031  32.327 -0.0769 -0.0735  0.2049
  166BOLB   C1B 3969  18.679   3.988  32.850  0.0160  0.2762 -0.1192
  166BOLB   C2B 3970  18.676   3.666  33.101  0.1285 -0.1189  0.0027
  166BOLB   C3B 3971  18.729   3.159  33.035  0.1699 -0.2304  0.1152
  166BOLB   C4B 3972  19.058   2.888  33.258  0.2799  0.2958  0.0894
  166BOLB   NC2 3973  20.429   0.889  31.849  0.2766 -0.0342 -0.0855
  166BOLB   PO2 3974  20.132   0.612  31.653  0.6241  0.0861  0.4826
  166BOLB   GL3 3975  20.002   1.014  31.547 -0.2183 -0.0381 -0.0512
  166BOLB   GL4 3976  20.082   1.184  31.207  0.1467  0.0135  0.0520
  166BOLB   C1C 3977  19.920   1.468  31.770 -0.0034  0.3577  0.2470
  166BOLB   C2C 3978  19.975   1.899  31.737  0.0412 -0.0669 -0.1792
  166BOLB   C3C 3979  19.811   2.236  31.896  0.0870 -0.0027  0.2354
  166BOLB   C4C 3980  19.668   2.682  32.226 -0.0391  0.1712 -0.2644
  166BOLB   C1D 3981  19.790   1.508  31.194  0.0289 -0.0840 -0.1024
  166BOLB   C2D 3982  19.714   1.909  31.216  0.2484  0.4508  0.2663
  166BOLB   C3D 3983  19.781   2.284  31.037 -0.0735  0.1075  0.0473
  166BOLB   C4D 3984  19.610   2.585  30.870 -0.0620 -0.0380  0.2246
  167BOLB   NC1 3985  22.981   4.308  38.244 -0.2545 -0.3445  0.0600
  167BOLB   PO1 3986  23.022   4.781  38.345 -0.0924  0.1590  0.0813
  167BOLB   GL1 3987  22.902   5.197  38.286 -0.1362  0.0876  0.2578
  167BOLB   GL2 3988  22.981   5.542  38.142  0.1498  0.2009  0.0019
  167BOLB   C1A 3989  22.505   5.288  38.264  0.0863  0.0652  0.2748
  167BOLB   C2A 3990  22.194   5.613  38.241  0.1846  0.0166 -0.2543
  167BOLB   C3A 3991  21.820   5.735  38.380  0.1043 -0.3585  0.1515
  167BOLB   C4A 3992  21.532   6.100  38.434  0.1089  0.1927 -0.1298
  167BOLB   C1B 3993  23.040   5.791  37.837 -0.0610 -0.3675 -0.1551
  167BOLB   C2B 3994  22.694   6.138  37.908 -0.0212 -0.4033  0.0387
  167BOLB   C3B 3995  22.468   6.463  37.767 -0.0356 -0.0725  0.1539
  167BOLB   C4B 3996  22.101   6.732  37.773  0.2147  0.2518 -0.0290
  167BOLB   NC2 3997  21.773   4.582  39.967 -0.2656 -0.2890  0.0648
  167BOLB   PO2 3998  21.909   4.748  39.598 -0.1541  0.0831  0.1442
  167BOLB   GL3 3999  21.586   5.083  39.641  0.1952  0.0975 -0.1661
  167BOLB   GL4 4000  21.328   4.982  39.813 -0.0742 -0.3579  0.0689
  167BOLB   C1C 4001  21.362   5.483  39.550  0.0495 -0.0769 -0.0334
  167BOLB   C2C 4002  21.405   5.724  39.307 -0.4749 -0.1304 -0.1843
  167BOLB   C3C 4003  21.141   5.859  39.086  0.0274  0.1110  0.0062
  167BOLB   C4C 4004  21.298   6.114  38.790  0.0490 -0.0224  0.1174
  167BOLB   C1D 4005  20.858   5.015  39.704  0.1328 -0.0517 -0.0582
  167BOLB   C2D 4006  20.553   5.295  39.765 -0.1107  0.0028  0.1440
  167BOLB   C3D 4007  20.273   5.612  39.541 -0.1551  0.2923  0.1387
  167BOLB   C4D 4008  19.916   5.763  39.155 -0.0321  0.3898 -0.2290
  168BOLB   NC1 4009  14.468  21.212  27.174  0.1650  0.2739  0.2819
  168BOLB   PO1 4010  14.823  21.093  26.967 -0.0114 -0.2659  0.1127
  168BOLB   GL1 4011  15.081  21.412  27.065 -0.0155 -0.1048  0.0800
  168BOLB   GL2 4012  15.319  21.342  27.328  0.2075  0.1136 -0.1710
  168BOLB   C1A 4013  15.263  21.785  26.839  0.2421  0.0153 -0.1387
  168BOLB   C2A 4014  15.242  22.275  26.658  0.0445  0.1723  0.3184
  168BOLB   C3A 4015  15.091  22.498  26.273 -0.1411  0.1946  0.1303
  168BOLB   C4A 4016  15.051  22.923  26.232  0.1257 -0.1915  0.3329
  168BOLB   C1B 4017  15.236  21.833  27.364  0.0242  0.1952  0.1957
  168BOLB   C2B 4018  15.261  22.185  27.201  0.1865  0.3161 -0.0946
  168BOLB   C3B 4019  15.093  22.563  27.162  0.0251  0.5162 -0.2114
  168BOLB   C4B 4020  15.075  23.002  27.113 -0.1391  0.0898 -0.0456
  168BOLB   NC2 4021  15.671  24.826  25.999  0.2046 -0.1556  0.5553
  168BOLB   PO2 4022  15.485  24.969  25.547 -0.2897 -0.3995 -0.2888
  168BOLB   GL3 4023  15.232  24.656  25.700 -0.2127  0.2067  0.2205
  168BOLB   GL4 4024  15.469  24.331  25.724 -0.4407 -0.0956 -0.2919
  168BOLB   C1C 4025  14.966  24.489  26.133 -0.1915  0.1708  0.0597
  168BOLB   C2C 4026  14.632  24.283  26.169 -0.0280  0.2560  0.1851
  168BOLB   C3C 4027  14.582  23.784  26.240 -0.0950 -0.2641 -0.0743
  168BOLB   C4C 4028  14.774  23.303  26.094 -0.0256  0.0183  0.2147
  168BOLB   C1D 4029  15.648  23.953  25.783 -0.1150 -0.1712 -0.3502
  168BOLB   C2D 4030  15.572  23.569  25.983  0.4986  0.1324 -0.1021
  168BOLB   C3D 4031  15.379  23.299  26.154  0.2230 -0.3327 -0.2643
  168BOLB   C4D 4032  15.518  22.808  26.076  0.0507  0.0501 -0.0093
  169BOLB   NC1 4033  10.154  19.420  33.789 -0.1224  0.0095  0.2524
  169BOLB   PO1 4034  10.641  19.431  33.574  0.0372 -0.0094  0.1439
  169BOLB   GL1 4035  10.675  19.837  33.670 -0.0046 -0.0708 -0.0503
  169BOLB   GL2 4036  10.385  19.908  33.745  0.1826  0.1613  0.2227
  169BOLB   C1A 4037  10.673  20.224  33.936  0.0725 -0.3082 -0.1936
  169BOLB   C2A 4038  10.505  20.631  34.249  0.1481 -0.0184  0.3602
  169BOLB   C3A 4039  10.401  21.098  34.323  0.1104 -0.0370 -0.0794
  169BOLB   C4A 4040  10.468  21.456  34.542 -0.1235  0.1278  0.1278
  169BOLB   C1B 4041   9.971  20.007  34.060 -0.1957  0.2641  0.0244
  169BOLB   C2B 4042   9.670  20.259  34.274 -0.1591 -0.0357 -0.0305
  169BOLB   C3B 4043   9.404  20.498  34.409  0.0072  0.2190 -0.0394
  169BOLB   C4B 4044   9.007  20.707  34.454  0.1382  0.0678  0.0379
  169BOLB   NC2 4045   9.692  23.246  35.319  0.0149  0.3025 -0.0156
  169BOLB   PO2 4046   9.271  23.093  35.195 -0.2600  0.1756 -0.2731
  169BOLB   GL3 4047   9.502  22.926  34.962  0.2691  0.0746 -0.2871
  169BOLB   GL4 4048   9.745  23.097  34.870  0.1474  0.2997 -0.1070
  169BOLB   C1C 4049   9.590  22.623  34.918  0.1986 -0.2401 -0.0122
  169BOLB   C2C 4050   9.933  22.432  35.163  0.1154  0.2540  0.0935
  169BOLB   C3C 4051  10.357  22.264  35.023 -0.1172 -0.0954  0.0400
  169BOLB   C4C 4052  10.361  21.803  34.900 -0.3839  0.1327 -0.2854
  169BOLB   C1D 4053  10.072  22.897  34.660  0.2160 -0.0266  0.0170
  169BOLB   C2D 4054  10.045  22.419  34.709 -0.0636  0.0958  0.1478
  169BOLB   C3D 4055   9.899  22.013  34.816  0.2876 -0.2136 -0.1550
  169BOLB   C4D 4056   9.898  21.554  34.830 -0.2212 -0.1965 -0.3335
  170BOLB   NC1 4057  20.118  17.627  35.527  0.0744 -0.1336 -0.0569
  170BOLB   PO1 4058  20.080  17.388  35.927  0.0365 -0.2844 -0.0706
  170BOLB   GL1 4059  20.438  17.729  35.866 -0.1991 -0.0647  0.0106
  170BOLB   GL2 4060  20.556  17.748  36.118  0.3383 -0.0992 -0.2758
  170BOLB   C1A 4061  20.886  18.038  35.726 -0.0775  0.2678 -0.1575
  170BOLB   C2A 4062  21.238  18.383  35.748 -0.0610  0.0918 -0.0565
  170BOLB   C3A 4063  21.610  18.636  35.829 -0.3689  0.1018  0.3507
  170BOLB   C4A 4064  21.745  19.087  35.926  0.0265 -0.0461  0.1160
  170BOLB   C1B 4065  20.917  18.006  36.319  0.2356  0.2047 -0.0647
  170BOLB   C2B 4066  21.249  18.112  36.704 -0.4363 -0.1896  0.1793
  170BOLB   C3B 4067  21.344  18.526  36.729 -0.2998 -0.1205 -0.1320
  170BOLB   C4B 4068  21.457  18.630  37.105  0.0897  0.0192 -0.1004
  170BOLB   NC2 4069  22.753  20.882  36.651 -0.0186 -0.3382  0.0709
  170BOLB   PO2 4070  22.516  20.944  37.034 -0.1915  0.2181 -0.2341
  170BOLB   GL3 4071  22.316  20.452  36.782 -0.1525 -0.1344 -0.0779
  170BOLB   GL4 4072  22.476  20.283  36.684  0.0975  0.0970 -0.0717
  170BOLB   C1C 4073  21.960  20.250  36.535 -0.1235  0.1398 -0.1409
  170BOLB   C2C 4074  21.655  20.010  36.622  0.2583 -0.0619  0.3449
  170BOLB   C3C 4075  21.457  19.703  36.317  0.0004 -0.0849  0.1210
  170BOLB   C4C 4076  21.513  19.362  36.014  0.2725  0.0841  0.1650
  170BOLB   C1D 4077  22.385  19.899  36.753 -0.0573  0.1680  0.1062
  170BOLB   C2D 4078  22.413  19.407  36.737 -0.1235 -0.0635 -0.1356
  170BOLB   C3D 4079  22.186  19.036  36.681 -0.0258  0.1684 -0.1105
  170BOLB   C4D 4080  21.892  18.544  36.544  0.4674 -0.0022 -0.1039
  171BOLB   NC1 4081  20.334   1.899  23.042 -0.1281 -0.5200  0.0617
  171BOLB   PO1 4082  19.901   1.808  23.019  0.0130 -0.3675 -0.3597
  171BOLB   GL1 4083  19.825   1.934  23.500  0.2940  0.0880 -0.0099
  171BOLB   GL2 4084  19.540   1.994  23.611 -0.0034 -0.2021 -0.0162
  171BOLB   C1A 4085  20.027   2.357  23.829 -0.1235  0.0874  0.1518
  171BOLB   C2A 4086  19.814   2.706  23.697  0.1704  0.1396  0.1274
  171BOLB   C3A 4087  19.505   3.112  23.828 -0.1230 -0.1393 -0.1727
  171BOLB   C4A 4088  19.509   3.474  23.889 -0.2836  0.2782 -0.1293
  171BOLB   C1B 4089  19.406   2.369  23.676  0.2757  0.2345  0.1409
  171BOLB   C2B 4090  19.176   2.783  23.850  0.3314 -0.1924 -0.2584
  171BOLB   C3B 4091  18.839   2.937  24.115 -0.0791  0.4830 -0.3159
  171BOLB   C4B 4092  18.778   3.255  24.474 -0.0035 -0.0015 -0.0387
  171BOLB   NC2 4093  19.812   5.397  24.937 -0.0082  0.0077 -0.1638
  171BOLB   PO2 4094  19.481   5.524  24.826  0.2780  0.3583 -0.3141
  171BOLB   GL3 4095  19.462   5.308  24.545  0.1317  0.0203  0.2595
  171BOLB   GL4 4096  19.433   5.403  24.259 -0.1923 -0.0293 -0.0701
  171BOLB   C1C 4097  19.307   4.906  24.386  0.0424 -0.1877 -0.1408
  171BOLB   C2C 4098  19.551   4.540  24.262  0.2163  0.1651 -0.1884
  171BOLB   C3C 4099  19.656   4.184  24.294  0.2810  0.1167 -0.1010
  171BOLB   C4C 4100  19.709   3.769  24.179 -0.1834 -0.1999  0.1588
  171BOLB   C1D 4101  19.525   5.190  23.906 -0.1097 -0.1221 -0.0793
  171BOLB   C2D 4102  19.540   4.842  23.666 -0.0574 -0.1119 -0.0928
  171BOLB   C3D 4103  19.634   4.424  23.799  0.0020  0.0285  0.1148
  171BOLB   C4D 4104  19.582   4.009  23.651  0.2530  0.0310  0.2247
  172BOLB   NC1 4105  25.767  14.664  21.704  0.4747  0.0361  0.2610
  172BOLB   PO1 4106  25.775  14.195  21.774  0.6180 -0.0891 -0.0257
  172BOLB   GL1 4107  25.493  13.824  21.817 -0.0767 -0.2939 -0.0818
  172BOLB   GL2 4108  25.501  13.640  22.070  0.2592  0.2878 -0.0939
  172BOLB   C1A 4109  25.234  13.673  21.579  0.0974  0.1745  0.2469
  172BOLB   C2A 4110  24.943  13.579  21.183 -0.3127  0.2266 -0.1657
  172BOLB   C3A 4111  24.465  13.681  21.125  0.1060 -0.0827 -0.0373
  172BOLB   C4A 4112  24.072  13.899  21.279 -0.2541 -0.2425  0.1717
  172BOLB   C1B 4113  25.078  13.604  22.079 -0.0464  0.0071 -0.1893
  172BOLB   C2B 4114  24.834  13.773  22.415  0.3900  0.3978 -0.2864
  172BOLB   C3B 4115  24.754  13.880  22.867 -0.3902 -0.0178  0.2108
  172BOLB   C4B 4116  24.569  13.876  23.241 -0.0419 -0.1352 -0.1819
  172BOLB   NC2 4117  25.526  15.510  21.312 -0.1658  0.2142 -0.1853
  172BOLB   PO2 4118  25.117  15.526  21.073 -0.1392  0.0564 -0.0682
  172BOLB   GL3 4119  24.685  15.404  21.210  0.0080 -0.4776  0.3332
  172BOLB   GL4 4120  24.475  15.643  21.188 -0.1246  0.3712  0.0408
  172BOLB   C1C 4121  24.431  15.211  21.415  0.0510 -0.1380  0.1247
  172BOLB   C2C 4122  24.171  14.985  21.563  0.1902 -0.2775 -0.2306
  172BOLB   C3C 4123  23.912  14.597  21.380 -0.1720  0.2092 -0.0039
  172BOLB   C4C 4124  23.867  14.269  21.278 -0.2261  0.4308 -0.0594
  172BOLB   C1D 4125  24.031  15.538  21.031 -0.2827  0.2721  0.2721
  172BOLB   C2D 4126  23.663  15.854  21.069  0.2983 -0.0746  0.0875
  172BOLB   C3D 4127  23.350  15.985  21.381 -0.0315 -0.1424  0.2750
  172BOLB   C4D 4128  23.297  16.261  21.715  0.0930 -0.2095 -0.1901
  173BOLB   NC1 4129  12.936   3.591  21.111  0.0740  0.1108  0.1740
  173BOLB   PO1 4130  12.950   3.184  21.411 -0.3835  0.0029  0.1757
  173BOLB   GL1 4131  13.112   3.510  21.622 -0.1604  0.0002 -0.2747
  173BOLB   GL2 4132  13.305   3.802  21.496 -0.0575  0.0660 -0.4319
  173BOLB   C1A 4133  13.304   3.692  21.962  0.0280  0.0629  0.0990
  173BOLB   C2A 4134  13.416   4.147  22.290 -0.0502  0.0178  0.3661
  173BOLB   C3A 4135  13.153   4.500  22.399 -0.0952  0.0675 -0.1625
  173BOLB   C4A 4136  12.855   4.729  22.473  0.3378 -0.2117  0.3921
  173BOLB   C1B 4137  13.566   4.079  21.799 -0.1411 -0.0283 -0.4182
  173BOLB   C2B 4138  13.634   4.477  21.954 -0.1557  0.0256  0.2291
  173BOLB   C3B 4139  13.769   4.911  22.169  0.0622 -0.2796  0.1415
  173BOLB   C4B 4140  13.832   5.060  22.552 -0.1897  0.3721  0.0644
  173BOLB   NC2 4141  11.754   4.917  20.249 -0.1215  0.0124 -0.1277
  173BOLB   PO2 4142  12.042   4.653  20.429 -0.2388 -0.2056 -0.1321
  173BOLB   GL3 4143  11.910   5.025  20.757 -0.0032  0.1832 -0.0801
  173BOLB   GL4 4144  11.647   5.001  20.945  0.1238  0.0019  0.0753
  173BOLB   C1C 4145  12.211   5.192  21.115 -0.0712  0.1561 -0.0909
  173BOLB   C2C 4146  12.369   4.996  21.549  0.1628 -0.2776 -0.2338
  173BOLB   C3C 4147  12.241   4.834  21.934 -0.0780 -0.0292  0.1415
  173BOLB   C4C 4148  12.547   5.015  22.330 -0.1707  0.2070  0.1116
  173BOLB   C1D 4149  11.722   5.349  21.148  0.3780 -0.2910 -0.0140
  173BOLB   C2D 4150  11.687   5.788  21.535  0.0837 -0.1313  0.1627
  173BOLB   C3D 4151  11.803   6.181  21.581 -0.1987 -0.3173 -0.2098
  173BOLB   C4D 4152  11.921   6.360  21.982 -0.1279 -0.1741  0.0536
  174BOLB   NC1 4153  18.236  18.987  30.854  0.0097  0.0597  0.4490
  174BOLB   PO1 4154  18.535  19.253  31.079  0.0664  0.1023 -0.0858
  174BOLB   GL1 4155  18.798  19.597  30.983 -0.1221 -0.5352  0.0783
  174BOLB   GL2 4156  18.992  19.598  31.210  0.0598  0.0228  0.3849
  174BOLB   C1A 4157  18.894  19.941  30.830 -0.0590 -0.1910  0.1800
  174BOLB   C2A 4158  19.157  20.324  30.874  0.2226 -0.1109 -0.0699
  174BOLB   C3A 4159  19.259  20.735  30.635  0.2216 -0.1329  0.3448
  174BOLB   C4A 4160  19.548  20.905  30.295  0.1808 -0.1480 -0.1041
  174BOLB   C1B 4161  19.288  19.747  31.142 -0.0983  0.1574 -0.0438
  174BOLB   C2B 4162  19.479  20.096  31.111 -0.0752  0.1183  0.1293
  174BOLB   C3B 4163  19.625  20.532  31.078  0.2722  0.2695 -0.2583
  174BOLB   C4B 4164  19.447  21.027  31.136 -0.2027 -0.3179 -0.0415
  174BOLB   NC2 4165  21.446  22.398  29.845 -0.0671 -0.2607  0.1970
  174BOLB   PO2 4166  21.811  22.138  29.709 -0.2442 -0.0101  0.0874
  174BOLB   GL3 4167  21.429  21.922  30.043  0.2717 -0.1544  0.2443
  174BOLB   GL4 4168  21.593  21.576  30.059  0.0359 -0.2938 -0.1264
  174BOLB   C1C 4169  21.114  21.631  30.076  0.1430  0.1201 -0.1316
  174BOLB   C2C 4170  20.701  21.483  30.095  0.0342  0.1171 -0.1200
  174BOLB   C3C 4171  20.392  21.199  30.184  0.0542 -0.1313  0.1925
  174BOLB   C4C 4172  19.908  21.217  30.273 -0.0506  0.2078 -0.1021
  174BOLB   C1D 4173  21.403  21.144  30.118  0.0538 -0.0725  0.2687
  174BOLB   C2D 4174  21.007  21.123  30.323  0.0134 -0.3211  0.2585
  174BOLB   C3D 4175  20.722  20.834  30.515 -0.1805  0.0355 -0.0753
  174BOLB   C4D 4176  20.584  20.420  30.366  0.0954  0.2016  0.0062
  175BOLB   NC1 4177   8.731  13.791  25.166 -0.2129 -0.0633 -0.0949
  175BOLB   PO1 4178   9.168  13.989  24.924  0.3568  0.0817 -0.2247
  175BOLB   GL1 4179   8.869  13.859  24.681 -0.1077  0.0721  0.2093
  175BOLB   GL2 4180   8.545  13.915  24.675  0.0159 -0.0161 -0.0277
  175BOLB   C1A 4181   8.707  13.529  24.314 -0.0001 -0.3655 -0.1393
  175BOLB   C2A 4182   8.332  13.656  24.116 -0.3659  0.2059  0.1306
  175BOLB   C3A 4183   8.289  13.900  23.730  0.0186  0.0218  0.2199
  175BOLB   C4A 4184   7.985  14.092  23.435  0.0274 -0.0553  0.0625
  175BOLB   C1B 4185   8.110  14.066  24.705  0.1763  0.1339  0.3196
  175BOLB   C2B 4186   7.681  14.019  24.612  0.3204  0.1219  0.0442
  175BOLB   C3B 4187   7.467  13.635  24.593 -0.1498 -0.1107  0.2084
  175BOLB   C4B 4188   7.396  13.179  24.447  0.3273 -0.2318 -0.1386
  175BOLB   NC2 4189   5.595  15.118  22.539  0.1831 -0.1841  0.1779
  175BOLB   PO2 4190   5.924  14.862  22.362 -0.0387  0.0974 -0.1214
  175BOLB   GL3 4191   6.341  14.698  22.350 -0.1782 -0.1255  0.4965
  175BOLB   GL4 4192   6.638  14.749  22.262  0.0724  0.1202 -0.3402
  175BOLB   C1C 4193   6.511  14.260  22.480  0.0988  0.1519 -0.0906
  175BOLB   C2C 4194   6.904  14.022  22.865 -0.2333  0.2901  0.2294
  175BOLB   C3C 4195   7.256  14.054  23.079 -0.0825 -0.0616 -0.0918
  175BOLB   C4C 4196   7.606  14.190  23.108  0.1127  0.2363  0.0279
  175BOLB   C1D 4197   6.777  14.851  22.610 -0.0518 -0.0040  0.1594
  175BOLB   C2D 4198   7.016  14.929  23.017 -0.1119  0.0056 -0.1329
  175BOLB   C3D 4199   7.385  15.056  23.197  0.1170 -0.0381  0.0334
  175BOLB   C4D 4200   7.845  14.922  23.343  0.1457  0.1791 -0.0321
  176BOLB   NC1 4201  14.351   6.483  36.228 -0.2511  0.0843  0.1333
  176BOLB   PO1 4202  14.823   6.379  36.211 -0.0055 -0.1836 -0.2982
  176BOLB   GL1 4203  14.601   6.110  36.520 -0.0159  0.1558  0.3008
  176BOLB   GL2 4204  14.392   5.714  36.450  0.1070 -0.2956  0.1778
  176BOLB   C1A 4205  14.494   5.943  36.845 -0.0220 -0.1088  0.1185
  176BOLB   C2A 4206  14.422   5.515  37.146 -0.0767 -0.1167 -0.1140
  176BOLB   C3A 4207  14.400   5.214  37.397 -0.0673 -0.0251  0.2570
  176BOLB   C4A 4208  14.532   4.995  37.782 -0.1446 -0.1067 -0.1076
  176BOLB   C1B 4209  14.173   5.569  36.709  0.2235 -0.1776 -0.1153
  176BOLB   C2B 4210  13.991   5.282  36.909 -0.1412  0.0663 -0.1230
  176BOLB   C3B 4211  14.053   4.939  37.110 -0.1538 -0.0649 -0.3870
  176BOLB   C4B 4212  14.460   4.734  37.256 -0.0202 -0.0093  0.2173
  176BOLB   NC2 4213  14.855   2.874  38.693  0.0440 -0.1761 -0.1002
  176BOLB   PO2 4214  14.670   3.131  39.078  0.1471  0.4187  0.0377
  176BOLB   GL3 4215  14.850   3.419  38.848  0.0579  0.0813 -0.3317
  176BOLB   GL4 4216  15.081   3.327  38.828  0.0712  0.1325  0.0407
  176BOLB   C1C 4217  14.761   3.725  38.607  0.1658 -0.3306  0.0734
  176BOLB   C2C 4218  14.643   4.026  38.429 -0.0004 -0.0356 -0.1648
  176BOLB   C3C 4219  14.494   4.508  38.375 -0.0792  0.1255 -0.2359
  176BOLB   C4C 4220  14.577   4.880  38.219  0.1628  0.1063 -0.4059
  176BOLB   C1D 4221  15.096   3.403  38.388  0.0752 -0.0600  0.0024
  176BOLB   C2D 4222  14.979   3.746  38.111  0.3932 -0.0266  0.0529
  176BOLB   C3D 4223  15.229   4.052  37.740  0.1872 -0.3458  0.1462
  176BOLB   C4D 4224  15.355   4.397  37.729  0.1376 -0.1719  0.2590
  177BOLB   NC1 4225   8.929  18.613  30.068  0.3417  0.1359 -0.1707
  177BOLB   PO1 4226   8.506  18.400  30.135  0.0764 -0.0075  0.1565
  177BOLB   GL1 4227   8.118  18.685  30.223  0.0112 -0.4310  0.1488
  177BOLB   GL2 4228   8.033  18.899  30.494 -0.1305 -0.2224 -0.2039
  177BOLB   C1A 4229   7.675  18.581  30.235  0.2873 -0.0113 -0.1602
  177BOLB   C2A 4230   7.224  18.609  30.335 -0.1062  0.1735  0.1326
  177BOLB   C3A 4231   6.823  18.712  30.612  0.2204  0.1463  0.0932
  177BOLB   C4A 4232   6.411  18.564  30.481  0.2972  0.2812  0.1377
  177BOLB   C1B 4233   7.635  19.076  30.323 -0.2872 -0.1875 -0.2065
  177BOLB   C2B 4234   7.199  19.144  30.270 -0.1770  0.1250 -0.2103
  177BOLB   C3B 4235   6.801  18.736  30.146  0.1089  0.0033 -0.0881
  177BOLB   C4B 4236   6.463  18.624  29.893 -0.1190  0.1512  0.2416
  177BOLB   NC2 4237   4.166  19.435  29.451 -0.0617  0.1483 -0.0538
  177BOLB   PO2 4238   4.163  19.810  29.557 -0.1747 -0.1754 -0.3720
  177BOLB   GL3 4239   4.529  19.622  29.778 -0.2091 -0.0600 -0.0296
  177BOLB   GL4 4240   4.682  19.445  29.530  0.0183 -0.0303  0.0002
  177BOLB   C1C 4241   4.889  19.461  30.037  0.3444  0.1004  0.0962
  177BOLB   C2C 4242   5.321  19.435  30.202 -0.0842 -0.1398 -0.1094
  177BOLB   C3C 4243   5.610  19.200  30.480 -0.0391  0.4664  0.1606
  177BOLB   C4C 4244   5.988  18.797  30.443 -0.2383  0.1130 -0.0484
  177BOLB   C1D 4245   4.862  19.003  29.629 -0.2045  0.1974 -0.0484
  177BOLB   C2D 4246   4.640  18.690  29.970 -0.3059  0.1089 -0.0927
  177BOLB   C3D 4247   4.895  18.554  30.365 -0.2687 -0.0784 -0.2647
  177BOLB   C4D 4248   5.156  18.366  30.736 -0.2378 -0.3228  0.1077
  178BOLB   NC1 4249  16.211  20.277  26.018  0.2758 -0.0895 -0.0996
  178BOLB   PO1 4250  15.960  20.599  26.095  0.3853 -0.2814 -0.0637
  178BOLB   GL1 4251  16.122  21.068  26.061 -0.1543 -0.0330 -0.0851
  178BOLB   GL2 4252  16.336  21.036  26.298  0.2091  0.3438 -0.1269
  178BOLB   C1A 4253  16.120  21.489  26.194  0.0038  0.0245  0.2766
  178BOLB   C2A 4254  16.194  21.861  26.278 -0.4126  0.0812  0.1826
  178BOLB   C3A 4255  16.146  22.320  26.392 -0.2882 -0.1022  0.0511
  178BOLB   C4A 4256  16.184  22.546  26.843 -0.1503  0.0018 -0.0009
  178BOLB   C1B 4257  16.125  21.195  26.671 -0.0172 -0.2600 -0.1117
  178BOLB   C2B 4258  16.091  21.702  26.779  0.1134  0.2959  0.0116
  178BOLB   C3B 4259  16.237  22.036  27.080  0.2939 -0.1059  0.1653
  178BOLB   C4B 4260  16.054  22.422  27.360 -0.1979 -0.5341 -0.0480
  178BOLB   NC2 4261  16.585  24.826  27.342  0.2665 -0.0505  0.0578
  178BOLB   PO2 4262  16.915  24.742  27.295  0.0500 -0.0414  0.0894
  178BOLB   GL3 4263  16.954  24.306  27.285 -0.4263 -0.2176  0.0024
  178BOLB   GL4 4264  17.227  24.189  27.294  0.0994  0.1983 -0.3867
  178BOLB   C1C 4265  16.733  23.973  27.167 -0.0863  0.1445 -0.1534
  178BOLB   C2C 4266  16.662  23.593  27.252 -0.0220 -0.0471  0.0153
  178BOLB   C3C 4267  16.458  23.193  27.164  0.0363 -0.0669 -0.1389
  178BOLB   C4C 4268  16.120  22.853  27.072  0.2235 -0.1680  0.1283
  178BOLB   C1D 4269  17.513  23.812  27.395  0.1479 -0.0380  0.1649
  178BOLB   C2D 4270  17.346  23.328  27.469  0.1661  0.0842 -0.0096
  178BOLB   C3D 4271  17.175  22.957  27.644 -0.0619 -0.1060 -0.0487
  178BOLB   C4D 4272  16.967  22.626  27.781 -0.3439 -0.0468 -0.3697
  179BOLB   NC1 4273  12.706   0.066  29.326  0.0830 -0.0611  0.1801
  179BOLB   PO1 4274  12.995   0.467  29.344 -0.0053  0.0754 -0.0027
  179BOLB   GL1 4275  13.161   0.893  29.298 -0.1915 -0.1432  0.2539
  179BOLB   GL2 4276  13.269   1.164  28.943  0.2706  0.1705 -0.0027
  179BOLB   C1A 4277  13.150   1.220  29.463 -0.1033  0.3158 -0.1547
  179BOLB   C2A 4278  13.158   1.615  29.314 -0.0943  0.2470  0.1292
  179BOLB   C3A 4279  13.335   2.019  29.278  0.1952 -0.2554  0.0877
  179BOLB   C4A 4280  13.594   2.409  29.208 -0.0203 -0.3114  0.2971
  179BOLB   C1B 4281  13.622   1.360  28.725 -0.0984 -0.0466  0.1796
  179BOLB   C2B 4282  13.816   1.782  28.799  0.0813 -0.0053 -0.3430
  179BOLB   C3B 4283  14.013   2.127  28.526 -0.1469  0.0304 -0.2484
  179BOLB   C4B 4284  14.160   2.480  28.134 -0.0298  0.1581 -0.2155
  179BOLB   NC2 4285  14.790   4.452  29.392  0.0455 -0.1945  0.2728
  179BOLB   PO2 4286  14.571   4.445  29.800 -0.0330 -0.4776 -0.1554
  179BOLB   GL3 4287  14.476   4.084  29.857 -0.0060  0.0453 -0.1060
  179BOLB   GL4 4288  14.090   3.844  29.656 -0.0872  0.0170  0.5284
  179BOLB   C1C 4289  14.349   3.699  30.085 -0.1620  0.0201 -0.1369
  179BOLB   C2C 4290  14.066   3.279  30.059  0.0056 -0.1123  0.0596
  179BOLB   C3C 4291  13.839   2.950  29.903 -0.0380 -0.1945  0.1453
  179BOLB   C4C 4292  13.730   2.755  29.524 -0.3779 -0.0581 -0.1717
  179BOLB   C1D 4293  14.494   3.653  29.622  0.1370 -0.0345  0.0123
  179BOLB   C2D 4294  14.629   3.190  29.811  0.2140  0.1393  0.0471
  179BOLB   C3D 4295  14.420   2.853  30.149  0.4109 -0.0092 -0.0561
  179BOLB   C4D 4296  14.063   2.653  30.417  0.1330  0.1348  0.1723
  180BOLB   NC1 4297  10.893  19.732  25.772 -0.0101  0.0874  0.0503
  180BOLB   PO1 4298  10.700  19.963  26.102 -0.0015 -0.3043  0.2086
  180BOLB   GL1 4299  10.547  20.140  25.620 -0.0323  0.0819  0.1060
  180BOLB   GL2 4300  10.705  20.055  25.310 -0.0783 -0.3413  0.0933
  180BOLB   C1A 4301  10.238  20.331  25.255 -0.0334  0.2036 -0.0251
  180BOLB   C2A 4302  10.198  20.540  24.883  0.1330  0.0815  0.0671
  180BOLB   C3A 4303  10.333  20.935  24.866 -0.2322  0.1082 -0.2136
  180BOLB   C4A 4304  10.369  21.094  24.464  0.0618  0.1123 -0.1944
  180BOLB   C1B 4305  10.728  20.377  24.974  0.1212 -0.1233  0.2581
  180BOLB   C2B 4306  10.728  20.708  24.652 -0.2761 -0.0445  0.1823
  180BOLB   C3B 4307  10.783  20.872  24.253 -0.0816  0.0509  0.2418
  180BOLB   C4B 4308  11.007  21.052  23.951 -0.0765 -0.2208  0.0687
  180BOLB   NC2 4309   9.931  23.094  22.723 -0.0379 -0.1669 -0.0236
  180BOLB   PO2 4310   9.783  22.700  22.809  0.3375 -0.2962 -0.2275
  180BOLB   GL3 4311  10.023  22.622  23.267  0.0665 -0.1089  0.1825
  180BOLB   GL4 4312  10.386  22.597  23.515 -0.0763  0.0782 -0.0035
  180BOLB   C1C 4313  10.031  22.278  23.591 -0.1986 -0.0044 -0.1375
  180BOLB   C2C 4314  10.358  21.982  23.740 -0.0220 -0.0235 -0.1305
  180BOLB   C3C 4315  10.408  21.691  24.027  0.0849 -0.1226  0.1963
  180BOLB   C4C 4316  10.658  21.345  24.215 -0.3604 -0.0135 -0.0304
  180BOLB   C1D 4317  10.767  22.344  23.607  0.2743  0.0938  0.0466
  180BOLB   C2D 4318  10.892  21.866  23.764  0.4370 -0.0762  0.1824
  180BOLB   C3D 4319  11.138  21.546  23.936  0.2380  0.1897 -0.1455
  180BOLB   C4D 4320  11.383  21.389  24.270  0.3476  0.2295  0.0888
  181BOLB   NC1 4321  26.651   7.618  24.239  0.0457  0.2025  0.0706
  181BOLB   PO1 4322  26.910   7.667  24.631  0.1818  0.1261 -0.1809
  181BOLB   GL1 4323  26.577   7.820  24.702  0.3336 -0.2371 -0.0991
  181BOLB   GL2 4324  26.342   8.114  24.744 -0.0800 -0.3151  0.0334
  181BOLB   C1A 4325  26.052   7.689  24.710 -0.0098  0.0109 -0.0490
  181BOLB   C2A 4326  25.628   7.792  24.697  0.0537  0.1515 -0.0769
  181BOLB   C3A 4327  25.275   8.084  24.508  0.0209 -0.3598 -0.1704
  181BOLB   C4A 4328  25.049   8.517  24.526  0.0872  0.0504 -0.1913
  181BOLB   C1B 4329  26.058   8.512  25.036 -0.0072  0.1666  0.0697
  181BOLB   C2B 4330  25.800   8.878  25.235  0.0227  0.2062  0.1039
  181BOLB   C3B 4331  25.460   9.130  24.882 -0.1092  0.1441 -0.1183
  181BOLB   C4B 4332  25.087   9.283  25.153 -0.4752 -0.1250  0.1666
  181BOLB   NC2 4333   0.397   9.547  23.925  0.1988 -0.1332 -0.2921
  181BOLB   PO2 4334   0.136   9.856  24.233 -0.3446 -0.0507 -0.1405
  181BOLB   GL3 4335  26.857   9.806  24.292  0.0357 -0.3558  0.2513
  181BOLB   GL4 4336  26.874   9.597  24.553  0.0677  0.0335 -0.2308
  181BOLB   C1C 4337  26.370   9.711  24.281 -0.1793  0.2731 -0.4160
  181BOLB   C2C 4338  25.992   9.431  24.375 -0.2900  0.1331  0.1606
  181BOLB   C3C 4339  25.619   9.172  24.395  0.0579 -0.1565  0.1573
  181BOLB   C4C 4340  25.220   8.944  24.511 -0.2083  0.0053  0.0703
  181BOLB   C1D 4341  26.450   9.507  24.754 -0.0724  0.2755 -0.0822
  181BOLB   C2D 4342  26.105   9.685  24.834 -0.0365 -0.0216 -0.2676
  181BOLB   C3D 4343  25.684   9.580  24.731  0.4956 -0.1020 -0.4017
  181BOLB   C4D 4344  25.235   9.437  24.576 -0.2652  0.0985  0.2308
  182BOLB   NC1 4345  11.104  19.888  26.609  0.0322 -0.1705 -0.0735
  182BOLB   PO1 4346  11.288  20.073  27.069  0.1708  0.0742 -0.1131
  182BOLB   GL1 4347  10.986  20.408  27.035 -0.3187  0.1395  0.1331
  182BOLB   GL2 4348  11.143  20.613  26.984 -0.3201  0.2840 -0.0788
  182BOLB   C1A 4349  10.635  20.632  27.156 -0.2282 -0.2004 -0.0778
  182BOLB   C2A 4350  10.507  21.022  27.081 -0.0089 -0.0466 -0.0176
  182BOLB   C3A 4351  10.259  21.251  27.211  0.0897  0.1205  0.2613
  182BOLB   C4A 4352  10.014  21.479  27.012 -0.1601 -0.0589  0.2955
  182BOLB   C1B 4353  11.060  20.988  27.039  0.2205  0.0884  0.0076
  182BOLB   C2B 4354  10.909  21.331  27.132  0.0068  0.1976  0.2100
  182BOLB   C3B 4355  10.615  21.585  27.037  0.2073 -0.2277  0.5044
  182BOLB   C4B 4356  10.402  21.732  26.744 -0.1935 -0.1584  0.1671
  182BOLB   NC2 4357   9.390  23.820  26.782 -0.1671  0.4305  0.0028
  182BOLB   PO2 4358   9.075  23.509  26.796  0.1793  0.0919 -0.0890
  182BOLB   GL3 4359   9.539  23.363  26.623  0.1529  0.1663  0.2326
  182BOLB   GL4 4360   9.505  23.564  26.402  0.6342 -0.4029  0.2376
  182BOLB   C1C 4361   9.857  23.060  26.333  0.0576 -0.1269  0.1251
  182BOLB   C2C 4362   9.860  22.605  26.348 -0.1109  0.0660  0.0463
  182BOLB   C3C 4363   9.728  22.207  26.542 -0.1379 -0.1587 -0.2808
  182BOLB   C4C 4364   9.941  21.977  26.839  0.2251  0.2669 -0.0533
  182BOLB   C1D 4365   9.491  23.237  26.022  0.4020 -0.0965  0.1216
  182BOLB   C2D 4366   9.703  22.893  25.909 -0.2157  0.0001 -0.2499
  182BOLB   C3D 4367  10.092  22.814  25.911 -0.3321 -0.2054  0.2683
  182BOLB   C4D 4368  10.503  22.785  25.813 -0.1848  0.0381 -0.2420
  183BOLB   NC1 4369  18.190   9.577  39.044 -0.1633  0.4038 -0.0005
  183BOLB   PO1 4370  17.940   9.759  39.223  0.2655  0.0160  0.3130
  183BOLB   GL1 4371  18.130   9.693  39.641 -0.2909 -0.0769 -0.4515
  183BOLB   GL2 4372  18.241  10.008  39.575 -0.4418  0.0503 -0.0414
  183BOLB   C1A 4373  18.002   9.745  40.017 -0.2836 -0.1897 -0.0098
  183BOLB   C2A 4374  17.764   9.716  40.503 -0.0457  0.3717  0.1728
  183BOLB   C3A 4375  17.849   9.501  40.858 -0.0709  0.0093  0.1154
  183BOLB   C4A 4376  18.131   9.372  41.200 -0.3109  0.2308  0.1343
  183BOLB   C1B 4377  18.445   9.941  39.998 -0.0034  0.3511  0.0625
  183BOLB   C2B 4378  18.406   9.857  40.381  0.4535 -0.1498  0.2566
  183BOLB   C3B 4379  18.245   9.796  40.744  0.1976  0.1165  0.2007
  183BOLB   C4B 4380  18.060   9.864  41.185  0.3310 -0.0484 -0.0041
  183BOLB   NC2 4381  18.579   9.498  43.463 -0.0388  0.0774  0.0265
  183BOLB   PO2 4382  18.914   9.115  43.569 -0.0003 -0.1087  0.0992
  183BOLB   GL3 4383  18.853   9.014  43.052  0.1707  0.1443 -0.1693
  183BOLB   GL4 4384  18.574   8.770  43.021 -0.1383 -0.2466  0.0866
  183BOLB   C1C 4385  18.887   9.233  42.631  0.2740  0.1818 -0.0461
  183BOLB   C2C 4386  19.002   9.247  42.201  0.2410 -0.1411  0.0827
  183BOLB   C3C 4387  18.807   9.185  41.827  0.2010 -0.0664  0.2648
  183BOLB   C4C 4388  18.365   9.191  41.509  0.1440 -0.1899 -0.1998
  183BOLB   C1D 4389  18.303   8.941  42.714 -0.0994 -0.0012  0.0829
  183BOLB   C2D 4390  18.418   9.226  42.295  0.2424 -0.1580 -0.1013
  183BOLB   C3D 4391  18.370   9.463  42.050  0.0795  0.0317  0.0310
  183BOLB   C4D 4392  18.196   9.739  41.711 -0.1757 -0.0594  0.0327
  184BOLB   NC1 4393   8.724  10.639  34.627  0.0980 -0.0293 -0.2126
  184BOLB   PO1 4394   8.958  10.600  35.063 -0.2053  0.1122  0.1657
  184BOLB   GL1 4395   8.579  10.429  35.132 -0.4735 -0.2784 -0.1511
  184BOLB   GL2 4396   8.223  10.669  34.968  0.1982 -0.0981 -0.1926
  184BOLB   C1A 4397   8.179  10.185  34.943  0.1816  0.0374  0.3705
  184BOLB   C2A 4398   7.744  10.183  35.178  0.2958 -0.0222 -0.0632
  184BOLB   C3A 4399   7.376  10.464  35.034  0.1811 -0.2355 -0.1920
  184BOLB   C4A 4400   6.979  10.481  35.212 -0.4845  0.0353 -0.3179
  184BOLB   C1B 4401   8.128  10.470  35.372 -0.3932 -0.1308  0.0022
  184BOLB   C2B 4402   8.009  10.503  35.818  0.3092 -0.0294 -0.2184
  184BOLB   C3B 4403   8.122  10.674  36.253  0.1673  0.1047 -0.0556
  184BOLB   C4B 4404   8.162  11.097  36.394 -0.2149  0.0129  0.0845
  184BOLB   NC2 4405   4.884  10.115  36.694  0.1909 -0.0852  0.1992
  184BOLB   PO2 4406   4.828  10.207  36.214 -0.0756  0.2013  0.1451
  184BOLB   GL3 4407   5.277  10.322  36.232 -0.0090  0.2719 -0.0760
  184BOLB   GL4 4408   5.385  10.138  35.978 -0.0162  0.3363  0.2714
  184BOLB   C1C 4409   5.706  10.423  36.273 -0.1319  0.0748 -0.0401
  184BOLB   C2C 4410   6.110  10.691  36.153 -0.2422 -0.4037  0.1615
  184BOLB   C3C 4411   6.399  10.710  35.778  0.0304  0.1867 -0.0861
  184BOLB   C4C 4412   6.638  10.406  35.482 -0.0238  0.1041  0.0964
  184BOLB   C1D 4413   5.677  10.470  35.772  0.0784  0.1482 -0.2940
  184BOLB   C2D 4414   5.988  10.771  35.531  0.0455 -0.1420  0.0661
  184BOLB   C3D 4415   6.323  10.799  35.264  0.3505 -0.1738  0.0523
  184BOLB   C4D 4416   6.664  10.834  35.161  0.0239  0.2174  0.1247
  185BOLB   NC1 4417   7.980  12.435  33.136  0.1315  0.1875  0.1289
  185BOLB   PO1 4418   7.986  12.030  33.343  0.1172  0.0600  0.0608
  185BOLB   GL1 4419   7.562  11.879  33.586  0.3411 -0.1006  0.0298
  185BOLB   GL2 4420   7.504  11.701  33.832  0.0007 -0.0119  0.1455
  185BOLB   C1A 4421   7.144  11.913  33.578  0.1429  0.0449  0.2681
  185BOLB   C2A 4422   6.763  11.704  33.740  0.1624 -0.0984  0.1444
  185BOLB   C3A 4423   6.400  11.517  33.852 -0.3028 -0.0678 -0.0863
  185BOLB   C4A 4424   5.985  11.450  34.034  0.0741 -0.1969  0.2442
  185BOLB   C1B 4425   7.225  11.697  34.172  0.0460 -0.0358 -0.5348
  185BOLB   C2B 4426   6.826  11.740  34.321 -0.1388 -0.1734 -0.1364
  185BOLB   C3B 4427   6.525  11.934  34.198  0.3845 -0.0767  0.0458
  185BOLB   C4B 4428   6.263  11.985  33.808 -0.1664  0.2108  0.0149
  185BOLB   NC2 4429   4.104  10.576  35.299 -0.0301  0.2573  0.3319
  185BOLB   PO2 4430   4.096  10.440  34.893  0.0768  0.0141  0.0895
  185BOLB   GL3 4431   4.561  10.541  34.981 -0.0901 -0.1183 -0.0426
  185BOLB   GL4 4432   4.866  10.303  35.115  0.0320 -0.2016  0.3408
  185BOLB   C1C 4433   4.920  10.830  34.925  0.1186 -0.1636  0.2245
  185BOLB   C2C 4434   5.049  11.205  34.759 -0.1259  0.2946  0.2605
  185BOLB   C3C 4435   5.352  11.448  34.596 -0.0614 -0.0191  0.3187
  185BOLB   C4C 4436   5.783  11.548  34.444 -0.1321  0.3380 -0.1369
  185BOLB   C1D 4437   5.113  10.405  34.730  0.1002  0.3328  0.2152
  185BOLB   C2D 4438   5.602  10.475  34.568  0.4732 -0.2024  0.0229
  185BOLB   C3D 4439   6.098  10.286  34.512  0.3520 -0.3784  0.0841
  185BOLB   C4D 4440   6.537  10.383  34.440  0.1704  0.1109 -0.0190
  186BOLB   NC1 4441   7.813  15.721  33.060  0.2792  0.0971  0.1434
  186BOLB   PO1 4442   7.754  15.321  32.856  0.0458  0.0144  0.2890
  186BOLB   GL1 4443   7.337  15.424  32.792  0.0645 -0.0422  0.2806
  186BOLB   GL2 4444   7.229  15.787  32.907  0.0298 -0.0344  0.2150
  186BOLB   C1A 4445   6.932  15.504  32.612 -0.3040 -0.0297 -0.1473
  186BOLB   C2A 4446   6.402  15.506  32.661 -0.1584  0.1650  0.1009
  186BOLB   C3A 4447   5.917  15.537  32.608 -0.0245  0.2354  0.0188
  186BOLB   C4A 4448   5.624  15.705  32.790 -0.1035 -0.0370 -0.1067
  186BOLB   C1B 4449   6.822  15.988  33.062 -0.3347 -0.4560 -0.0663
  186BOLB   C2B 4450   6.505  15.939  33.414  0.0990 -0.3678 -0.1291
  186BOLB   C3B 4451   6.097  15.903  33.574 -0.4196  0.0956 -0.1253
  186BOLB   C4B 4452   5.777  16.095  33.737 -0.0447  0.1074  0.1250
  186BOLB   NC2 4453   3.347  15.764  34.021 -0.2466  0.0161 -0.0003
  186BOLB   PO2 4454   3.271  15.297  33.825 -0.1202  0.0724  0.3633
  186BOLB   GL3 4455   3.736  15.204  33.649 -0.1092 -0.1116  0.3575
  186BOLB   GL4 4456   3.809  14.878  33.736 -0.0494  0.1771 -0.1846
  186BOLB   C1C 4457   4.009  15.398  33.397  0.0245  0.0965  0.1184
  186BOLB   C2C 4458   4.444  15.390  33.260  0.1355 -0.0384  0.0253
  186BOLB   C3C 4459   4.893  15.399  33.376  0.1828  0.0934 -0.5120
  186BOLB   C4C 4460   5.376  15.451  33.203  0.0907 -0.1879  0.2437
  186BOLB   C1D 4461   4.146  14.954  33.528  0.2589 -0.1242 -0.1629
  186BOLB   C2D 4462   4.575  15.048  33.574  0.1237 -0.1392  0.2586
  186BOLB   C3D 4463   4.969  14.965  33.585 -0.0139  0.0770 -0.3504
  186BOLB   C4D 4464   5.420  15.057  33.526 -0.0653  0.1162  0.2560
  187BOLB   NC1 4465   9.016   9.620  26.686 -0.2595  0.0011  0.1683
  187BOLB   PO1 4466   9.035   9.164  26.613 -0.0621  0.1185 -0.1705
  187BOLB   GL1 4467   8.754   8.997  26.451 -0.1849  0.0943 -0.0825
  187BOLB   GL2 4468   8.687   8.754  26.620  0.0978  0.0058 -0.1663
  187BOLB   C1A 4469   8.759   8.764  26.121  0.1796 -0.2074  0.0328
  187BOLB   C2A 4470   8.639   8.345  25.810  0.3316  0.1202 -0.0686
  187BOLB   C3A 4471   8.370   8.078  25.567 -0.0799 -0.0367 -0.0746
  187BOLB   C4A 4472   8.309   7.675  25.426  0.0725  0.0289  0.1421
  187BOLB   C1B 4473   8.364   8.362  26.777  0.0754 -0.0213 -0.2176
  187BOLB   C2B 4474   8.152   8.041  26.792 -0.0476  0.0433 -0.0620
  187BOLB   C3B 4475   7.739   7.952  26.595 -0.0173 -0.1501 -0.0976
  187BOLB   C4B 4476   7.490   8.078  26.269  0.2391  0.0832  0.1296
  187BOLB   NC2 4477   6.993   6.772  22.812 -0.0931 -0.0107  0.0939
  187BOLB   PO2 4478   7.156   7.050  23.183 -0.0153  0.1405  0.1262
  187BOLB   GL3 4479   7.290   7.138  23.602 -0.2945  0.0835 -0.0466
  187BOLB   GL4 4480   7.355   6.782  23.748 -0.0135 -0.3607 -0.0121
  187BOLB   C1C 4481   7.498   7.180  23.979  0.1608 -0.3641 -0.1694
  187BOLB   C2C 4482   7.877   7.087  24.291  0.2243  0.0787 -0.3007
  187BOLB   C3C 4483   8.005   7.310  24.698  0.3227  0.0347 -0.2159
  187BOLB   C4C 4484   8.278   7.368  25.118  0.3003 -0.0124 -0.2476
  187BOLB   C1D 4485   7.737   6.868  23.789 -0.3246 -0.2414  0.2639
  187BOLB   C2D 4486   8.189   6.854  23.914 -0.2639  0.1002 -0.1418
  187BOLB   C3D 4487   8.624   6.824  23.841  0.1610 -0.0948 -0.0284
  187BOLB   C4D 4488   8.879   7.115  23.840  0.0931 -0.1097  0.2873
  188BOLB   NC1 4489  12.405   5.260  29.640 -0.3657  0.4417  0.1280
  188BOLB   PO1 4490  12.400   5.078  29.984  0.2853 -0.0391 -0.0507
  188BOLB   GL1 4491  12.100   4.845  29.769  0.3376  0.1903 -0.1351
  188BOLB   GL2 4492  11.769   4.834  30.018 -0.0970  0.2512 -0.0340
  188BOLB   C1A 4493  12.063   4.387  29.957 -0.3827  0.1577 -0.0621
  188BOLB   C2A 4494  11.959   3.905  30.167  0.3139  0.2803  0.2589
  188BOLB   C3A 4495  11.709   3.481  30.262  0.1022 -0.0631  0.3301
  188BOLB   C4A 4496  11.623   3.174  30.581  0.0578  0.2785  0.0766
  188BOLB   C1B 4497  11.700   4.525  30.220 -0.1610  0.1866 -0.0013
  188BOLB   C2B 4498  11.620   4.218  29.974 -0.0196 -0.0871 -0.0494
  188BOLB   C3B 4499  11.508   3.842  29.927 -0.0747 -0.2941  0.1137
  188BOLB   C4B 4500  11.318   3.403  29.893 -0.2120 -0.2899 -0.0187
  188BOLB   NC2 4501  10.625   1.425  32.186 -0.2934  0.0679  0.1471
  188BOLB   PO2 4502  10.825   1.530  31.813  0.0970 -0.0575 -0.2639
  188BOLB   GL3 4503  10.796   1.977  31.584  0.0344 -0.2579  0.1356
  188BOLB   GL4 4504  10.573   1.887  31.367  0.1051 -0.1217 -0.2209
  188BOLB   C1C 4505  10.930   2.315  31.232  0.2571  0.1706 -0.0816
  188BOLB   C2C 4506  11.080   2.693  31.200 -0.1490 -0.0250  0.0124
  188BOLB   C3C 4507  11.248   2.998  31.068  0.1189 -0.0077 -0.0941
  188BOLB   C4C 4508  11.362   3.151  30.771  0.2136  0.0993 -0.0623
  188BOLB   C1D 4509  10.375   2.300  31.369  0.0570  0.0804 -0.0855
  188BOLB   C2D 4510  10.446   2.814  31.530  0.2693 -0.2225  0.7135
  188BOLB   C3D 4511  10.777   2.960  31.677 -0.2580  0.0774 -0.1674
  188BOLB   C4D 4512  11.189   3.116  31.802  0.1676  0.0438  0.0603
  189BOLB   NC1 4513   7.840  16.431  30.169 -0.2397 -0.0967 -0.1321
  189BOLB   PO1 4514   7.600  16.729  30.364  0.0495 -0.1154 -0.2148
  189BOLB   GL1 4515   7.402  16.292  30.270  0.0419  0.2282 -0.0056
  189BOLB   GL2 4516   7.289  16.061  30.342  0.2632  0.2537  0.2707
  189BOLB   C1A 4517   6.988  16.445  30.115 -0.2884 -0.0105  0.2593
  189BOLB   C2A 4518   6.740  16.651  30.319 -0.3347 -0.0088 -0.1851
  189BOLB   C3A 4519   6.406  16.846  30.457  0.0152 -0.0967 -0.3648
  189BOLB   C4A 4520   6.051  16.769  30.454 -0.0345 -0.1284 -0.3570
  189BOLB   C1B 4521   6.880  16.026  30.224  0.0334 -0.3311  0.0883
  189BOLB   C2B 4522   6.492  16.224  30.034 -0.0908 -0.0455 -0.1791
  189BOLB   C3B 4523   6.389  16.671  29.930 -0.1112  0.1541  0.1690
  189BOLB   C4B 4524   6.469  16.966  29.671  0.0974 -0.1380 -0.3096
  189BOLB   NC2 4525   3.760  17.577  30.127  0.1609  0.2376  0.1022
  189BOLB   PO2 4526   3.761  17.713  29.647  0.2645 -0.0964 -0.1944
  189BOLB   GL3 4527   4.259  17.564  29.642 -0.1577  0.0225  0.2901
  189BOLB   GL4 4528   4.349  17.767  29.408 -0.0054 -0.1718  0.0207
  189BOLB   C1C 4529   4.731  17.455  29.604 -0.3502 -0.1096  0.0441
  189BOLB   C2C 4530   4.903  17.308  29.872 -0.4987 -0.0856  0.2505
  189BOLB   C3C 4531   5.304  17.343  29.986  0.1250  0.3499 -0.2148
  189BOLB   C4C 4532   5.660  17.044  30.286 -0.2385  0.1231 -0.1920
  189BOLB   C1D 4533   4.630  17.547  29.152 -0.0141 -0.3226 -0.0870
  189BOLB   C2D 4534   4.845  17.187  29.196  0.2533  0.0108 -0.0988
  189BOLB   C3D 4535   4.917  16.928  29.544  0.0835 -0.0937  0.0482
  189BOLB   C4D 4536   5.080  16.591  29.534  0.0856 -0.3312 -0.2194
  190BOLB   NC1 4537   7.639  14.384  28.291  0.1346 -0.3485  0.2080
  190BOLB   PO1 4538   7.855  14.256  28.724 -0.3631  0.3352  0.0317
  190BOLB   GL1 4539   7.517  14.201  28.941  0.3273  0.2194 -0.3102
  190BOLB   GL2 4540   7.368  14.012  29.024 -0.1483  0.0806 -0.0814
  190BOLB   C1A 4541   7.128  14.416  29.096  0.0384 -0.1349  0.1420
  190BOLB   C2A 4542   6.855  14.794  29.167 -0.2191 -0.0807  0.1979
  190BOLB   C3A 4543   6.470  14.995  28.959 -0.1222 -0.1633  0.0056
  190BOLB   C4A 4544   6.124  15.176  28.580  0.2015  0.2430  0.0475
  190BOLB   C1B 4545   6.978  13.946  29.122 -0.1053 -0.0243 -0.1298
  190BOLB   C2B 4546   6.579  14.008  29.043 -0.0467  0.0889 -0.0596
  190BOLB   C3B 4547   6.197  13.926  28.852  0.1414  0.0900  0.0749
  190BOLB   C4B 4548   6.116  13.818  28.428  0.4985  0.0643 -0.0284
  190BOLB   NC2 4549   3.665  16.080  27.973 -0.0349  0.0828 -0.2010
  190BOLB   PO2 4550   3.954  15.738  27.900 -0.2339  0.0063 -0.0894
  190BOLB   GL3 4551   4.341  15.655  27.876 -0.0827 -0.3828  0.3011
  190BOLB   GL4 4552   4.553  15.735  27.629  0.0867  0.5222  0.1407
  190BOLB   C1C 4553   4.713  15.698  28.112 -0.0516  0.2958 -0.6683
  190BOLB   C2C 4554   5.133  15.694  28.040 -0.3554  0.0003 -0.2943
  190BOLB   C3C 4555   5.558  15.558  28.264  0.0900  0.0714 -0.0308
  190BOLB   C4C 4556   5.764  15.212  28.448  0.0394  0.0454 -0.1877
  190BOLB   C1D 4557   4.913  15.837  27.519 -0.1004  0.3583  0.2885
  190BOLB   C2D 4558   5.273  15.926  27.556  0.0453  0.0485  0.2202
  190BOLB   C3D 4559   5.616  16.176  27.582  0.0603  0.0873 -0.0377
  190BOLB   C4D 4560   6.076  16.111  27.560 -0.2252  0.2845 -0.2105
  191BOLB   NC1 4561  17.186  11.180  19.469  0.1739 -0.3127 -0.1512
  191BOLB   PO1 4562  17.222  10.877  19.146  0.1149  0.0382 -0.0700
  191BOLB   GL1 4563  17.155  10.552  18.825 -0.0880 -0.2129 -0.1481
  191BOLB   GL2 4564  17.196  10.182  18.688  0.0580  0.3148  0.0093
  191BOLB   C1A 4565  17.144  10.609  18.314 -0.4251 -0.0160  0.3475
  191BOLB   C2A 4566  17.068  10.795  17.902 -0.1175  0.0763  0.3786
  191BOLB   C3A 4567  16.873  10.876  17.451 -0.0574  0.4715  0.0267
  191BOLB   C4A 4568  16.426  10.824  17.211 -0.2286 -0.1114 -0.3374
  191BOLB   C1B 4569  17.011   9.957  18.326  0.0205 -0.0887  0.0320
  191BOLB   C2B 4570  16.932   9.706  17.982  0.1747  0.2627  0.2645
  191BOLB   C3B 4571  16.855   9.303  17.748 -0.0671  0.1014  0.1523
  191BOLB   C4B 4572  17.037   8.876  17.657  0.1400  0.1217  0.2164
  191BOLB   NC2 4573  14.831  11.289  15.395 -0.1021  0.2070 -0.0616
  191BOLB   PO2 4574  15.170  11.563  15.482  0.1149  0.2327  0.0800
  191BOLB   GL3 4575  15.195  11.410  15.896  0.1403  0.1670 -0.0121
  191BOLB   GL4 4576  14.905  11.436  16.158  0.2360 -0.1185 -0.0374
  191BOLB   C1C 4577  15.374  11.228  16.202 -0.0591  0.0228  0.0736
  191BOLB   C2C 4578  15.746  11.014  16.394  0.1689 -0.2161 -0.0538
  191BOLB   C3C 4579  15.751  10.688  16.725 -0.0386 -0.3516  0.0435
  191BOLB   C4C 4580  16.016  10.614  17.076  0.0426 -0.1180  0.3604
  191BOLB   C1D 4581  14.884  11.831  16.321  0.2712 -0.3163  0.1881
  191BOLB   C2D 4582  14.757  12.030  16.763 -0.0925  0.5398  0.2021
  191BOLB   C3D 4583  14.890  11.824  17.037  0.0127 -0.2059 -0.3757
  191BOLB   C4D 4584  15.170  11.432  17.225  0.3026  0.3030 -0.0824
  192BOLB   NC1 4585  21.123  15.750  27.735 -0.0185  0.0790 -0.0391
  192BOLB   PO1 4586  21.077  16.149  27.706  0.1982  0.2862 -0.2343
  192BOLB   GL1 4587  21.289  16.518  27.569  0.2099  0.3433  0.2928
  192BOLB   GL2 4588  21.631  16.444  27.714  0.3834  0.0207  0.1316
  192BOLB   C1A 4589  21.495  16.850  27.403  0.0271  0.1236  0.2487
  192BOLB   C2A 4590  21.772  16.844  27.104 -0.1642 -0.1208 -0.1837
  192BOLB   C3A 4591  21.995  16.541  26.920 -0.0849 -0.1267 -0.0759
  192BOLB   C4A 4592  22.422  16.740  26.891 -0.1141  0.1680  0.0765
  192BOLB   C1B 4593  21.838  16.548  28.125 -0.1302 -0.0420  0.4750
  192BOLB   C2B 4594  22.170  16.563  28.352  0.1690  0.2746 -0.1614
  192BOLB   C3B 4595  22.459  16.884  28.643  0.2361  0.0139  0.1181
  192BOLB   C4B 4596  22.787  17.080  28.915 -0.1832 -0.0353 -0.3754
  192BOLB   NC2 4597  24.180  17.468  26.638 -0.0701  0.0642  0.0355
  192BOLB   PO2 4598  24.577  17.263  26.670  0.1878 -0.1930  0.0948
  192BOLB   GL3 4599  24.222  16.945  26.706 -0.2896 -0.1537  0.3354
  192BOLB   GL4 4600  23.892  17.043  26.506 -0.1866 -0.0175  0.3270
  192BOLB   C1C 4601  23.840  16.730  26.877  0.1007 -0.0582  0.0363
  192BOLB   C2C 4602  23.459  16.797  27.035  0.1552  0.0955  0.2562
  192BOLB   C3C 4603  23.135  17.029  26.949 -0.0183  0.2196 -0.0288
  192BOLB   C4C 4604  22.766  16.979  26.828 -0.1480 -0.1360  0.1469
  192BOLB   C1D 4605  23.566  16.893  26.427 -0.0762  0.1125  0.1588
  192BOLB   C2D 4606  23.118  16.765  26.417  0.3026 -0.1648  0.3189
  192BOLB   C3D 4607  22.687  16.704  26.425  0.0420 -0.2409 -0.0152
  192BOLB   C4D 4608  22.227  16.561  26.479  0.3067 -0.2652 -0.0456
  193BOLB   NC1 4609  19.491   5.298  26.104  0.3874  0.1795 -0.3017
  193BOLB   PO1 4610  19.538   4.766  26.196  0.0645 -0.0463 -0.3076
  193BOLB   GL1 4611  19.755   4.576  25.875  0.0584  0.1447 -0.0691
  193BOLB   GL2 4612  19.479   4.392  25.799 -0.2538  0.0305  0.0702
  193BOLB   C1A 4613  20.032   4.337  25.617  0.1883 -0.2089 -0.2419
  193BOLB   C2A 4614  20.325   4.067  25.408 -0.0719 -0.2399 -0.1900
  193BOLB   C3A 4615  20.327   3.976  24.940  0.0261  0.2510 -0.2028
  193BOLB   C4A 4616  20.537   3.734  24.739  0.2103 -0.0244 -0.2417
  193BOLB   C1B 4617  19.665   3.973  25.616  0.2960 -0.1874 -0.0172
  193BOLB   C2B 4618  19.803   3.653  25.800 -0.0303 -0.2149  0.6228
  193BOLB   C3B 4619  20.203   3.716  25.785 -0.0940  0.1485  0.1091
  193BOLB   C4B 4620  20.428   3.521  25.842  0.3169  0.1740  0.2284
  193BOLB   NC2 4621  20.570   1.269  25.060  0.2127  0.1019 -0.2756
  193BOLB   PO2 4622  20.610   1.375  24.689 -0.1771 -0.1442 -0.0850
  193BOLB   GL3 4623  20.519   1.705  24.899 -0.1215  0.0917 -0.0127
  193BOLB   GL4 4624  20.244   1.772  24.758  0.0375 -0.1020  0.1115
  193BOLB   C1C 4625  20.563   2.128  24.821  0.2690 -0.0327 -0.0743
  193BOLB   C2C 4626  20.348   2.498  24.746  0.3924 -0.0579  0.1150
  193BOLB   C3C 4627  20.417   2.907  24.540 -0.1002  0.3815 -0.1284
  193BOLB   C4C 4628  20.508   3.338  24.552 -0.3441 -0.0907  0.0413
  193BOLB   C1D 4629  19.983   2.116  24.900  0.0811  0.3448  0.0236
  193BOLB   C2D 4630  19.791   2.404  25.034  0.1697 -0.1519  0.1350
  193BOLB   C3D 4631  19.466   2.589  25.205  0.3228  0.2192 -0.1346
  193BOLB   C4D 4632  19.105   2.867  25.411  0.1110 -0.1719 -0.2034
  194BOLB   NC1 4633   7.601  14.723  29.799  0.4558 -0.0415 -0.0271
  194BOLB   PO1 4634   7.651  14.328  29.477 -0.1705 -0.1548  0.0705
  194BOLB   GL1 4635   7.273  14.214  29.675 -0.2556  0.0324  0.0226
  194BOLB   GL2 4636   7.211  13.890  29.596  0.1055 -0.0936 -0.1441
  194BOLB   C1A 4637   6.959  14.297  29.887 -0.1124  0.3129 -0.1882
  194BOLB   C2A 4638   6.583  14.316  29.785  0.3406 -0.0312 -0.0590
  194BOLB   C3A 4639   6.099  14.340  29.823 -0.0751  0.3007  0.1088
  194BOLB   C4A 4640   5.800  14.574  29.965  0.0640  0.0990 -0.0817
  194BOLB   C1B 4641   6.800  13.860  29.591 -0.2127 -0.0485 -0.2546
  194BOLB   C2B 4642   6.387  13.992  29.480 -0.0648  0.2505  0.1725
  194BOLB   C3B 4643   5.964  14.267  29.268  0.0642 -0.3314  0.1845
  194BOLB   C4B 4644   5.791  14.349  28.871  0.0005  0.0753 -0.0416
  194BOLB   NC2 4645   3.182  15.014  30.745  0.1248 -0.2357  0.1735
  194BOLB   PO2 4646   3.394  15.139  30.294  0.0833 -0.1037 -0.1997
  194BOLB   GL3 4647   3.760  14.846  30.435  0.1041 -0.1721  0.2212
  194BOLB   GL4 4648   3.699  14.689  30.717  0.1461  0.2302 -0.0867
  194BOLB   C1C 4649   4.140  14.689  30.232 -0.1332  0.0433 -0.3247
  194BOLB   C2C 4650   4.570  14.508  30.222  0.0486 -0.4651  0.1839
  194BOLB   C3C 4651   5.009  14.476  30.301  0.2714 -0.1438  0.1422
  194BOLB   C4C 4652   5.286  14.526  30.041  0.0459 -0.1982  0.2046
  194BOLB   C1D 4653   4.147  14.594  30.699  0.3772 -0.1038 -0.0094
  194BOLB   C2D 4654   4.609  14.658  30.715 -0.1977 -0.0543  0.0668
  194BOLB   C3D 4655   5.067  14.662  30.797 -0.1158 -0.0385  0.2180
  194BOLB   C4D 4656   5.513  14.900  30.859 -0.0538  0.0069  0.5242
  195BOLB   NC1 4657  16.163  21.011  18.331  0.1362 -0.0302 -0.0252
  195BOLB   PO1 4658  16.409  21.120  18.690  0.0909 -0.2768 -0.3757
  195BOLB   GL1 4659  16.459  20.786  18.895  0.0303  0.1733  0.2832
  195BOLB   GL2 4660  16.778  20.627  18.816  0.0609  0.0304  0.3772
  195BOLB   C1A 4661  16.205  20.495  19.178  0.0522 -0.2281 -0.3894
  195BOLB   C2A 4662  16.346  20.025  19.257 -0.4883  0.1441 -0.1691
  195BOLB   C3A 4663  16.154  19.778  19.562  0.1296  0.0696 -0.0826
  195BOLB   C4A 4664  15.945  19.355  19.532 -0.1149  0.1691 -0.1356
  195BOLB   C1B 4665  16.828  20.430  19.254 -0.3776  0.2249 -0.0300
  195BOLB   C2B 4666  16.957  20.526  19.684 -0.0105  0.1465  0.4257
  195BOLB   C3B 4667  17.376  20.718  19.769  0.1365  0.0711 -0.0481
  195BOLB   C4B 4668  17.637  20.989  19.878  0.2370  0.2654 -0.4378
  195BOLB   NC2 4669  16.182  20.058  17.521  0.1010 -0.0850 -0.0179
  195BOLB   PO2 4670  16.112  19.677  17.500 -0.0692  0.0482 -0.3372
  195BOLB   GL3 4671  16.147  19.625  17.866  0.1355  0.0373  0.2448
  195BOLB   GL4 4672  16.426  19.744  17.901 -0.3022 -0.2831 -0.0230
  195BOLB   C1C 4673  16.326  19.273  18.169 -0.1720 -0.0484 -0.0267
  195BOLB   C2C 4674  16.351  19.139  18.652  0.1256 -0.2579 -0.1161
  195BOLB   C3C 4675  16.325  19.039  19.010  0.1627 -0.0675  0.0971
  195BOLB   C4C 4676  15.947  19.084  19.280  0.0181 -0.1425 -0.1354
  195BOLB   C1D 4677  16.278  19.810  18.264  0.0333 -0.2205  0.2829
  195BOLB   C2D 4678  16.238  19.687  18.675  0.4039 -0.1478 -0.0079
  195BOLB   C3D 4679  16.001  19.477  19.010 -0.0531  0.0920  0.1159
  195BOLB   C4D 4680  15.552  19.326  18.975 -0.0144  0.3884 -0.0480
  196BOLB   NC1 4681   8.604  12.438  27.150 -0.0279 -0.1191  0.1958
  196BOLB   PO1 4682   8.254  12.658  27.190 -0.1073 -0.0061  0.5105
  196BOLB   GL1 4683   7.882  12.838  27.101 -0.3672  0.2100  0.2175
  196BOLB   GL2 4684   7.947  12.681  26.804 -0.2989 -0.0942  0.3619
  196BOLB   C1A 4685   7.468  12.798  26.876  0.3368 -0.0460  0.1610
  196BOLB   C2A 4686   7.288  12.924  26.564 -0.0724 -0.0774  0.0316
  196BOLB   C3A 4687   6.867  12.929  26.367 -0.0910 -0.0067 -0.3274
  196BOLB   C4A 4688   6.562  13.041  26.205  0.0736  0.0995  0.1153
  196BOLB   C1B 4689   7.807  12.376  26.881  0.0834 -0.1012 -0.0391
  196BOLB   C2B 4690   7.569  12.083  26.514  0.0349  0.2964 -0.0686
  196BOLB   C3B 4691   7.203  12.202  26.220 -0.1208  0.0294  0.1135
  196BOLB   C4B 4692   6.896  12.039  26.082 -0.3471 -0.1637 -0.2519
  196BOLB   NC2 4693   3.968  13.215  25.725  0.1758  0.1312  0.0062
  196BOLB   PO2 4694   3.985  12.879  26.008  0.1948 -0.0321 -0.4960
  196BOLB   GL3 4695   4.394  13.136  26.015 -0.0012  0.2157  0.1739
  196BOLB   GL4 4696   4.510  13.319  26.295 -0.2486  0.0378  0.0169
  196BOLB   C1C 4697   4.787  13.130  25.898 -0.0686  0.0526 -0.1502
  196BOLB   C2C 4698   5.303  13.212  25.808 -0.1821  0.1298 -0.1552
  196BOLB   C3C 4699   5.692  12.955  25.902 -0.0436  0.4809 -0.2104
  196BOLB   C4C 4700   6.157  12.876  26.036 -0.0134  0.0552 -0.3718
  196BOLB   C1D 4701   4.960  13.260  26.485  0.0287  0.0224 -0.2352
  196BOLB   C2D 4702   5.292  13.190  26.738  0.2318 -0.1043  0.0039
  196BOLB   C3D 4703   5.276  12.857  26.977  0.2983  0.1736  0.2565
  196BOLB   C4D 4704   5.114  12.551  27.129 -0.1250  0.0614  0.0054
  197BOLB   NC1 4705  20.935  18.067  33.995  0.0486 -0.1310 -0.0506
  197BOLB   PO1 4706  20.729  18.371  33.817  0.0893  0.2123 -0.0974
  197BOLB   GL1 4707  20.960  18.618  33.787  0.2683  0.2708 -0.1704
  197BOLB   GL2 4708  21.270  18.423  33.988 -0.3968  0.0918  0.0449
  197BOLB   C1A 4709  21.205  18.967  34.036 -0.3269 -0.1191  0.1083
  197BOLB   C2A 4710  21.550  18.827  34.208  0.0360 -0.0299  0.2949
  197BOLB   C3A 4711  21.804  19.158  34.395  0.2593 -0.1338  0.0469
  197BOLB   C4A 4712  22.009  19.471  34.094  0.0397  0.0384 -0.1111
  197BOLB   C1B 4713  21.734  18.480  33.803  0.2066 -0.0438  0.1514
  197BOLB   C2B 4714  22.035  18.343  33.620 -0.1080 -0.2743  0.2249
  197BOLB   C3B 4715  22.503  18.421  33.767  0.0119 -0.1984  0.1128
  197BOLB   C4B 4716  22.783  18.545  34.017 -0.0816 -0.0677 -0.1001
  197BOLB   NC2 4717  20.737  18.009  32.503 -0.2740 -0.1112  0.0104
  197BOLB   PO2 4718  20.715  18.216  32.895  0.0189 -0.3642  0.3359
  197BOLB   GL3 4719  20.959  18.599  33.054  0.0223  0.0099  0.0365
  197BOLB   GL4 4720  21.124  18.588  33.328  0.2351  0.0558 -0.1975
  197BOLB   C1C 4721  21.148  19.037  33.091  0.2732  0.2829  0.0607
  197BOLB   C2C 4722  21.616  19.140  33.209 -0.0648 -0.4867  0.0014
  197BOLB   C3C 4723  21.939  19.440  33.380  0.2497  0.1885 -0.3384
  197BOLB   C4C 4724  22.123  19.466  33.702 -0.2025  0.0854 -0.0957
  197BOLB   C1D 4725  21.343  18.893  33.545 -0.0956 -0.0467 -0.3895
  197BOLB   C2D 4726  21.568  19.227  33.735  0.1169  0.0497 -0.3336
  197BOLB   C3D 4727  21.443  19.415  34.167  0.0684 -0.3873 -0.1521
  197BOLB   C4D 4728  21.471  19.783  34.253 -0.1313  0.1158 -0.3570
  198BOLB   NC1 4729  16.764  20.392  30.483 -0.0926 -0.0014  0.1440
  198BOLB   PO1 4730  16.440  20.573  30.324 -0.0446  0.2865  0.1013
  198BOLB   GL1 4731  16.828  20.895  30.381 -0.0406 -0.1496 -0.1097
  198BOLB   GL2 4732  16.775  20.971  29.996  0.2167  0.1611  0.2160
  198BOLB   C1A 4733  17.270  21.152  30.234 -0.1858 -0.0389 -0.0264
  198BOLB   C2A 4734  17.509  21.406  30.390  0.2498  0.0766 -0.2415
  198BOLB   C3A 4735  17.443  21.892  30.486  0.0486 -0.1515 -0.0542
  198BOLB   C4A 4736  17.304  22.331  30.433 -0.1728  0.3263  0.0082
  198BOLB   C1B 4737  16.869  21.321  29.877  0.1421 -0.1196 -0.1218
  198BOLB   C2B 4738  16.973  21.757  29.658  0.4022 -0.0501 -0.2016
  198BOLB   C3B 4739  16.727  22.065  29.425 -0.0379  0.1018 -0.2330
  198BOLB   C4B 4740  16.567  22.478  29.467 -0.1507 -0.1473  0.3789
  198BOLB   NC2 4741  18.297  24.587  30.603 -0.0489 -0.0466  0.1457
  198BOLB   PO2 4742  18.215  24.245  30.490 -0.1166  0.3734  0.1587
  198BOLB   GL3 4743  17.975  23.979  30.483  0.0355 -0.0698  0.0206
  198BOLB   GL4 4744  17.612  24.068  30.348  0.1065  0.2347  0.2197
  198BOLB   C1C 4745  17.786  23.640  30.558  0.0863 -0.4350 -0.1841
  198BOLB   C2C 4746  17.670  23.322  30.677 -0.1339 -0.1081  0.0853
  198BOLB   C3C 4747  17.580  22.946  30.756  0.0203  0.4295  0.4994
  198BOLB   C4C 4748  17.412  22.637  30.503  0.0736  0.1541 -0.1876
  198BOLB   C1D 4749  17.283  23.864  30.432  0.1752  0.0897  0.0628
  198BOLB   C2D 4750  17.174  23.474  30.397  0.0212 -0.1862  0.0909
  198BOLB   C3D 4751  17.283  23.068  30.317 -0.2081  0.1318 -0.1751
  198BOLB   C4D 4752  17.138  22.681  30.105 -0.1235  0.1202  0.4668
  199BOLB   NC1 4753  19.489   6.550  22.643 -0.1008  0.3540  0.3785
  199BOLB   PO1 4754  19.816   6.600  22.913  0.0059  0.1195 -0.0125
  199BOLB   GL1 4755  19.891   6.202  22.754  0.3339  0.4184 -0.1917
  199BOLB   GL2 4756  19.842   5.991  22.994  0.1690  0.1892 -0.1274
  199BOLB   C1A 4757  19.718   5.855  22.538  0.3452 -0.0476 -0.2701
  199BOLB   C2A 4758  19.643   5.381  22.476  0.0301  0.1739 -0.0763
  199BOLB   C3A 4759  19.607   5.098  22.090  0.1291  0.0900 -0.0263
  199BOLB   C4A 4760  19.720   4.792  21.829 -0.2027  0.1371  0.1160
  199BOLB   C1B 4761  19.844   5.576  22.969  0.1289 -0.0058 -0.3118
  199BOLB   C2B 4762  19.937   5.201  22.876 -0.3420 -0.3586  0.1134
  199BOLB   C3B 4763  20.114   4.919  22.671  0.3159 -0.2401  0.1000
  199BOLB   C4B 4764  20.382   4.537  22.825  0.0558  0.0649  0.4588
  199BOLB   NC2 4765  20.434   3.348  19.668  0.2201  0.3109  0.0141
  199BOLB   PO2 4766  20.218   3.426  19.908  0.2335 -0.1183  0.1137
  199BOLB   GL3 4767  20.240   3.618  20.290  0.3588  0.0882 -0.0359
  199BOLB   GL4 4768  20.136   3.907  20.286 -0.1440 -0.1036 -0.3318
  199BOLB   C1C 4769  20.424   3.669  20.736  0.0793  0.0507 -0.1308
  199BOLB   C2C 4770  20.480   4.011  21.013  0.3471  0.0054  0.0477
  199BOLB   C3C 4771  20.227   4.301  21.214 -0.1382 -0.0114 -0.2013
  199BOLB   C4C 4772  19.901   4.526  21.447  0.2478 -0.0017 -0.2231
  199BOLB   C1D 4773  20.259   4.153  20.592 -0.0552 -0.1359 -0.3538
  199BOLB   C2D 4774  20.086   4.539  20.711  0.1694 -0.0766 -0.0706
  199BOLB   C3D 4775  19.931   4.839  20.885  0.1259  0.1933 -0.0388
  199BOLB   C4D 4776  19.577   4.933  20.894  0.0619  0.5000 -0.1717
  200BOLB   NC1 4777  14.003  21.042  30.330  0.0603 -0.0535  0.0704
  200BOLB   PO1 4778  13.832  21.529  30.281 -0.2701 -0.0466 -0.1368
  200BOLB   GL1 4779  13.819  21.827  30.626  0.3880  0.1146  0.0953
  200BOLB   GL2 4780  13.722  21.945  30.879  0.0570  0.0708 -0.0799
  200BOLB   C1A 4781  14.076  22.178  30.440 -0.0053 -0.2688  0.1227
  200BOLB   C2A 4782  14.033  22.606  30.466 -0.0827 -0.3210  0.1015
  200BOLB   C3A 4783  14.057  23.104  30.523  0.1769  0.2579 -0.0865
  200BOLB   C4A 4784  14.081  23.488  30.372  0.1321 -0.1484 -0.1321
  200BOLB   C1B 4785  13.703  22.378  30.771  0.1657  0.0401  0.0209
  200BOLB   C2B 4786  13.519  22.703  30.818  0.0620 -0.2058  0.0402
  200BOLB   C3B 4787  13.649  23.122  30.850  0.1481  0.0335  0.1742
  200BOLB   C4B 4788  13.618  23.460  30.635 -0.4564  0.1618 -0.0989
  200BOLB   NC2 4789  13.586  25.359  29.936 -0.0914 -0.0331 -0.0938
  200BOLB   PO2 4790  13.820  25.498  30.314  0.0481 -0.0818  0.1066
  200BOLB   GL3 4791  14.047  25.163  30.195  0.1106  0.0471  0.2338
  200BOLB   GL4 4792  14.121  24.977  29.931  0.1442 -0.1206  0.1328
  200BOLB   C1C 4793  14.183  24.774  30.407  0.1245  0.1955  0.0726
  200BOLB   C2C 4794  14.179  24.559  30.678 -0.1433  0.2802 -0.0248
  200BOLB   C3C 4795  14.329  24.144  30.697 -0.1880 -0.2524 -0.2669
  200BOLB   C4C 4796  14.240  23.799  30.473  0.1963  0.0715  0.0100
  200BOLB   C1D 4797  14.282  24.576  29.772 -0.2813 -0.0053 -0.1610
  200BOLB   C2D 4798  14.225  24.215  29.736  0.1933 -0.0409  0.0057
  200BOLB   C3D 4799  14.260  23.750  29.719  0.3114  0.0034  0.2006
  200BOLB   C4D 4800  14.257  23.500  29.312 -0.4136  0.0627 -0.0198
  201BOLB   NC1 4801  11.965  19.692  25.941 -0.1604 -0.0520  0.1638
  201BOLB   PO1 4802  11.899  20.122  25.897 -0.0288  0.0129  0.2238
  201BOLB   GL1 4803  11.556  20.447  25.930 -0.0849 -0.2359  0.0320
  201BOLB   GL2 4804  11.306  20.720  26.110  0.2170 -0.1641 -0.3768
  201BOLB   C1A 4805  11.353  20.746  25.617  0.1232 -0.1925  0.1081
  201BOLB   C2A 4806  10.940  20.958  25.738  0.1758  0.2323  0.2914
  201BOLB   C3A 4807  10.877  21.366  25.463  0.1965 -0.0949  0.3241
  201BOLB   C4A 4808  10.759  21.731  25.172  0.1577  0.0946 -0.0630
  201BOLB   C1B 4809  11.160  21.122  26.193  0.0526  0.0376  0.0633
  201BOLB   C2B 4810  10.906  21.435  25.952  0.0017 -0.3772 -0.0181
  201BOLB   C3B 4811  10.502  21.222  25.782  0.0094  0.0565 -0.2481
  201BOLB   C4B 4812  10.134  21.273  25.620  0.1844 -0.0195  0.1460
  201BOLB   NC2 4813   9.767  23.273  23.811 -0.0211  0.2905  0.0000
  201BOLB   PO2 4814   9.385  23.122  23.677 -0.1223  0.1784 -0.2969
  201BOLB   GL3 4815   9.638  22.880  24.056 -0.0206  0.0266  0.0646
  201BOLB   GL4 4816  10.016  22.878  23.947  0.2060  0.0877 -0.0095
  201BOLB   C1C 4817   9.655  22.689  24.307 -0.0261 -0.0593  0.0359
  201BOLB   C2C 4818   9.951  22.407  24.493  0.3725 -0.1584  0.1759
  201BOLB   C3C 4819  10.306  22.242  24.736  0.1204  0.1349 -0.1554
  201BOLB   C4C 4820  10.662  22.023  24.945  0.1324 -0.0541  0.1923
  201BOLB   C1D 4821  10.189  22.727  24.193 -0.0690  0.7070  0.1183
  201BOLB   C2D 4822  10.566  22.566  24.471 -0.0562 -0.1162 -0.0012
  201BOLB   C3D 4823  10.921  22.281  24.619 -0.0669 -0.1491 -0.1465
  201BOLB   C4D 4824  11.249  22.054  24.665  0.0062  0.3462  0.3764
  202BOLB   NC1 4825   9.777  11.614  36.233 -0.0015  0.0003  0.1305
  202BOLB   PO1 4826   9.351  11.423  36.091  0.0707 -0.0371 -0.0044
  202BOLB   GL1 4827   8.975  11.122  36.346  0.2291  0.0384  0.1319
  202BOLB   GL2 4828   8.888  10.981  36.020  0.2089 -0.1994 -0.2177
  202BOLB   C1A 4829   8.667  11.140  36.637 -0.1618  0.1547 -0.0980
  202BOLB   C2A 4830   8.381  11.106  37.007 -0.2695  0.1501 -0.1398
  202BOLB   C3A 4831   8.361  11.074  37.462 -0.0730  0.0539 -0.2065
  202BOLB   C4A 4832   8.033  11.256  37.692 -0.0007 -0.0609  0.0217
  202BOLB   C1B 4833   8.613  10.699  36.159 -0.1739 -0.1264  0.0498
  202BOLB   C2B 4834   8.331  10.259  36.060  0.2690 -0.0780 -0.2317
  202BOLB   C3B 4835   7.926  10.079  36.113  0.0789  0.0028 -0.3421
  202BOLB   C4B 4836   7.554   9.874  36.253 -0.0482 -0.0524 -0.2496
  202BOLB   NC2 4837   6.488  11.487  39.722  0.1231  0.2561 -0.0636
  202BOLB   PO2 4838   6.510  11.925  39.518  0.2783 -0.0502 -0.2886
  202BOLB   GL3 4839   6.844  12.018  39.357  0.2957 -0.2618  0.1068
  202BOLB   GL4 4840   6.772  12.192  39.102  0.2346  0.2377  0.0138
  202BOLB   C1C 4841   7.112  11.780  39.138  0.1368 -0.2697 -0.4216
  202BOLB   C2C 4842   7.392  11.672  38.681  0.0401 -0.0352  0.0158
  202BOLB   C3C 4843   7.512  11.550  38.240 -0.0539 -0.1348  0.1494
  202BOLB   C4C 4844   7.801  11.293  38.054  0.3009  0.3025  0.1800
  202BOLB   C1D 4845   7.070  12.090  38.773 -0.0856  0.0688 -0.0773
  202BOLB   C2D 4846   7.330  12.175  38.363  0.1657  0.0573  0.0882
  202BOLB   C3D 4847   7.570  12.414  37.958  0.1006 -0.3794 -0.2875
  202BOLB   C4D 4848   8.020  12.301  37.770  0.2689  0.1341 -0.0499
  203BOLB   NC1 4849  17.249  19.648  27.234 -0.1406 -0.2528  0.0227
  203BOLB   PO1 4850  17.543  20.004  27.003 -0.0084  0.2094 -0.1250
  203BOLB   GL1 4851  17.631  20.305  26.765 -0.3866 -0.1467  0.0937
  203BOLB   GL2 4852  17.367  20.498  26.583  0.0660  0.3086  0.2795
  203BOLB   C1A 4853  17.895  20.609  26.727  0.1878 -0.1931  0.1928
  203BOLB   C2A 4854  17.957  21.048  26.644  0.2251  0.2491 -0.2749
  203BOLB   C3A 4855  17.991  21.406  26.375 -0.0967 -0.1173 -0.2528
  203BOLB   C4A 4856  18.201  21.667  26.118  0.1622 -0.0296  0.0130
  203BOLB   C1B 4857  17.500  20.842  26.354  0.3287 -0.0789  0.3550
  203BOLB   C2B 4858  17.615  21.209  26.114  0.0178  0.0078 -0.1344
  203BOLB   C3B 4859  17.695  21.739  25.957  0.2426  0.0015  0.2239
  203BOLB   C4B 4860  17.933  22.081  25.751  0.2402  0.5730 -0.0860
  203BOLB   NC2 4861  19.295  23.486  24.751 -0.4328  0.1944 -0.1610
  203BOLB   PO2 4862  19.331  23.710  25.189 -0.0227  0.1488 -0.0341
  203BOLB   GL3 4863  19.247  23.311  25.400 -0.4420 -0.3483  0.2427
  203BOLB   GL4 4864  19.339  23.207  25.537  0.2672  0.0052 -0.1384
  203BOLB   C1C 4865  19.047  22.773  25.409 -0.2388  0.0983  0.0358
  203BOLB   C2C 4866  18.960  22.721  25.847  0.1237 -0.2362  0.1315
  203BOLB   C3C 4867  18.676  22.443  25.926  0.2972 -0.3585 -0.0065
  203BOLB   C4C 4868  18.354  22.070  26.002  0.1954  0.0481  0.2712
  203BOLB   C1D 4869  19.193  23.141  25.979 -0.7347  0.0808 -0.1084
  203BOLB   C2D 4870  19.272  22.962  26.409 -0.0603 -0.2344  0.0131
  203BOLB   C3D 4871  19.009  22.904  26.775 -0.2420  0.2302 -0.2098
  203BOLB   C4D 4872  18.692  22.560  26.880 -0.0554  0.2272 -0.1232
  204BOLB   NC1 4873  22.769  12.816  35.667  0.1753 -0.2983 -0.0838
  204BOLB   PO1 4874  23.132  12.757  35.396  0.0835 -0.0966 -0.0255
  204BOLB   GL1 4875  23.342  12.720  35.826 -0.2322  0.0395 -0.0049
  204BOLB   GL2 4876  23.190  12.920  35.967 -0.0495  0.2293 -0.1215
  204BOLB   C1A 4877  23.595  12.715  36.224  0.2109  0.4901  0.0182
  204BOLB   C2A 4878  23.554  12.751  36.666 -0.0942 -0.1467  0.0395
  204BOLB   C3A 4879  23.737  12.651  37.105  0.3502 -0.1510  0.3540
  204BOLB   C4A 4880  23.796  12.741  37.437 -0.0618  0.0396 -0.0544
  204BOLB   C1B 4881  23.477  13.190  36.236 -0.2716 -0.0949  0.1075
  204BOLB   C2B 4882  23.821  13.307  36.385 -0.1076  0.3528  0.0639
  204BOLB   C3B 4883  24.024  13.559  36.651  0.3226  0.2791  0.0647
  204BOLB   C4B 4884  23.763  13.715  36.994  0.0685 -0.3835  0.1786
  204BOLB   NC2 4885  26.424  13.278  37.564  0.0639 -0.0297  0.0077
  204BOLB   PO2 4886  26.241  12.869  37.557 -0.3079 -0.4254  0.0080
  204BOLB   GL3 4887  25.863  12.495  37.566  0.0648 -0.2962 -0.2333
  204BOLB   GL4 4888  25.790  12.556  37.302 -0.0362  0.1308 -0.0809
  204BOLB   C1C 4889  25.383  12.646  37.663 -0.2307  0.0800 -0.2168
  204BOLB   C2C 4890  24.916  12.607  37.691 -0.2049  0.0168 -0.0698
  204BOLB   C3C 4891  24.513  12.700  37.722 -0.2585 -0.1524 -0.0984
  204BOLB   C4C 4892  24.067  12.736  37.624 -0.1899 -0.0027  0.0132
  204BOLB   C1D 4893  25.499  12.489  37.218  0.2878  0.3527  0.0370
  204BOLB   C2D 4894  25.146  12.324  36.923 -0.2895 -0.4082 -0.2464
  204BOLB   C3D 4895  24.685  12.377  36.759  0.2003 -0.4253  0.0899
  204BOLB   C4D 4896  24.303  12.233  36.556  0.0521 -0.3967  0.0695
  205BOLB   NC1 4897  22.530   8.946  33.980 -0.2805  0.1872 -0.0179
  205BOLB   PO1 4898  22.348   8.581  33.958 -0.1100  0.1479 -0.1080
  205BOLB   GL1 4899  22.799   8.495  34.021 -0.0576  0.0458  0.0042
  205BOLB   GL2 4900  22.775   8.120  34.066  0.1815 -0.2565 -0.3654
  205BOLB   C1A 4901  23.297   8.320  34.082 -0.2718  0.0519 -0.1139
  205BOLB   C2A 4902  23.501   7.957  34.187  0.1018 -0.1546  0.0882
  205BOLB   C3A 4903  23.836   7.809  34.052 -0.2694  0.0396  0.2250
  205BOLB   C4A 4904  24.212   7.659  34.015 -0.1541 -0.1678  0.2684
  205BOLB   C1B 4905  23.013   7.766  34.164 -0.0243 -0.1731 -0.1079
  205BOLB   C2B 4906  23.127   7.414  34.535  0.2279 -0.2025 -0.0350
  205BOLB   C3B 4907  23.333   7.381  34.905  0.0149  0.2650  0.1565
  205BOLB   C4B 4908  23.579   7.619  35.057  0.1448  0.3705  0.0434
  205BOLB   NC2 4909  26.510   7.022  34.558 -0.1286 -0.5455 -0.3805
  205BOLB   PO2 4910  26.506   7.266  34.135  0.2384 -0.1198 -0.1641
  205BOLB   GL3 4911  26.141   7.390  34.061  0.3293  0.2564 -0.0576
  205BOLB   GL4 4912  26.115   7.787  34.025  0.2698 -0.1093  0.0862
  205BOLB   C1C 4913  25.752   7.361  34.102 -0.0092  0.2586  0.0782
  205BOLB   C2C 4914  25.333   7.402  34.266  0.1513 -0.1115 -0.2108
  205BOLB   C3C 4915  24.885   7.533  34.133 -0.3894  0.0585 -0.1018
  205BOLB   C4C 4916  24.582   7.563  34.249  0.5062  0.1120 -0.1668
  205BOLB   C1D 4917  25.681   7.834  34.211  0.0980  0.2022  0.0335
  205BOLB   C2D 4918  25.546   8.238  34.149 -0.1146 -0.2990 -0.2774
  205BOLB   C3D 4919  25.243   8.396  34.113 -0.1085 -0.3922 -0.1686
  205BOLB   C4D 4920  24.771   8.460  33.974  0.1226 -0.0708 -0.0551
  206BOLB   NC1 4921  15.037   0.304  26.515  0.0958  0.0628 -0.0356
  206BOLB   PO1 4922  14.996   0.553  26.216  0.1054  0.0156  0.3231
  206BOLB   GL1 4923  15.167   0.819  26.287  0.1918  0.2794 -0.2223
  206BOLB   GL2 4924  14.965   0.917  26.582  0.0882 -0.1691  0.1399
  206BOLB   C1A 4925  15.218   1.286  26.376  0.2237  0.0592  0.2042
  206BOLB   C2A 4926  15.173   1.557  26.757 -0.0453  0.0935  0.0545
  206BOLB   C3A 4927  15.108   1.927  27.050  0.1184 -0.0849  0.0947
  206BOLB   C4A 4928  15.336   2.211  27.215 -0.1787  0.2621  0.1028
  206BOLB   C1B 4929  14.742   1.236  26.561 -0.3098 -0.1940 -0.0453
  206BOLB   C2B 4930  14.677   1.650  26.624 -0.1909  0.2673 -0.1490
  206BOLB   C3B 4931  14.631   2.065  26.363  0.0436  0.2050  0.1955
  206BOLB   C4B 4932  14.369   2.146  26.112  0.0817 -0.2007 -0.3567
  206BOLB   NC2 4933  14.995   0.121  27.787 -0.0052 -0.3100  0.3995
  206BOLB   PO2 4934  15.157   0.231  28.249 -0.0509  0.0174 -0.0293
  206BOLB   GL3 4935  15.116   0.554  28.043  0.0451 -0.0867 -0.0573
  206BOLB   GL4 4936  14.869   0.635  28.231 -0.3089 -0.1977 -0.2915
  206BOLB   C1C 4937  15.362   0.871  27.953 -0.1355 -0.3356 -0.1374
  206BOLB   C2C 4938  15.359   1.287  27.966  0.0453 -0.1358  0.2280
  206BOLB   C3C 4939  15.339   1.697  27.744  0.2682  0.0990  0.1083
  206BOLB   C4C 4940  15.502   2.173  27.656 -0.2428 -0.1744  0.0791
  206BOLB   C1D 4941  14.967   1.034  28.296  0.0635 -0.3223  0.3313
  206BOLB   C2D 4942  15.169   1.491  28.449 -0.1139 -0.2224  0.2433
  206BOLB   C3D 4943  15.366   1.700  28.798 -0.3299  0.1809 -0.0093
  206BOLB   C4D 4944  15.811   1.996  28.932 -0.3125  0.2223 -0.1687
  207BOLB   NC1 4945  13.178   5.889  25.499  0.0402 -0.0221 -0.3442
  207BOLB   PO1 4946  12.789   5.824  25.729  0.0618  0.0208 -0.0347
  207BOLB   GL1 4947  12.552   5.473  25.501 -0.0380  0.0250  0.0500
  207BOLB   GL2 4948  12.378   5.363  25.666  0.0725  0.2461  0.2227
  207BOLB   C1A 4949  12.610   5.177  25.212 -0.0712 -0.0713  0.2994
  207BOLB   C2A 4950  12.545   4.863  25.009  0.0417  0.2648  0.1035
  207BOLB   C3A 4951  12.763   4.463  24.865  0.0192 -0.0457  0.2353
  207BOLB   C4A 4952  12.920   4.107  24.754  0.0716  0.0589 -0.0943
  207BOLB   C1B 4953  12.076   5.230  25.450  0.0495  0.0956  0.2151
  207BOLB   C2B 4954  11.794   4.872  25.605  0.2310 -0.0339 -0.0526
  207BOLB   C3B 4955  11.509   4.564  25.641 -0.2459  0.2451  0.3317
  207BOLB   C4B 4956  11.336   4.298  26.040  0.1925  0.0496  0.0100
  207BOLB   NC2 4957  11.734   2.287  24.344 -0.1934 -0.2679  0.2221
  207BOLB   PO2 4958  11.834   2.408  23.883  0.2142 -0.3115 -0.4207
  207BOLB   GL3 4959  11.822   2.764  24.136  0.2132  0.2602 -0.0462
  207BOLB   GL4 4960  11.517   2.823  24.338  0.2676 -0.3567 -0.1294
  207BOLB   C1C 4961  12.242   3.012  24.230  0.3935  0.1003 -0.3356
  207BOLB   C2C 4962  12.505   3.239  24.339  0.0247 -0.1270 -0.1652
  207BOLB   C3C 4963  12.858   3.397  24.488  0.0372 -0.0358 -0.1575
  207BOLB   C4C 4964  13.004   3.675  24.728  0.4900  0.3018  0.2662
  207BOLB   C1D 4965  11.574   3.063  24.820 -0.3171  0.6644 -0.0194
  207BOLB   C2D 4966  11.745   3.418  24.955  0.0698 -0.0147 -0.0655
  207BOLB   C3D 4967  12.063   3.812  25.058  0.0583 -0.1291  0.0935
  207BOLB   C4D 4968  12.462   3.999  24.850  0.1213  0.2665  0.0054
  208BOLB   NC1 4969   8.906  16.904  33.549  0.2635 -0.4211  0.2714
  208BOLB   PO1 4970   8.832  17.182  33.847  0.1575  0.0901 -0.1828
  208BOLB   GL1 4971   8.612  17.451  34.006 -0.0258 -0.1958  0.0191
  208BOLB   GL2 4972   8.751  17.608  34.311 -0.2006  0.2033  0.1982
  208BOLB   C1A 4973   8.259  17.547  34.331  0.4458 -0.0079  0.1742
  208BOLB   C2A 4974   7.924  17.373  34.664 -0.2434  0.2636  0.1745
  208BOLB   C3A 4975   7.552  17.407  34.786 -0.1115  0.3352 -0.2392
  208BOLB   C4A 4976   7.209  17.454  34.982 -0.0468 -0.1181  0.1186
  208BOLB   C1B 4977   8.558  17.924  34.518  0.1096 -0.3522 -0.4647
  208BOLB   C2B 4978   8.367  17.909  34.859  0.0339  0.0739 -0.2297
  208BOLB   C3B 4979   8.299  18.042  35.259  0.2784 -0.2205 -0.1097
  208BOLB   C4B 4980   8.354  18.175  35.720 -0.2141  0.2154 -0.2258
  208BOLB   NC2 4981   5.761  19.149  35.948 -0.2361  0.1442  0.0921
  208BOLB   PO2 4982   5.508  19.142  35.607 -0.3852  0.1514  0.1539
  208BOLB   GL3 4983   5.755  18.715  35.737  0.0140 -0.2568 -0.0249
  208BOLB   GL4 4984   5.789  18.281  35.769  0.0531 -0.0656 -0.3345
  208BOLB   C1C 4985   6.001  18.484  35.325  0.0973 -0.1056 -0.2847
  208BOLB   C2C 4986   6.223  18.140  35.201  0.1848  0.1335 -0.0907
  208BOLB   C3C 4987   6.515  17.775  35.228 -0.1030  0.1861 -0.3053
  208BOLB   C4C 4988   6.781  17.457  35.112  0.0687  0.4446 -0.2620
  208BOLB   C1D 4989   6.101  18.040  35.938 -0.2051 -0.1522 -0.1458
  208BOLB   C2D 4990   6.472  18.083  36.009  0.1104  0.1098  0.2819
  208BOLB   C3D 4991   6.732  18.090  36.366 -0.0365 -0.1796  0.0541
  208BOLB   C4D 4992   7.048  17.965  36.689 -0.3103  0.0067  0.0968
  209BOLB   NC1 4993   8.994  24.435  32.208 -0.1996  0.1015  0.0544
  209BOLB   PO1 4994   8.625  24.224  32.343 -0.5969  0.0785  0.5691
  209BOLB   GL1 4995   8.953  23.903  32.476  0.0262  0.0725  0.2569
  209BOLB   GL2 4996   9.213  23.912  32.345  0.0249 -0.2451 -0.0230
  209BOLB   C1A 4997   9.084  23.459  32.489  0.2183  0.1684  0.3549
  209BOLB   C2A 4998   9.260  23.009  32.528 -0.0858 -0.0451  0.0450
  209BOLB   C3A 4999   9.426  22.691  32.294  0.3277 -0.0770  0.0162
  209BOLB   C4A 5000   9.553  22.551  31.885 -0.1537 -0.6197 -0.1576
  209BOLB   C1B 5001   9.510  23.581  32.591  0.1909 -0.2282 -0.1032
  209BOLB   C2B 5002   9.750  23.443  32.946 -0.1914 -0.0690  0.2665
  209BOLB   C3B 5003  10.130  23.175  33.012  0.1484  0.0963 -0.1632
  209BOLB   C4B 5004  10.529  23.109  33.001  0.0311 -0.3184  0.0868
  209BOLB   NC2 5005   8.864  24.120  30.405 -0.2871 -0.2635 -0.2564
  209BOLB   PO2 5006   8.695  24.336  30.839  0.0935 -0.1035  0.0056
  209BOLB   GL3 5007   8.886  23.934  30.958  0.3467 -0.0390  0.2696
  209BOLB   GL4 5008   8.764  23.737  30.737  0.0709  0.1384  0.2741
  209BOLB   C1C 5009   9.182  23.627  31.014  0.2950 -0.0148 -0.0018
  209BOLB   C2C 5010   9.484  23.337  31.001 -0.2264  0.3665 -0.1163
  209BOLB   C3C 5011   9.443  22.894  31.133  0.1120  0.1816 -0.0545
  209BOLB   C4C 5012   9.630  22.734  31.440  0.2222  0.0251  0.1346
  209BOLB   C1D 5013   8.893  23.250  30.755  0.0296 -0.1476 -0.2585
  209BOLB   C2D 5014   9.015  22.891  30.798 -0.1710 -0.2023  0.4119
  209BOLB   C3D 5015   9.089  22.560  30.674 -0.0918  0.0165  0.0254
  209BOLB   C4D 5016   8.821  22.176  30.557  0.0099  0.1462 -0.0216
  210BOLB   NC1 5017  15.420   6.363  22.335  0.0919 -0.1091  0.3282
  210BOLB   PO1 5018  15.385   6.253  22.740 -0.1554  0.2202  0.0120
  210BOLB   GL1 5019  15.420   5.944  22.505 -0.0384  0.1922 -0.0240
  210BOLB   GL2 5020  15.683   5.814  22.703 -0.1962 -0.1608  0.1684
  210BOLB   C1A 5021  15.356   5.577  22.276 -0.1704  0.0509  0.2573
  210BOLB   C2A 5022  15.427   5.491  21.887  0.0541  0.1110 -0.1829
  210BOLB   C3A 5023  15.498   5.136  21.683  0.0040 -0.0572 -0.2464
  210BOLB   C4A 5024  15.522   4.884  21.254 -0.0379 -0.0197 -0.2018
  210BOLB   C1B 5025  15.465   5.506  22.793 -0.0382 -0.0248  0.1166
  210BOLB   C2B 5026  15.410   5.215  22.614 -0.5402  0.3532 -0.2970
  210BOLB   C3B 5027  15.274   5.024  22.321  0.1124  0.2595 -0.1818
  210BOLB   C4B 5028  15.063   4.695  22.211 -0.0818 -0.4400 -0.3267
  210BOLB   NC2 5029  16.059   3.097  19.909 -0.0325 -0.1796 -0.1249
  210BOLB   PO2 5030  16.075   3.288  19.534 -0.2167 -0.0919  0.0636
  210BOLB   GL3 5031  15.990   3.579  19.938  0.1080  0.0380 -0.0311
  210BOLB   GL4 5032  16.260   3.770  19.920 -0.2470  0.2014  0.2665
  210BOLB   C1C 5033  15.659   3.816  20.049 -0.1655 -0.4293 -0.3044
  210BOLB   C2C 5034  15.501   4.259  20.253 -0.2089 -0.2361  0.2965
  210BOLB   C3C 5035  15.425   4.641  20.438 -0.3439 -0.0636  0.2246
  210BOLB   C4C 5036  15.507   4.768  20.799 -0.2683  0.0751  0.0401
  210BOLB   C1D 5037  16.581   3.641  20.191 -0.1780  0.0229  0.3585
  210BOLB   C2D 5038  16.711   3.876  20.509  0.0058 -0.1557  0.1696
  210BOLB   C3D 5039  16.789   4.222  20.652  0.3177  0.0755 -0.1449
  210BOLB   C4D 5040  16.946   4.543  20.886 -0.1743  0.1354 -0.0605
  211BOLB   NC1 5041  14.452   4.619  26.415  0.1708  0.2715  0.2161
  211BOLB   PO1 5042  14.527   4.548  26.875  0.0877 -0.1707  0.1676
  211BOLB   GL1 5043  14.390   4.170  26.620 -0.2472  0.1299  0.0889
  211BOLB   GL2 5044  14.095   4.289  26.598 -0.4271 -0.0895  0.0494
  211BOLB   C1A 5045  14.387   3.753  26.552 -0.1841  0.1996  0.1076
  211BOLB   C2A 5046  14.208   3.311  26.708  0.0473  0.0364 -0.0551
  211BOLB   C3A 5047  14.062   3.032  26.549  0.1468  0.1314 -0.1376
  211BOLB   C4A 5048  14.063   2.950  26.171 -0.3684 -0.1529 -0.0049
  211BOLB   C1B 5049  13.957   3.794  26.713 -0.5177 -0.2908 -0.1360
  211BOLB   C2B 5050  13.693   3.494  26.839  0.1412  0.3827  0.2698
  211BOLB   C3B 5051  13.839   3.042  27.105 -0.0211  0.1641  0.3803
  211BOLB   C4B 5052  13.802   2.601  27.332  0.0085  0.0647 -0.1287
  211BOLB   NC2 5053  14.165   0.686  25.634 -0.2336 -0.0501 -0.0053
  211BOLB   PO2 5054  14.431   0.801  25.266  0.1050 -0.1351 -0.1412
  211BOLB   GL3 5055  14.551   1.108  25.581  0.0530 -0.0357  0.2071
  211BOLB   GL4 5056  14.832   1.001  25.587 -0.3610  0.1687  0.2214
  211BOLB   C1C 5057  14.429   1.476  25.564  0.0941 -0.1168 -0.5390
  211BOLB   C2C 5058  14.151   1.872  25.541  0.2071 -0.3114 -0.0059
  211BOLB   C3C 5059  14.091   2.183  25.696  0.1964  0.1417 -0.2106
  211BOLB   C4C 5060  14.113   2.548  25.866 -0.2070  0.1379  0.0663
  211BOLB   C1D 5061  14.985   1.379  25.831 -0.3260  0.2215 -0.1034
  211BOLB   C2D 5062  14.955   1.743  26.134  0.1283  0.4582 -0.0540
  211BOLB   C3D 5063  15.153   1.984  26.507 -0.0271  0.0516 -0.0756
  211BOLB   C4D 5064  15.090   2.377  26.706 -0.2074  0.0087 -0.3775
  212BOLB   NC1 5065  22.411  11.703  23.699  0.2132 -0.2468 -0.1051
  212BOLB   PO1 5066  22.700  11.813  23.604 -0.4218 -0.1133  0.0481
  212BOLB   GL1 5067  23.137  11.716  23.550  0.0128  0.2466  0.5841
  212BOLB   GL2 5068  23.111  11.386  23.449 -0.0167  0.0408 -0.0358
  212BOLB   C1A 5069  23.531  11.760  23.389  0.0136  0.0062  0.1250
  212BOLB   C2A 5070  23.772  11.409  23.538  0.2248  0.0309  0.0970
  212BOLB   C3A 5071  24.005  11.247  23.755 -0.0401 -0.1279 -0.3637
  212BOLB   C4A 5072  24.425  11.152  23.873  0.0771 -0.3756 -0.2346
  212BOLB   C1B 5073  23.383  11.326  23.190 -0.2178  0.1026 -0.2897
  212BOLB   C2B 5074  23.631  10.972  22.974 -0.1222 -0.2510  0.0560
  212BOLB   C3B 5075  23.964  10.883  23.255 -0.2638 -0.0159  0.1084
  212BOLB   C4B 5076  24.262  10.904  23.466 -0.0667 -0.1563 -0.2542
  212BOLB   NC2 5077  26.957  11.764  22.839  0.2221 -0.0082  0.0587
  212BOLB   PO2 5078  26.536  11.721  23.073  0.2259 -0.1337  0.1200
  212BOLB   GL3 5079  26.291  11.399  23.083  0.4678 -0.2777  0.0100
  212BOLB   GL4 5080  26.364  10.989  23.073  0.0588 -0.0036 -0.1781
  212BOLB   C1C 5081  25.943  11.336  23.447  0.3015 -0.2454 -0.1705
  212BOLB   C2C 5082  25.691  11.230  23.754  0.0224 -0.0038  0.0190
  212BOLB   C3C 5083  25.280  11.152  23.846  0.1935 -0.1618 -0.0433
  212BOLB   C4C 5084  24.827  11.152  23.906 -0.0410  0.0785 -0.1237
  212BOLB   C1D 5085  25.997  10.854  23.151  0.0295 -0.2642  0.3448
  212BOLB   C2D 5086  25.796  10.480  23.242  0.1251  0.4821 -0.0611
  212BOLB   C3D 5087  25.764  10.069  23.076 -0.6797 -0.0833 -0.1955
  212BOLB   C4D 5088  25.605   9.754  22.927 -0.0680 -0.0054  0.1506
  213BOLB   NC1 5089   9.616  14.345  36.590 -0.0308 -0.2575 -0.1098
  213BOLB   PO1 5090   9.314  14.516  36.340  0.0449  0.1246  0.1803
  213BOLB   GL1 5091   8.928  14.658  36.330  0.0768  0.2637  0.1790
  213BOLB   GL2 5092   8.801  14.909  36.105 -0.1518  0.2170  0.1269
  213BOLB   C1A 5093   8.798  14.965  36.629 -0.0162  0.1659  0.0966
  213BOLB   C2A 5094   8.565  15.209  36.887  0.0718  0.0120 -0.0099
  213BOLB   C3A 5095   8.159  15.097  36.981  0.0718  0.1289 -0.1325
  213BOLB   C4A 5096   7.723  15.336  36.843 -0.1327  0.2464 -0.0738
  213BOLB   C1B 5097   8.453  15.130  36.191 -0.3344 -0.0385  0.0622
  213BOLB   C2B 5098   8.152  15.300  36.517  0.0739  0.0867 -0.0791
  213BOLB   C3B 5099   7.918  15.643  36.533 -0.0446  0.0647 -0.1485
  213BOLB   C4B 5100   7.490  15.844  36.610  0.0615  0.5628  0.0759
  213BOLB   NC2 5101   5.224  16.408  36.952  0.0391  0.2312  0.2467
  213BOLB   PO2 5102   5.287  16.159  37.259 -0.0820  0.1416  0.1245
  213BOLB   GL3 5103   5.665  16.208  36.895 -0.0115 -0.0106 -0.1098
  213BOLB   GL4 5104   5.569  16.114  36.640  0.0270 -0.1849 -0.2299
  213BOLB   C1C 5105   6.167  16.030  36.854 -0.2890  0.0137  0.0958
  213BOLB   C2C 5106   6.531  15.723  36.687  0.4164  0.0049  0.1057
  213BOLB   C3C 5107   6.871  15.447  36.789 -0.3445 -0.3765  0.0317
  213BOLB   C4C 5108   7.266  15.400  36.810  0.2090 -0.0655 -0.2447
  213BOLB   C1D 5109   5.606  16.081  36.212 -0.1845 -0.0637 -0.0711
  213BOLB   C2D 5110   5.838  15.935  35.887 -0.2229 -0.2116 -0.1559
  213BOLB   C3D 5111   5.788  15.666  35.575 -0.3936  0.0870  0.1076
  213BOLB   C4D 5112   5.716  15.206  35.592 -0.1381  0.1247 -0.1221
  214BOLB   NC1 5113  17.279   4.535  32.023  0.5204 -0.2175 -0.0967
  214BOLB   PO1 5114  17.208   4.480  32.381 -0.1203  0.1857  0.2809
  214BOLB   GL1 5115  16.945   4.155  32.586 -0.0358 -0.0410  0.2329
  214BOLB   GL2 5116  16.761   4.366  32.812  0.0756 -0.0104 -0.2304
  214BOLB   C1A 5117  16.901   3.761  32.944 -0.2886  0.3688  0.0322
  214BOLB   C2A 5118  17.015   3.388  32.970  0.1589 -0.1881 -0.1441
  214BOLB   C3A 5119  16.798   2.934  33.063 -0.1442 -0.0369 -0.1364
  214BOLB   C4A 5120  16.596   2.616  32.985 -0.1461 -0.2510 -0.0242
  214BOLB   C1B 5121  16.746   4.222  33.232  0.0021  0.3062  0.4052
  214BOLB   C2B 5122  16.785   3.790  33.385 -0.0281  0.0657 -0.0806
  214BOLB   C3B 5123  16.918   3.344  33.426 -0.2536  0.0035 -0.0845
  214BOLB   C4B 5124  16.962   2.890  33.516 -0.0235 -0.0866  0.2102
  214BOLB   NC2 5125  15.791   0.507  33.907 -0.0348 -0.0014 -0.3038
  214BOLB   PO2 5126  15.828   0.572  33.432  0.2769 -0.3994  0.0844
  214BOLB   GL3 5127  15.782   1.091  33.258 -0.0008 -0.1072  0.2465
  214BOLB   GL4 5128  16.016   1.151  32.915 -0.2132  0.3012 -0.0388
  214BOLB   C1C 5129  15.675   1.464  33.093  0.1100 -0.0587  0.0642
  214BOLB   C2C 5130  15.836   1.770  32.761 -0.0692  0.0526  0.0106
  214BOLB   C3C 5131  16.091   2.122  32.578  0.2835 -0.2422  0.3068
  214BOLB   C4C 5132  16.368   2.417  32.748 -0.2056 -0.0964 -0.0781
  214BOLB   C1D 5133  16.183   1.393  32.603  0.2324  0.0914  0.2388
  214BOLB   C2D 5134  15.888   1.723  32.302  0.2201 -0.4669 -0.0815
  214BOLB   C3D 5135  15.806   2.143  32.163  0.0246 -0.0327 -0.1310
  214BOLB   C4D 5136  16.077   2.350  32.102 -0.1312  0.1417 -0.0926
  215BOLB   NC1 5137   7.587  12.569  34.190 -0.1643 -0.2489 -0.1911
  215BOLB   PO1 5138   7.449  12.909  33.787  0.2469  0.0910 -0.2343
  215BOLB   GL1 5139   7.072  13.062  33.780 -0.0134  0.1524 -0.1905
  215BOLB   GL2 5140   6.818  12.794  33.802  0.3095  0.3737 -0.1331
  215BOLB   C1A 5141   6.789  13.235  34.041 -0.1824 -0.0901  0.3655
  215BOLB   C2A 5142   6.610  13.098  34.396 -0.2738 -0.2400 -0.1906
  215BOLB   C3A 5143   6.287  12.905  34.334  0.1611  0.1010  0.2712
  215BOLB   C4A 5144   6.051  12.479  34.532 -0.0708 -0.2768 -0.2355
  215BOLB   C1B 5145   6.381  12.982  33.875  0.0105  0.2885  0.1537
  215BOLB   C2B 5146   6.133  13.203  33.591 -0.1044 -0.1482  0.1170
  215BOLB   C3B 5147   6.071  13.480  33.255 -0.2783 -0.2423  0.0394
  215BOLB   C4B 5148   5.790  13.679  33.198 -0.2087 -0.1671 -0.5666
  215BOLB   NC2 5149   3.700  11.844  34.712 -0.1260  0.2198 -0.2207
  215BOLB   PO2 5150   3.830  12.021  35.009  0.0202  0.2238 -0.0464
  215BOLB   GL3 5151   4.258  12.023  34.879 -0.1448 -0.2699 -0.2954
  215BOLB   GL4 5152   4.511  12.016  35.117 -0.0575 -0.2231 -0.0686
  215BOLB   C1C 5153   4.640  12.210  34.648  0.0781 -0.1592 -0.0977
  215BOLB   C2C 5154   5.081  12.263  34.758 -0.0296 -0.0775  0.2648
  215BOLB   C3C 5155   5.455  12.293  34.871  0.1546  0.3623 -0.0824
  215BOLB   C4C 5156   5.776  12.453  34.797 -0.2714 -0.0741 -0.0908
  215BOLB   C1D 5157   4.931  11.874  35.089 -0.2851  0.0122 -0.1619
  215BOLB   C2D 5158   5.390  11.789  35.046 -0.0633  0.1933 -0.1428
  215BOLB   C3D 5159   5.762  11.589  34.974 -0.2529 -0.1222 -0.2662
  215BOLB   C4D 5160   6.225  11.749  35.004  0.0370 -0.0018 -0.0911
  216BOLB   NC1 5161  15.289  19.783  35.872  0.4285  0.0957  0.0223
  216BOLB   PO1 5162  15.577  19.983  35.551  0.0414 -0.1202 -0.0063
  216BOLB   GL1 5163  15.655  20.290  35.770 -0.0658  0.1378  0.0033
  216BOLB   GL2 5164  16.022  20.287  35.631 -0.0452  0.1688 -0.0697
  216BOLB   C1A 5165  15.846  20.502  36.174 -0.0698 -0.2141  0.3404
  216BOLB   C2A 5166  15.887  20.750  36.523  0.2379 -0.1405  0.0949
  216BOLB   C3A 5167  15.971  21.006  36.775  0.0190 -0.1380  0.0166
  216BOLB   C4A 5168  16.182  21.208  37.143  0.1793  0.1139 -0.2088
  216BOLB   C1B 5169  15.990  20.765  35.771 -0.3739 -0.0669  0.1268
  216BOLB   C2B 5170  15.640  20.963  36.093 -0.1043 -0.0167 -0.0439
  216BOLB   C3B 5171  15.560  21.142  36.486  0.1223  0.0408 -0.1016
  216BOLB   C4B 5172  15.421  21.325  36.810 -0.1717  0.1779  0.3735
  216BOLB   NC2 5173  16.768  23.175  38.758 -0.0880 -0.0369 -0.1666
  216BOLB   PO2 5174  16.282  22.926  38.803 -0.1635  0.0478  0.1096
  216BOLB   GL3 5175  16.035  22.604  38.503 -0.2846  0.0152  0.0173
  216BOLB   GL4 5176  15.752  22.645  38.318 -0.1933 -0.1890 -0.0567
  216BOLB   C1C 5177  16.129  22.347  38.080 -0.1415 -0.1674  0.0153
  216BOLB   C2C 5178  16.424  22.046  37.918 -0.1201  0.1619 -0.2173
  216BOLB   C3C 5179  16.382  21.732  37.580 -0.1225  0.0398  0.0765
  216BOLB   C4C 5180  16.159  21.521  37.431 -0.1185  0.0212  0.2639
  216BOLB   C1D 5181  15.353  22.504  38.118 -0.2346 -0.0758 -0.2907
  216BOLB   C2D 5182  15.350  22.090  37.903  0.0054 -0.0042 -0.0325
  216BOLB   C3D 5183  15.124  21.890  37.606  0.1687  0.1727 -0.1122
  216BOLB   C4D 5184  15.306  21.471  37.305  0.0111 -0.0800 -0.1638
  217BOLB   NC1 5185  15.412  20.324  35.243  0.2271  0.0291  0.4462
  217BOLB   PO1 5186  15.411  20.485  34.921  0.0130  0.2589  0.0339
  217BOLB   GL1 5187  15.176  20.870  34.848  0.2724  0.0792  0.0206
  217BOLB   GL2 5188  15.354  21.094  34.616  0.0873  0.0595  0.3548
  217BOLB   C1A 5189  15.002  21.183  34.922  0.2887  0.2192 -0.1039
  217BOLB   C2A 5190  14.778  21.620  35.099 -0.0703 -0.2068 -0.1458
  217BOLB   C3A 5191  14.579  21.824  35.475  0.3061 -0.4406 -0.1158
  217BOLB   C4A 5192  14.569  22.283  35.517 -0.0390  0.3192  0.1226
  217BOLB   C1B 5193  15.463  21.310  35.013 -0.1060  0.1886  0.0212
  217BOLB   C2B 5194  15.280  21.695  35.029  0.0569 -0.1147  0.0797
  217BOLB   C3B 5195  15.399  22.098  35.063  0.0475  0.0941 -0.1110
  217BOLB   C4B 5196  15.604  22.467  35.369  0.5185 -0.2613  0.1109
  217BOLB   NC2 5197  15.046  24.224  36.179  0.3724  0.1721 -0.2929
  217BOLB   PO2 5198  15.410  24.076  36.468 -0.0125  0.6017  0.0018
  217BOLB   GL3 5199  15.528  23.846  36.199  0.0600 -0.0675  0.2749
  217BOLB   GL4 5200  15.706  23.625  36.167  0.2223 -0.1561  0.0709
  217BOLB   C1C 5201  15.239  23.507  35.969 -0.2269 -0.1703 -0.1119
  217BOLB   C2C 5202  15.086  23.198  35.953  0.0262  0.0223 -0.1446
  217BOLB   C3C 5203  14.965  22.904  35.796 -0.1257 -0.0165  0.0534
  217BOLB   C4C 5204  14.804  22.604  35.648  0.2286  0.3815 -0.2895
  217BOLB   C1D 5205  15.622  23.215  35.891 -0.0910  0.0870  0.0918
  217BOLB   C2D 5206  15.459  22.770  35.936 -0.0334 -0.0171  0.3410
  217BOLB   C3D 5207  15.284  22.409  35.774  0.0456  0.1136  0.0135
  217BOLB   C4D 5208  15.110  22.078  35.509 -0.3856 -0.1388  0.0837
  218BOLB   NC1 5209  13.693  17.457  37.874  0.4799  0.1416 -0.2355
  218BOLB   PO1 5210  13.374  17.126  37.847  0.0492 -0.0302  0.1603
  218BOLB   GL1 5211  13.073  17.393  38.091 -0.0638 -0.0691  0.1473
  218BOLB   GL2 5212  13.215  17.492  38.385  0.3475  0.1702 -0.0815
  218BOLB   C1A 5213  12.844  17.741  38.133  0.1149  0.2922  0.0571
  218BOLB   C2A 5214  12.890  18.186  38.159 -0.1756 -0.0292 -0.1683
  218BOLB   C3A 5215  12.850  18.707  38.235 -0.2026  0.1692  0.1694
  218BOLB   C4A 5216  12.937  18.960  38.561 -0.2093 -0.0509 -0.2484
  218BOLB   C1B 5217  13.104  17.736  38.816  0.0598  0.3544  0.1891
  218BOLB   C2B 5218  12.994  18.081  39.002  0.0305 -0.2597 -0.2199
  218BOLB   C3B 5219  12.882  18.343  39.327 -0.2183 -0.3582 -0.1328
  218BOLB   C4B 5220  13.026  18.500  39.669 -0.1290 -0.1066 -0.1099
  218BOLB   NC2 5221  12.299  21.217  40.237  0.2802 -0.2017  0.1740
  218BOLB   PO2 5222  12.535  20.971  39.890 -0.2476  0.2802 -0.2537
  218BOLB   GL3 5223  12.470  20.483  39.809 -0.1219  0.0836 -0.0582
  218BOLB   GL4 5224  12.195  20.399  39.744  0.0729 -0.0101 -0.0317
  218BOLB   C1C 5225  12.700  20.169  39.694 -0.2383 -0.0600  0.0127
  218BOLB   C2C 5226  12.771  19.721  39.709 -0.2320 -0.0455  0.5183
  218BOLB   C3C 5227  12.844  19.510  39.313 -0.1630  0.1147 -0.2699
  218BOLB   C4C 5228  12.832  19.221  38.922  0.1674 -0.1560  0.1803
  218BOLB   C1D 5229  12.350  20.324  39.322 -0.3974  0.1055 -0.1815
  218BOLB   C2D 5230  12.562  20.159  38.904 -0.2147 -0.2404  0.0615
  218BOLB   C3D 5231  12.799  19.823  38.751 -0.3194 -0.0488  0.0942
  218BOLB   C4D 5232  13.142  19.640  38.893  0.2307 -0.1489  0.1574
  219BOLB   NC1 5233  15.925   5.306  33.121  0.5766  0.0502  0.2898
  219BOLB   PO1 5234  15.880   4.864  33.205 -0.3340  0.3219  0.1699
  219BOLB   GL1 5235  15.919   4.472  33.115 -0.3963 -0.0664  0.1866
  219BOLB   GL2 5236  16.204   4.386  33.052 -0.2401  0.5675 -0.1575
  219BOLB   C1A 5237  15.768   4.114  33.242  0.2428  0.2731  0.0277
  219BOLB   C2A 5238  15.958   3.705  33.362 -0.0142 -0.2565 -0.0336
  219BOLB   C3A 5239  16.076   3.311  33.438 -0.1651  0.3768 -0.0623
  219BOLB   C4A 5240  16.068   2.950  33.654  0.0831 -0.0891 -0.2357
  219BOLB   C1B 5241  16.358   3.913  33.100  0.0885  0.3512  0.0283
  219BOLB   C2B 5242  16.533   3.468  33.082 -0.0219  0.3642 -0.1262
  219BOLB   C3B 5243  16.449   2.994  33.340 -0.0293 -0.1768  0.0277
  219BOLB   C4B 5244  16.129   2.621  33.217  0.0546 -0.0732 -0.2758
  219BOLB   NC2 5245  16.001   0.863  34.318 -0.0670 -0.0087  0.4784
  219BOLB   PO2 5246  15.519   0.803  34.108 -0.0984 -0.0752  0.2628
  219BOLB   GL3 5247  15.624   1.022  33.856 -0.4994 -0.1256  0.0737
  219BOLB   GL4 5248  15.991   1.005  33.789  0.3352  0.1347 -0.1062
  219BOLB   C1C 5249  15.706   1.469  33.761  0.0719  0.0550 -0.2530
  219BOLB   C2C 5250  15.618   1.883  34.028 -0.1255 -0.2520  0.2537
  219BOLB   C3C 5251  15.576   2.378  33.946 -0.1089  0.5981  0.1352
  219BOLB   C4C 5252  15.942   2.575  33.723 -0.1498  0.0978 -0.3587
  219BOLB   C1D 5253  16.108   1.438  33.445  0.1376 -0.2188 -0.2132
  219BOLB   C2D 5254  16.244   1.700  33.119  0.0014 -0.0262  0.2021
  219BOLB   C3D 5255  16.585   1.814  32.720 -0.4370  0.1014 -0.0723
  219BOLB   C4D 5256  16.939   1.852  32.474 -0.1711  0.1349  0.0576
  220BOLB   NC1 5257  21.173  19.159  19.642  0.3169  0.0893 -0.0664
  220BOLB   PO1 5258  20.944  19.458  19.928  0.1308 -0.0332  0.2290
  220BOLB   GL1 5259  20.721  19.067  20.037 -0.1501  0.1953 -0.1560
  220BOLB   GL2 5260  20.986  18.849  20.074  0.4329  0.3042 -0.0627
  220BOLB   C1A 5261  20.463  18.901  20.360  0.0077  0.0134 -0.1844
  220BOLB   C2A 5262  20.149  18.570  20.552 -0.0914  0.3131 -0.0281
  220BOLB   C3A 5263  20.011  18.302  20.934  0.1061  0.2918 -0.2033
  220BOLB   C4A 5264  20.093  18.446  21.378 -0.0801  0.1543 -0.2100
  220BOLB   C1B 5265  20.712  18.557  20.164  0.2109 -0.0581  0.3089
  220BOLB   C2B 5266  20.348  18.277  20.029 -0.1889 -0.0224  0.0150
  220BOLB   C3B 5267  19.934  18.160  20.278 -0.0961  0.3344  0.1953
  220BOLB   C4B 5268  19.622  18.148  20.697  0.1748 -0.0025  0.0959
  220BOLB   NC2 5269  22.570  19.313  20.925  0.1917 -0.3494 -0.1215
  220BOLB   PO2 5270  22.539  18.824  21.175  0.1527 -0.4730 -0.1743
  220BOLB   GL3 5271  21.988  18.690  21.294 -0.0153  0.1524 -0.0332
  220BOLB   GL4 5272  21.838  18.534  21.052  0.0965 -0.4846 -0.2855
  220BOLB   C1C 5273  21.544  18.442  21.466  0.0130  0.1788  0.2679
  220BOLB   C2C 5274  21.158  18.231  21.816  0.2662 -0.0222  0.3451
  220BOLB   C3C 5275  20.744  18.243  21.777 -0.2985  0.0702  0.1592
  220BOLB   C4C 5276  20.453  18.408  21.491 -0.2235  0.0720  0.0858
  220BOLB   C1D 5277  21.924  18.141  21.188  0.0092  0.1548 -0.0153
  220BOLB   C2D 5278  21.647  17.935  21.489  0.1700 -0.1205  0.0207
  220BOLB   C3D 5279  21.378  17.519  21.591  0.1233 -0.2867  0.1422
  220BOLB   C4D 5280  20.831  17.419  21.768 -0.0022  0.2491 -0.0574
  221BOLB   NC1 5281  19.968   7.329  22.525 -0.4071 -0.0938  0.3255
  221BOLB   PO1 5282  19.778   6.969  22.557  0.0969  0.1269  0.0352
  221BOLB   GL1 5283  19.888   6.711  22.187 -0.0368 -0.1966  0.1484
  221BOLB   GL2 5284  19.700   6.342  22.079  0.0013  0.0960 -0.0967
  221BOLB   C1A 5285  20.088   6.451  21.890  0.0450  0.3564  0.1947
  221BOLB   C2A 5286  20.270   6.350  21.483  0.0829 -0.0145  0.0786
  221BOLB   C3A 5287  20.445   6.007  21.304  0.0861  0.3596  0.0654
  221BOLB   C4A 5288  20.546   5.657  21.417  0.2162  0.2259  0.0814
  221BOLB   C1B 5289  19.885   5.969  22.079  0.1452  0.0938  0.0104
  221BOLB   C2B 5290  19.863   5.576  21.885  0.1635 -0.2506 -0.0520
  221BOLB   C3B 5291  19.806   5.288  21.691  0.3827  0.1201 -0.1151
  221BOLB   C4B 5292  19.789   5.131  21.388 -0.1490  0.4601 -0.0826
  221BOLB   NC2 5293  21.815   3.828  20.349  0.0603  0.2130  0.2768
  221BOLB   PO2 5294  21.906   4.128  20.601 -0.1698  0.2358  0.0106
  221BOLB   GL3 5295  21.589   4.334  20.705  0.0452 -0.0878 -0.0858
  221BOLB   GL4 5296  21.631   4.681  20.604  0.0199 -0.0557 -0.2125
  221BOLB   C1C 5297  21.242   4.415  20.958 -0.0256  0.0468  0.2127
  221BOLB   C2C 5298  21.064   4.562  21.300 -0.1795 -0.0217  0.1097
  221BOLB   C3C 5299  20.730   4.847  21.376  0.1057 -0.0814 -0.4035
  221BOLB   C4C 5300  20.665   5.273  21.393 -0.3515 -0.0173  0.2159
  221BOLB   C1D 5301  21.410   5.011  20.502  0.1474  0.2749 -0.1239
  221BOLB   C2D 5302  21.050   5.180  20.377  0.0189  0.1685 -0.0948
  221BOLB   C3D 5303  20.814   4.965  20.136 -0.1570 -0.3975 -0.1253
  221BOLB   C4D 5304  20.815   4.630  19.844 -0.0690 -0.0575  0.1138
  222BOLB   NC1 5305   8.018  10.990  33.619 -0.1477 -0.0709 -0.3168
  222BOLB   PO1 5306   7.974  11.131  33.148  0.2270  0.1778 -0.0644
  222BOLB   GL1 5307   7.531  11.053  33.311 -0.1646  0.1887 -0.0226
  222BOLB   GL2 5308   7.480  11.055  33.672 -0.1116 -0.0468 -0.1662
  222BOLB   C1A 5309   7.084  10.833  33.479 -0.0864  0.2209 -0.1883
  222BOLB   C2A 5310   6.835  10.744  33.748  0.0384  0.1834 -0.2073
  222BOLB   C3A 5311   6.522  10.556  33.928 -0.3666 -0.1118  0.0771
  222BOLB   C4A 5312   6.256  10.168  33.916  0.1640  0.0345 -0.1930
  222BOLB   C1B 5313   7.226  10.905  33.962  0.1105  0.1408  0.1803
  222BOLB   C2B 5314   6.894  10.771  34.297  0.0561  0.0075  0.0696
  222BOLB   C3B 5315   6.610  10.831  34.584 -0.0225  0.3405 -0.3500
  222BOLB   C4B 5316   6.216  10.688  34.765  0.0097  0.3504 -0.0070
  222BOLB   NC2 5317   4.253   8.611  33.054 -0.0692  0.4002  0.0677
  222BOLB   PO2 5318   4.332   8.846  33.404 -0.2346  0.0469  0.2070
  222BOLB   GL3 5319   4.695   8.915  33.683  0.1523 -0.3064  0.2220
  222BOLB   GL4 5320   4.535   9.175  33.789  0.0901 -0.1120  0.1654
  222BOLB   C1C 5321   5.095   9.243  33.784 -0.2323 -0.1800 -0.0651
  222BOLB   C2C 5322   5.363   9.599  33.719  0.1532  0.1906 -0.1393
  222BOLB   C3C 5323   5.503   9.990  33.811  0.3000 -0.4165  0.0859
  222BOLB   C4C 5324   5.871  10.073  33.871 -0.3223  0.2068 -0.0655
  222BOLB   C1D 5325   4.811   9.596  33.696  0.0274  0.0753 -0.2571
  222BOLB   C2D 5326   4.981  10.039  33.763  0.1720  0.1636  0.1174
  222BOLB   C3D 5327   5.250  10.421  33.700  0.1892 -0.0023 -0.1923
  222BOLB   C4D 5328   5.360  10.814  33.920 -0.1400  0.3505 -0.0494
  223BOLB   NC1 5329   7.530  15.189  28.620 -0.2021 -0.1409 -0.0114
  223BOLB   PO1 5330   7.597  15.506  28.494 -0.0676  0.1964 -0.2816
  223BOLB   GL1 5331   7.224  15.519  28.292  0.1136 -0.3200  0.0626
  223BOLB   GL2 5332   7.388  15.785  27.995  0.0958 -0.1715  0.2529
  223BOLB   C1A 5333   6.917  15.370  27.975 -0.0316  0.1503  0.0366
  223BOLB   C2A 5334   6.544  15.517  27.799  0.0792  0.0713 -0.1461
  223BOLB   C3A 5335   6.166  15.623  27.546 -0.0626 -0.0936 -0.2893
  223BOLB   C4A 5336   5.808  15.645  27.340 -0.0643 -0.2230 -0.1759
  223BOLB   C1B 5337   7.164  16.075  28.268  0.2951  0.0148  0.2592
  223BOLB   C2B 5338   6.812  16.299  28.240 -0.2303 -0.3598 -0.1824
  223BOLB   C3B 5339   6.411  16.105  28.246  0.2224 -0.0357  0.2745
  223BOLB   C4B 5340   6.234  15.907  27.974 -0.2323 -0.0226  0.1059
  223BOLB   NC2 5341   4.037  15.655  27.451  0.0951  0.1882  0.0735
  223BOLB   PO2 5342   4.027  16.093  27.300  0.2713 -0.1869 -0.0807
  223BOLB   GL3 5343   4.293  15.964  27.082  0.0396  0.2348  0.0914
  223BOLB   GL4 5344   4.562  16.247  26.975 -0.1393 -0.0583 -0.1121
  223BOLB   C1C 5345   4.593  15.774  27.062  0.0367 -0.2410 -0.1102
  223BOLB   C2C 5346   4.664  15.374  27.305  0.2761  0.1715  0.1792
  223BOLB   C3C 5347   5.072  15.157  27.323 -0.0375  0.3356  0.2424
  223BOLB   C4C 5348   5.377  15.524  27.286 -0.0258  0.1631 -0.0387
  223BOLB   C1D 5349   4.724  15.991  26.564 -0.1060 -0.1225  0.0630
  223BOLB   C2D 5350   5.024  16.023  26.272  0.1281  0.0982  0.1959
  223BOLB   C3D 5351   5.370  15.801  26.458  0.1414 -0.2616  0.3256
  223BOLB   C4D 5352   5.564  15.628  26.793 -0.0548  0.2038 -0.3578
  224BOLB   NC1 5353  17.192  13.834  39.377  0.1139  0.0153 -0.1360
  224BOLB   PO1 5354  17.260  14.184  39.527  0.1192 -0.2410 -0.3658
  224BOLB   GL1 5355  17.460  14.365  39.953 -0.3394  0.3407 -0.0859
  224BOLB   GL2 5356  17.681  14.572  39.789  0.0178  0.1028 -0.0174
  224BOLB   C1A 5357  17.613  14.463  40.351 -0.3872 -0.0731 -0.0482
  224BOLB   C2A 5358  17.946  14.507  40.662 -0.0300  0.1014  0.2976
  224BOLB   C3A 5359  18.292  14.391  40.701 -0.1470  0.1023  0.3465
  224BOLB   C4A 5360  18.419  14.131  41.025 -0.1169  0.1136 -0.2708
  224BOLB   C1B 5361  18.010  14.648  40.158 -0.2511 -0.2388 -0.2696
  224BOLB   C2B 5362  18.152  14.916  40.543  0.1566 -0.0808 -0.1529
  224BOLB   C3B 5363  18.198  14.937  41.003  0.2633 -0.2180 -0.0512
  224BOLB   C4B 5364  18.294  14.924  41.479  0.0795 -0.1387 -0.2760
  224BOLB   NC2 5365  19.820  14.996  42.950 -0.0775 -0.1357 -0.0636
  224BOLB   PO2 5366  19.603  14.701  43.155 -0.0378  0.2705  0.0517
  224BOLB   GL3 5367  19.410  14.564  42.838 -0.1314 -0.0020 -0.3513
  224BOLB   GL4 5368  19.524  14.447  42.554 -0.1700 -0.1070 -0.2294
  224BOLB   C1C 5369  19.047  14.586  42.472 -0.0760  0.0006 -0.0594
  224BOLB   C2C 5370  18.947  14.497  42.061 -0.1169 -0.0668 -0.0755
  224BOLB   C3C 5371  18.910  14.375  41.651 -0.1267 -0.2739 -0.0022
  224BOLB   C4C 5372  18.724  14.160  41.323  0.0603 -0.0658  0.1999
  224BOLB   C1D 5373  19.526  14.187  42.243 -0.1241 -0.2546 -0.1257
  224BOLB   C2D 5374  19.315  14.115  41.875  0.3144  0.2067  0.0497
  224BOLB   C3D 5375  19.344  14.016  41.449  0.1039 -0.0702  0.0594
  224BOLB   C4D 5376  19.408  13.687  41.026  0.2836  0.1037  0.0874
  225BOLB   NC1 5377  21.681  15.385  28.363  0.1041 -0.1666 -0.1018
  225BOLB   PO1 5378  21.447  15.770  28.184 -0.1276 -0.0561 -0.0654
  225BOLB   GL1 5379  21.639  15.896  27.777 -0.0865 -0.0968 -0.2246
  225BOLB   GL2 5380  21.553  15.914  27.503 -0.0864 -0.0670  0.2839
  225BOLB   C1A 5381  22.103  16.029  27.666  0.1199  0.0673  0.0636
  225BOLB   C2A 5382  22.451  16.180  27.483 -0.2037 -0.0090 -0.0277
  225BOLB   C3A 5383  22.694  16.328  27.200 -0.1632  0.0958 -0.1062
  225BOLB   C4A 5384  22.953  16.525  26.873  0.1442 -0.3720  0.1613
  225BOLB   C1B 5385  21.942  16.009  27.201  0.0843  0.1604  0.0591
  225BOLB   C2B 5386  22.308  16.075  26.981 -0.0713  0.1122 -0.1669
  225BOLB   C3B 5387  22.553  16.226  26.725  0.3306 -0.1691  0.2190
  225BOLB   C4B 5388  22.937  16.232  26.455 -0.0691 -0.0373  0.1615
  225BOLB   NC2 5389  25.894  16.412  25.658 -0.0815 -0.0182 -0.0084
  225BOLB   PO2 5390  25.623  16.269  25.978  0.2944  0.0220  0.0046
  225BOLB   GL3 5391  25.215  16.300  26.053  0.3894  0.1864  0.3484
  225BOLB   GL4 5392  25.074  15.964  26.129  0.2204  0.1718  0.0518
  225BOLB   C1C 5393  24.873  16.321  26.407  0.0783 -0.0619 -0.0737
  225BOLB   C2C 5394  24.383  16.481  26.441 -0.1017  0.0158 -0.1533
  225BOLB   C3C 5395  23.920  16.346  26.591  0.1770  0.1882 -0.0241
  225BOLB   C4C 5396  23.349  16.399  26.670 -0.0496 -0.0353  0.3018
  225BOLB   C1D 5397  24.785  15.842  26.486 -0.1373  0.1187 -0.2378
  225BOLB   C2D 5398  24.425  15.581  26.706 -0.2776  0.2968 -0.2102
  225BOLB   C3D 5399  24.004  15.446  26.815 -0.1967 -0.0257 -0.2383
  225BOLB   C4D 5400  23.639  15.182  26.791  0.1942 -0.0456  0.0257
  226BOLB   NC1 5401  22.650  15.327  34.784 -0.2196 -0.1684  0.0254
  226BOLB   PO1 5402  22.459  15.718  35.038  0.1187 -0.1211  0.0731
  226BOLB   GL1 5403  22.627  16.126  35.105  0.0024 -0.3290 -0.0707
  226BOLB   GL2 5404  22.301  16.130  35.301  0.0946  0.1264 -0.2683
  226BOLB   C1A 5405  22.920  16.284  35.338  0.2581 -0.1964 -0.0765
  226BOLB   C2A 5406  23.288  16.352  35.453 -0.0516  0.0980 -0.2997
  226BOLB   C3A 5407  23.493  16.443  35.960  0.0471 -0.2798 -0.2130
  226BOLB   C4A 5408  23.419  16.561  36.382 -0.3085  0.3190 -0.1789
  226BOLB   C1B 5409  22.208  16.447  35.543 -0.1169 -0.0504  0.2410
  226BOLB   C2B 5410  22.504  16.642  35.791  0.2591  0.1590  0.0984
  226BOLB   C3B 5411  22.911  16.619  35.667 -0.1964  0.0203  0.0879
  226BOLB   C4B 5412  23.190  16.799  35.602  0.1078 -0.1393 -0.0848
  226BOLB   NC2 5413  25.042  17.550  38.237 -0.1380 -0.0385 -0.2323
  226BOLB   PO2 5414  24.784  17.493  37.851  0.0750 -0.2667 -0.1303
  226BOLB   GL3 5415  24.647  17.555  37.278  0.0641  0.1633  0.3909
  226BOLB   GL4 5416  24.313  17.530  37.391  0.0475 -0.0847  0.1147
  226BOLB   C1C 5417  24.482  17.330  36.929 -0.0104  0.1002  0.0273
  226BOLB   C2C 5418  24.527  16.909  36.863 -0.3410 -0.0779 -0.3435
  226BOLB   C3C 5419  24.193  16.679  36.676  0.3938 -0.2025 -0.1045
  226BOLB   C4C 5420  23.762  16.644  36.535  0.1592  0.1534  0.1452
  226BOLB   C1D 5421  23.970  17.202  37.484  0.1258 -0.0446 -0.0926
  226BOLB   C2D 5422  23.605  16.905  37.350  0.0342  0.3630  0.1899
  226BOLB   C3D 5423  23.387  16.777  37.024  0.2430 -0.1756 -0.4814
  226BOLB   C4D 5424  23.187  16.821  36.683  0.3114  0.2109  0.0212
  227BOLB   NC1 5425  18.096  15.202  39.159 -0.0246  0.0944 -0.2062
  227BOLB   PO1 5426  17.766  15.434  39.016 -0.1070 -0.0681 -0.2932
  227BOLB   GL1 5427  17.789  15.722  39.456  0.1069 -0.2099  0.0523
  227BOLB   GL2 5428  17.569  15.961  39.639  0.1696  0.1356 -0.1235
  227BOLB   C1A 5429  18.023  15.566  39.783 -0.0602 -0.3658  0.0632
  227BOLB   C2A 5430  18.372  15.345  39.941 -0.1959 -0.0340  0.1039
  227BOLB   C3A 5431  18.540  15.064  40.168 -0.1189  0.3456  0.0982
  227BOLB   C4A 5432  18.590  14.971  40.688  0.0062 -0.2155 -0.0202
  227BOLB   C1B 5433  17.487  15.867  40.069  0.2475  0.1263  0.1450
  227BOLB   C2B 5434  17.599  15.939  40.385  0.1486 -0.1140  0.1722
  227BOLB   C3B 5435  17.625  16.292  40.626  0.0455  0.0470  0.3400
  227BOLB   C4B 5436  17.359  16.646  40.918  0.1676 -0.1958 -0.1516
  227BOLB   NC2 5437  19.865  16.790  42.861 -0.1846  0.4103 -0.1824
  227BOLB   PO2 5438  19.686  16.378  42.916  0.2797  0.0435  0.0682
  227BOLB   GL3 5439  19.443  16.133  42.472  0.0406  0.2092  0.3920
  227BOLB   GL4 5440  19.336  16.286  42.228 -0.3029 -0.0509  0.1028
  227BOLB   C1C 5441  19.140  15.809  42.279 -0.2200 -0.1374 -0.0239
  227BOLB   C2C 5442  18.932  15.578  41.929 -0.0230 -0.1596 -0.1155
  227BOLB   C3C 5443  18.814  15.457  41.572  0.0282  0.1685 -0.2198
  227BOLB   C4C 5444  18.621  15.278  41.162  0.0412  0.2046  0.0473
  227BOLB   C1D 5445  19.070  16.201  41.877  0.1406 -0.1429 -0.4636
  227BOLB   C2D 5446  18.836  16.403  41.542 -0.0413 -0.4584  0.1341
  227BOLB   C3D 5447  18.383  16.537  41.468  0.1366 -0.3009  0.2792
  227BOLB   C4D 5448  18.149  16.710  41.874 -0.1741 -0.3265 -0.0560
  228BOLB   NC1 5449  10.198   7.333  32.796 -0.0966  0.0274 -0.6138
  228BOLB   PO1 5450   9.942   7.221  32.579  0.3741  0.0090  0.0681
  228BOLB   GL1 5451   9.509   7.212  32.425  0.2392  0.1464 -0.0481
  228BOLB   GL2 5452   9.333   7.170  32.100 -0.0467  0.0481 -0.0169
  228BOLB   C1A 5453   9.101   7.191  32.605  0.1851  0.0259  0.6517
  228BOLB   C2A 5454   8.756   6.877  32.671 -0.0088 -0.0298 -0.0487
  228BOLB   C3A 5455   8.322   6.622  32.550 -0.1102  0.1756 -0.1510
  228BOLB   C4A 5456   8.201   6.376  32.413  0.3462 -0.0318  0.1135
  228BOLB   C1B 5457   9.054   6.834  32.086 -0.3171 -0.0374 -0.1465
  228BOLB   C2B 5458   8.702   6.612  32.257  0.2080 -0.1387  0.3902
  228BOLB   C3B 5459   8.431   6.493  32.006  0.0891 -0.1738 -0.0180
  228BOLB   C4B 5460   8.198   6.229  31.687 -0.3873  0.0071  0.0031
  228BOLB   NC2 5461   6.150   4.823  32.604  0.0560  0.3263 -0.3239
  228BOLB   PO2 5462   6.330   5.207  32.358 -0.0740 -0.2659 -0.2564
  228BOLB   GL3 5463   6.634   5.481  32.441 -0.3854  0.2498 -0.0042
  228BOLB   GL4 5464   6.486   5.672  32.655  0.1305  0.1300 -0.2339
  228BOLB   C1C 5465   7.050   5.522  32.230 -0.3071 -0.1412 -0.0722
  228BOLB   C2C 5466   7.463   5.647  32.006  0.3005 -0.0093  0.1299
  228BOLB   C3C 5467   7.716   5.926  32.093  0.0420 -0.0397  0.2209
  228BOLB   C4C 5468   7.834   6.341  32.134 -0.1786 -0.5166  0.0642
  228BOLB   C1D 5469   6.837   5.911  32.649  0.2319  0.3050 -0.4909
  228BOLB   C2D 5470   7.196   6.139  32.463  0.1201 -0.1227  0.0623
  228BOLB   C3D 5471   7.660   6.143  32.571  0.3065 -0.1251 -0.1259
  228BOLB   C4D 5472   7.881   6.041  32.947  0.0281  0.2117 -0.5892
  229BOLB   NC1 5473  16.992  20.046  29.099  0.0128  0.0611  0.1917
  229BOLB   PO1 5474  16.602  20.401  29.083 -0.1875  0.0731  0.1500
  229BOLB   GL1 5475  16.809  20.646  28.814  0.1784 -0.0980 -0.0072
  229BOLB   GL2 5476  17.041  20.664  28.502 -0.1077 -0.0984  0.0816
  229BOLB   C1A 5477  16.853  21.122  28.640 -0.3178 -0.3080  0.1948
  229BOLB   C2A 5478  16.629  21.470  28.710  0.1299  0.1290 -0.0549
  229BOLB   C3A 5479  16.636  21.879  28.604 -0.0066 -0.3053  0.2268
  229BOLB   C4A 5480  16.729  22.384  28.597 -0.0573  0.1157 -0.1818
  229BOLB   C1B 5481  17.232  21.186  28.364  0.0053 -0.0184  0.0846
  229BOLB   C2B 5482  17.526  21.426  28.202 -0.1041  0.3420  0.0089
  229BOLB   C3B 5483  17.637  21.794  28.023 -0.1114 -0.3827  0.1224
  229BOLB   C4B 5484  17.701  22.176  28.083 -0.0367 -0.0841  0.1226
  229BOLB   NC2 5485  17.008  24.926  29.304  0.1115  0.0335 -0.1989
  229BOLB   PO2 5486  17.330  24.841  29.119 -0.2622 -0.1654 -0.0099
  229BOLB   GL3 5487  17.117  24.439  29.125  0.3420 -0.6071  0.0135
  229BOLB   GL4 5488  17.022  24.461  29.419  0.3073  0.0317 -0.1791
  229BOLB   C1C 5489  17.228  24.007  29.045  0.1315 -0.0990  0.0261
  229BOLB   C2C 5490  17.071  23.779  28.679  0.1990 -0.1646  0.0257
  229BOLB   C3C 5491  16.945  23.317  28.626  0.2650  0.0199  0.0575
  229BOLB   C4C 5492  16.733  22.851  28.541 -0.0911  0.1644 -0.0240
  229BOLB   C1D 5493  17.035  24.147  29.607 -0.3502  0.0770  0.1742
  229BOLB   C2D 5494  17.128  23.732  29.493  0.0615  0.2073 -0.2759
  229BOLB   C3D 5495  17.062  23.256  29.516  0.0961  0.1615  0.2909
  229BOLB   C4D 5496  16.761  22.910  29.740  0.1867  0.0875 -0.0093
  230BOLB   NC1 5497  22.192   7.376  28.585  0.0204  0.0964  0.1692
  230BOLB   PO1 5498  22.481   6.962  28.570 -0.0020  0.3150  0.4147
  230BOLB   GL1 5499  22.942   6.817  28.471 -0.1999  0.1562 -0.2794
  230BOLB   GL2 5500  22.819   6.618  28.226  0.0956  0.0154 -0.0957
  230BOLB   C1A 5501  23.340   6.717  28.436  0.0027  0.0165 -0.0424
  230BOLB   C2A 5502  23.766   6.623  28.302 -0.1737 -0.1803  0.1672
  230BOLB   C3A 5503  24.114   6.411  28.202 -0.3537 -0.5965 -0.1153
  230BOLB   C4A 5504  24.268   6.004  28.412  0.1290  0.0171 -0.0899
  230BOLB   C1B 5505  23.027   6.265  28.102  0.1650 -0.0700  0.2690
  230BOLB   C2B 5506  23.143   5.805  28.272 -0.3022 -0.2216  0.2941
  230BOLB   C3B 5507  22.975   5.498  28.175 -0.0310 -0.3476 -0.1904
  230BOLB   C4B 5508  22.889   5.009  28.021 -0.0781 -0.0288 -0.0826
  230BOLB   NC2 5509  25.802   4.294  28.404 -0.0959  0.0970 -0.2097
  230BOLB   PO2 5510  25.523   4.040  28.620 -0.1589 -0.1512  0.1077
  230BOLB   GL3 5511  25.250   4.311  28.811 -0.0356 -0.1764  0.3136
  230BOLB   GL4 5512  25.184   4.176  29.019 -0.0053 -0.1718  0.0905
  230BOLB   C1C 5513  25.046   4.678  28.616 -0.0137  0.0478  0.1802
  230BOLB   C2C 5514  24.777   5.112  28.490 -0.0625  0.1901 -0.0444
  230BOLB   C3C 5515  24.370   5.220  28.592 -0.1896  0.2650 -0.3908
  230BOLB   C4C 5516  24.123   5.591  28.531 -0.3464 -0.1734 -0.0880
  230BOLB   C1D 5517  24.848   4.323  29.350 -0.0159  0.3700 -0.1378
  230BOLB   C2D 5518  24.405   4.520  29.319 -0.1035 -0.1806 -0.0987
  230BOLB   C3D 5519  24.064   4.712  29.602 -0.1418 -0.0230  0.0466
  230BOLB   C4D 5520  23.708   4.901  29.703  0.0351 -0.0299 -0.3376
  231BOLB   NC1 5521  10.763   6.208  26.818  0.1263  0.1222  0.2032
  231BOLB   PO1 5522  10.624   6.212  27.240  0.1826 -0.4061  0.0630
  231BOLB   GL1 5523  10.286   5.874  27.309  0.3424 -0.2107  0.0688
  231BOLB   GL2 5524  10.221   5.792  27.633  0.0756  0.1038 -0.2836
  231BOLB   C1A 5525  10.136   5.599  27.005 -0.1239 -0.2927 -0.1875
  231BOLB   C2A 5526   9.892   5.575  26.544 -0.0759  0.0477  0.4295
  231BOLB   C3A 5527   9.581   5.613  26.302  0.2771  0.3021  0.0093
  231BOLB   C4A 5528   9.225   5.521  26.282  0.4156 -0.1213  0.0030
  231BOLB   C1B 5529  10.295   5.357  27.420 -0.0735 -0.0701  0.2896
  231BOLB   C2B 5530  10.273   4.942  27.148  0.1669  0.3385  0.0068
  231BOLB   C3B 5531  10.203   4.636  26.868 -0.4487  0.2454 -0.0901
  231BOLB   C4B 5532  10.517   4.380  26.758  0.2596  0.1186  0.1714
  231BOLB   NC2 5533   7.242   4.102  26.715  0.1919 -0.0099  0.0054
  231BOLB   PO2 5534   7.468   4.248  26.355  0.2092  0.1475 -0.1478
  231BOLB   GL3 5535   7.765   4.295  26.605  0.1716  0.2187  0.0140
  231BOLB   GL4 5536   7.647   4.426  26.816 -0.2705  0.0588 -0.1687
  231BOLB   C1C 5537   8.146   4.437  26.452 -0.0127  0.1280 -0.1447
  231BOLB   C2C 5538   8.590   4.721  26.483  0.1506 -0.1537  0.2650
  231BOLB   C3C 5539   8.808   4.976  26.692 -0.2761  0.0297 -0.1400
  231BOLB   C4C 5540   9.059   5.214  26.446 -0.1930 -0.0688 -0.0327
  231BOLB   C1D 5541   7.776   4.822  26.725 -0.3810  0.3542  0.0213
  231BOLB   C2D 5542   7.854   4.881  26.356 -0.0552 -0.1341  0.3658
  231BOLB   C3D 5543   8.121   5.003  26.114 -0.1754 -0.0793  0.1757
  231BOLB   C4D 5544   8.450   4.622  26.023 -0.1102  0.2663 -0.1895
  232BOLB   NC1 5545  16.888  18.029  20.851 -0.1902 -0.1089 -0.1571
  232BOLB   PO1 5546  16.481  18.161  20.831 -0.1354  0.0580 -0.0003
  232BOLB   GL1 5547  16.354  18.544  20.685  0.2142  0.2156 -0.1083
  232BOLB   GL2 5548  16.301  18.700  20.876  0.0110 -0.2743  0.1652
  232BOLB   C1A 5549  16.243  18.760  20.316 -0.0216  0.7722 -0.0662
  232BOLB   C2A 5550  15.931  18.929  20.008 -0.0196 -0.0515 -0.1578
  232BOLB   C3A 5551  15.621  19.017  19.816  0.1911 -0.1805 -0.0391
  232BOLB   C4A 5552  15.436  18.914  19.406  0.1055 -0.3641  0.2062
  232BOLB   C1B 5553  16.007  18.956  20.706 -0.2535  0.0423 -0.1349
  232BOLB   C2B 5554  16.009  19.240  20.365 -0.0299 -0.0415 -0.0228
  232BOLB   C3B 5555  15.936  19.466  20.073 -0.0616  0.0937  0.0304
  232BOLB   C4B 5556  15.782  19.799  19.887 -0.1399 -0.3266  0.0415
  232BOLB   NC2 5557  14.824  19.081  17.326 -0.2000 -0.0544  0.1125
  232BOLB   PO2 5558  14.452  19.311  17.480  0.2604  0.2050  0.0240
  232BOLB   GL3 5559  14.679  19.587  17.766  0.1708 -0.0302 -0.2511
  232BOLB   GL4 5560  14.971  19.369  17.759 -0.0940 -0.0772 -0.0255
  232BOLB   C1C 5561  14.814  19.609  18.224  0.0520  0.1770 -0.1059
  232BOLB   C2C 5562  14.944  19.297  18.421 -0.2025 -0.1494 -0.0807
  232BOLB   C3C 5563  15.196  18.989  18.573 -0.1420 -0.0609  0.0620
  232BOLB   C4C 5564  15.362  18.855  18.990 -0.2692  0.1307 -0.0634
  232BOLB   C1D 5565  14.758  19.064  17.969  0.1940 -0.0213 -0.1856
  232BOLB   C2D 5566  14.389  18.813  17.898 -0.0946 -0.0353  0.0223
  232BOLB   C3D 5567  14.226  18.493  17.918  0.1274  0.0109  0.0531
  232BOLB   C4D 5568  14.015  18.060  17.954 -0.0114 -0.1694 -0.0049
  233BOLB   NC1 5569  13.445   6.479  23.089  0.4172 -0.3444  0.0578
  233BOLB   PO1 5570  12.979   6.587  23.363  0.1253 -0.2009  0.1581
  233BOLB   GL1 5571  12.693   6.319  23.165 -0.0687  0.0418  0.1540
  233BOLB   GL2 5572  12.927   6.272  22.978 -0.2748  0.1332 -0.2415
  233BOLB   C1A 5573  12.510   5.880  23.202 -0.0279 -0.1214 -0.0429
  233BOLB   C2A 5574  12.115   5.765  22.973 -0.0058  0.0478  0.0178
  233BOLB   C3A 5575  11.869   5.852  22.678  0.0865  0.0261  0.2909
  233BOLB   C4A 5576  11.676   5.578  22.469 -0.1741  0.0421 -0.0695
  233BOLB   C1B 5577  12.570   6.030  22.717  0.1190  0.1506 -0.3893
  233BOLB   C2B 5578  12.539   5.723  22.322 -0.0411 -0.0791  0.1085
  233BOLB   C3B 5579  12.430   5.393  22.078 -0.0679  0.0568 -0.0152
  233BOLB   C4B 5580  12.796   5.236  21.828  0.1321 -0.2668 -0.0517
  233BOLB   NC2 5581  11.336   4.332  20.501 -0.0017 -0.1547 -0.0781
  233BOLB   PO2 5582  11.514   4.646  20.605 -0.2580  0.2010  0.0834
  233BOLB   GL3 5583  11.348   4.583  20.984 -0.0879 -0.4547  0.0030
  233BOLB   GL4 5584  11.126   4.905  20.965 -0.2980  0.2203 -0.0077
  233BOLB   C1C 5585  11.365   4.708  21.381 -0.3274 -0.1731  0.0103
  233BOLB   C2C 5586  11.287   5.147  21.406 -0.2861 -0.2897 -0.1142
  233BOLB   C3C 5587  11.304   5.424  21.613  0.0007 -0.1233 -0.4033
  233BOLB   C4C 5588  11.521   5.632  22.046  0.0487 -0.2927  0.1005
  233BOLB   C1D 5589  11.262   5.397  20.885  0.0544 -0.1630  0.0927
  233BOLB   C2D 5590  11.450   5.746  20.987 -0.1080  0.2199 -0.0848
  233BOLB   C3D 5591  11.485   6.085  21.106 -0.0338  0.1997  0.0030
  233BOLB   C4D 5592  11.153   6.384  21.049 -0.3328 -0.0526 -0.1825
  234BOLB   NC1 5593  11.782  11.643  38.896  0.0227 -0.1206  0.2948
  234BOLB   PO1 5594  11.463  11.861  38.505 -0.0551  0.0659 -0.0533
  234BOLB   GL1 5595  11.194  11.724  38.943 -0.0237  0.3947  0.0510
  234BOLB   GL2 5596  11.395  11.378  39.069  0.0580  0.2290  0.0159
  234BOLB   C1A 5597  10.914  11.817  39.244  0.0718 -0.0821 -0.1837
  234BOLB   C2A 5598  10.407  11.779  39.292 -0.0160  0.3810  0.1988
  234BOLB   C3A 5599  10.046  11.983  39.336  0.3074 -0.1383  0.3843
  234BOLB   C4A 5600   9.604  11.824  39.422  0.1746  0.0560 -0.2515
  234BOLB   C1B 5601  11.166  11.294  39.314 -0.2472 -0.0323  0.1435
  234BOLB   C2B 5602  10.877  11.109  39.621 -0.1437  0.0974  0.1606
  234BOLB   C3B 5603  10.504  11.319  39.823  0.2851  0.1338 -0.1099
  234BOLB   C4B 5604  10.138  11.520  39.673 -0.0373  0.0624  0.0738
  234BOLB   NC2 5605   7.356  12.142  40.519  0.3302  0.0973 -0.0211
  234BOLB   PO2 5606   7.193  11.809  40.305  0.0083  0.1239  0.0195
  234BOLB   GL3 5607   7.630  11.884  40.198 -0.1567 -0.2090  0.1102
  234BOLB   GL4 5608   7.645  11.779  39.885 -0.3934 -0.0832 -0.0889
  234BOLB   C1C 5609   8.089  11.835  40.101 -0.3477  0.2136 -0.3100
  234BOLB   C2C 5610   8.471  11.815  39.916  0.1360  0.0646 -0.0756
  234BOLB   C3C 5611   8.856  11.818  39.862  0.0165  0.0080 -0.1098
  234BOLB   C4C 5612   9.235  12.081  39.662 -0.3759 -0.1431  0.2843
  234BOLB   C1D 5613   7.897  11.998  39.605  0.1228 -0.3899 -0.0566
  234BOLB   C2D 5614   8.283  11.849  39.458 -0.1346  0.4077 -0.0069
  234BOLB   C3D 5615   8.552  11.673  39.176  0.5263  0.0579 -0.3337
  234BOLB   C4D 5616   8.544  11.921  38.756  0.5964  0.1128  0.1645
  235BOLB   NC1 5617  17.135   7.758  38.419  0.1386  0.0893 -0.1203
  235BOLB   PO1 5618  17.182   7.977  38.555  0.0245  0.2499  0.4113
  235BOLB   GL1 5619  17.386   7.837  38.838  0.1020 -0.2119 -0.0975
  235BOLB   GL2 5620  17.722   8.051  38.877 -0.0002  0.0819 -0.1512
  235BOLB   C1A 5621  17.556   7.721  39.289 -0.0862  0.3499 -0.0820
  235BOLB   C2A 5622  17.823   7.650  39.622 -0.2077 -0.0428  0.3321
  235BOLB   C3A 5623  18.000   7.970  39.903  0.0974 -0.2050  0.3434
  235BOLB   C4A 5624  17.775   7.988  40.280  0.1511  0.0449  0.0350
  235BOLB   C1B 5625  17.864   8.157  39.353  0.1898  0.1769  0.2452
  235BOLB   C2B 5626  17.868   8.400  39.692 -0.5807 -0.1560  0.1580
  235BOLB   C3B 5627  17.767   8.451  40.041  0.2433  0.0978  0.1679
  235BOLB   C4B 5628  17.814   8.464  40.511 -0.0771  0.2219  0.0873
  235BOLB   NC2 5629  19.230   6.237  42.219  0.0065  0.2565 -0.2570
  235BOLB   PO2 5630  18.935   6.626  42.255 -0.1697  0.4252 -0.4599
  235BOLB   GL3 5631  18.686   6.780  41.955  0.1087  0.1470 -0.0320
  235BOLB   GL4 5632  18.370   7.020  41.943  0.4920 -0.4263 -0.2095
  235BOLB   C1C 5633  18.537   6.828  41.505  0.1799 -0.0232 -0.0582
  235BOLB   C2C 5634  18.303   7.100  41.252 -0.0164  0.1361  0.0450
  235BOLB   C3C 5635  18.139   7.486  41.100  0.1872  0.3540  0.3780
  235BOLB   C4C 5636  17.955   7.703  40.623  0.3248 -0.0142 -0.2566
  235BOLB   C1D 5637  18.763   7.256  41.816  0.0803  0.1108  0.1668
  235BOLB   C2D 5638  18.878   7.339  41.368 -0.1472  0.1128 -0.0311
  235BOLB   C3D 5639  18.684   7.393  40.994  0.5581  0.1230  0.2725
  235BOLB   C4D 5640  18.805   7.524  40.637  0.3221  0.0081  0.1663
  236BOLB   NC1 5641  14.235  23.233  21.868  0.1063 -0.1270  0.0403
  236BOLB   PO1 5642  14.591  23.338  22.164 -0.1650 -0.2312 -0.1504
  236BOLB   GL1 5643  14.469  23.009  22.409 -0.1238  0.2648  0.2628
  236BOLB   GL2 5644  14.372  22.779  22.212  0.3931 -0.2562  0.3938
  236BOLB   C1A 5645  14.642  22.611  22.621 -0.0286 -0.0880  0.2750
  236BOLB   C2A 5646  14.798  22.249  22.714 -0.0733 -0.2067 -0.1935
  236BOLB   C3A 5647  15.081  21.861  22.682 -0.0848  0.0980 -0.1101
  236BOLB   C4A 5648  15.464  21.702  22.751  0.2358 -0.0854 -0.0732
  236BOLB   C1B 5649  13.922  22.907  22.300 -0.0866 -0.0790 -0.0587
  236BOLB   C2B 5650  13.647  23.231  22.478  0.2592  0.0065 -0.0560
  236BOLB   C3B 5651  13.243  23.350  22.643 -0.2995 -0.0030 -0.0457
  236BOLB   C4B 5652  12.944  23.213  22.847  0.0519  0.0917  0.0467
  236BOLB   NC2 5653  15.341  23.358  21.474  0.2079 -0.0054 -0.1320
  236BOLB   PO2 5654  15.769  23.382  21.577 -0.0633  0.2302  0.0927
  236BOLB   GL3 5655  15.935  23.146  21.842 -0.3223  0.0552 -0.1284
  236BOLB   GL4 5656  15.702  22.916  21.561  0.2024 -0.1889 -0.0029
  236BOLB   C1C 5657  16.081  22.915  22.274  0.0132  0.0944  0.3865
  236BOLB   C2C 5658  16.116  22.437  22.344 -0.2661 -0.0061 -0.0098
  236BOLB   C3C 5659  15.992  22.106  22.403 -0.0245  0.1972 -0.0429
  236BOLB   C4C 5660  15.881  21.759  22.678 -0.5483  0.1422  0.2871
  236BOLB   C1D 5661  15.648  22.802  22.003  0.0052 -0.0764  0.0381
  236BOLB   C2D 5662  15.688  22.380  22.058  0.1973  0.3614 -0.1035
  236BOLB   C3D 5663  15.644  21.949  22.034 -0.1000 -0.1322  0.0147
  236BOLB   C4D 5664  15.532  21.605  22.298  0.1791  0.3495 -0.2319
  237BOLB   NC1 5665  11.690  16.236  22.105  0.0605  0.2616  0.0067
  237BOLB   PO1 5666  12.124  16.067  22.000 -0.0315 -0.2953  0.2812
  237BOLB   GL1 5667  11.971  16.214  21.635  0.0254 -0.0219  0.1186
  237BOLB   GL2 5668  12.000  16.090  21.344 -0.0089 -0.1106 -0.1978
  237BOLB   C1A 5669  11.758  16.535  21.384  0.2899  0.0702 -0.3102
  237BOLB   C2A 5670  11.548  16.789  21.045  0.0398 -0.0301  0.0743
  237BOLB   C3A 5671  11.392  17.081  20.840 -0.1210 -0.2117  0.4192
  237BOLB   C4A 5672  11.383  17.287  20.409  0.0577 -0.3236 -0.0957
  237BOLB   C1B 5673  11.762  16.240  21.051  0.0771  0.0799  0.1722
  237BOLB   C2B 5674  11.531  16.385  20.759 -0.2314  0.0276  0.4150
  237BOLB   C3B 5675  11.228  16.263  20.507 -0.1886  0.1540  0.0948
  237BOLB   C4B 5676  10.791  16.455  20.393  0.1878  0.1694 -0.1121
  237BOLB   NC2 5677   9.140  16.748  18.858  0.1934  0.1136  0.0060
  237BOLB   PO2 5678   9.285  17.248  18.957  0.1001  0.0685  0.0517
  237BOLB   GL3 5679   9.504  17.331  19.343  0.0411 -0.0170 -0.2290
  237BOLB   GL4 5680   9.808  17.368  19.254  0.0581 -0.0007 -0.1645
  237BOLB   C1C 5681   9.645  17.456  19.719 -0.1737 -0.5218  0.4815
  237BOLB   C2C 5682  10.112  17.521  19.960  0.1833 -0.2348  0.0469
  237BOLB   C3C 5683  10.415  17.465  20.151 -0.1686 -0.1836 -0.0601
  237BOLB   C4C 5684  10.943  17.431  20.147 -0.0338  0.5000 -0.2558
  237BOLB   C1D 5685  10.037  17.174  19.585  0.1887  0.1078 -0.0231
  237BOLB   C2D 5686  10.242  16.996  19.978 -0.1634  0.2113 -0.0266
  237BOLB   C3D 5687  10.644  16.918  20.226 -0.0332  0.0739  0.0171
  237BOLB   C4D 5688  10.945  16.786  20.055  0.0871 -0.0310  0.2205
  238BOLB   NC1 5689  10.412  12.433  37.719 -0.5297 -0.1613 -0.1174
  238BOLB   PO1 5690  10.283  12.831  37.616  0.0760  0.1639 -0.0347
  238BOLB   GL1 5691   9.865  12.938  37.826  0.0998  0.1698  0.1625
  238BOLB   GL2 5692   9.570  13.064  37.708 -0.2293  0.2329  0.2220
  238BOLB   C1A 5693   9.605  13.056  38.230 -0.0970 -0.2353  0.0763
  238BOLB   C2A 5694   9.235  13.033  38.544 -0.3059 -0.1845  0.0178
  238BOLB   C3A 5695   8.908  13.203  38.763  0.1188 -0.2377 -0.0597
  238BOLB   C4A 5696   8.511  13.290  38.810 -0.3730 -0.0303 -0.0069
  238BOLB   C1B 5697   9.170  13.057  37.943 -0.1369 -0.3030  0.1202
  238BOLB   C2B 5698   8.854  12.872  38.331 -0.3065  0.3193  0.2739
  238BOLB   C3B 5699   8.452  12.769  38.564 -0.2258 -0.0118  0.3834
  238BOLB   C4B 5700   8.145  12.699  38.870  0.3759  0.1731 -0.2615
  238BOLB   NC2 5701   6.328  12.855  40.132 -0.0676  0.0125 -0.1328
  238BOLB   PO2 5702   6.425  12.597  39.730 -0.2907 -0.0615 -0.0926
  238BOLB   GL3 5703   6.750  12.640  39.453  0.2965 -0.1888  0.0930
  238BOLB   GL4 5704   7.029  12.524  39.621  0.0584 -0.2124 -0.1789
  238BOLB   C1C 5705   7.043  12.994  39.365 -0.0199 -0.0758 -0.1264
  238BOLB   C2C 5706   7.388  13.212  39.120 -0.0866  0.1594  0.0093
  238BOLB   C3C 5707   7.732  13.277  38.879 -0.2582 -0.0901 -0.2315
  238BOLB   C4C 5708   8.172  13.236  38.751 -0.1999  0.2038  0.3081
  238BOLB   C1D 5709   7.254  12.377  39.188 -0.2836  0.0705  0.1829
  238BOLB   C2D 5710   7.544  12.300  38.859  0.1051  0.1328 -0.3759
  238BOLB   C3D 5711   7.739  12.399  38.487 -0.2590 -0.1089  0.1230
  238BOLB   C4D 5712   7.864  12.030  38.222 -0.0424  0.0635 -0.2636
  239BOLB   NC1 5713  20.844   6.172  26.978 -0.0094  0.1765 -0.0800
  239BOLB   PO1 5714  21.288   6.068  27.041  0.2228  0.0243  0.0685
  239BOLB   GL1 5715  21.592   5.728  26.987 -0.0548 -0.1063 -0.1123
  239BOLB   GL2 5716  21.521   5.429  27.052  0.4007  0.2291  0.1360
  239BOLB   C1A 5717  21.994   5.469  26.925 -0.0728 -0.0795  0.0204
  239BOLB   C2A 5718  22.314   5.115  26.869 -0.0817 -0.2431  0.1957
  239BOLB   C3A 5719  22.597   4.896  27.049 -0.1337 -0.2601 -0.3351
  239BOLB   C4A 5720  23.009   4.855  26.917 -0.0051  0.1192 -0.0485
  239BOLB   C1B 5721  21.756   5.156  27.284 -0.1938 -0.0587 -0.0645
  239BOLB   C2B 5722  22.217   5.006  27.366  0.0641 -0.0760  0.0031
  239BOLB   C3B 5723  22.427   4.642  27.492 -0.0580 -0.0302  0.1987
  239BOLB   C4B 5724  22.545   4.198  27.645  0.0943  0.0811 -0.1650
  239BOLB   NC2 5725  24.142   2.867  26.225 -0.0762 -0.1970 -0.1467
  239BOLB   PO2 5726  24.196   2.870  26.689 -0.4016 -0.1243 -0.2115
  239BOLB   GL3 5727  23.985   3.251  26.814  0.1053 -0.2135  0.0462
  239BOLB   GL4 5728  24.176   3.362  27.131  0.2358  0.1702 -0.0308
  239BOLB   C1C 5729  23.609   3.448  26.883  0.0425  0.0735 -0.1505
  239BOLB   C2C 5730  23.452   3.760  26.952 -0.3017 -0.1116 -0.2893
  239BOLB   C3C 5731  23.577   4.188  26.836 -0.1095  0.4624 -0.2052
  239BOLB   C4C 5732  23.353   4.617  26.802  0.0939 -0.1230 -0.0526
  239BOLB   C1D 5733  23.956   3.396  27.435  0.1393 -0.0386  0.0095
  239BOLB   C2D 5734  23.984   3.415  27.928  0.0214  0.0123  0.3522
  239BOLB   C3D 5735  24.109   3.375  28.369  0.2940  0.1059 -0.2956
  239BOLB   C4D 5736  24.319   3.601  28.697  0.2340 -0.0843 -0.1348
  240BOLB   NC1 5737  16.236   5.326  35.777  0.3365 -0.1522  0.1372
  240BOLB   PO1 5738  16.465   5.379  36.104  0.0111 -0.2955 -0.1132
  240BOLB   GL1 5739  16.538   5.014  35.911  0.0353  0.0904  0.1366
  240BOLB   GL2 5740  16.845   4.973  36.006  0.0827 -0.0708 -0.1394
  240BOLB   C1A 5741  16.689   4.601  35.748 -0.2089 -0.0176 -0.2322
  240BOLB   C2A 5742  16.544   4.189  35.579 -0.3711 -0.0593  0.0985
  240BOLB   C3A 5743  16.490   3.769  35.560  0.0342 -0.1676  0.0931
  240BOLB   C4A 5744  16.709   3.330  35.606 -0.0216  0.2306 -0.0001
  240BOLB   C1B 5745  16.928   4.882  36.493  0.0011  0.0810 -0.0159
  240BOLB   C2B 5746  16.916   4.919  37.019 -0.2393  0.0733  0.2526
  240BOLB   C3B 5747  16.956   4.814  37.493 -0.1762 -0.1088 -0.1085
  240BOLB   C4B 5748  17.307   4.947  37.746 -0.0110 -0.2415 -0.0351
  240BOLB   NC2 5749  16.422   1.556  37.000  0.0652 -0.1158 -0.1308
  240BOLB   PO2 5750  16.723   1.413  37.317  0.1439 -0.0755 -0.0060
  240BOLB   GL3 5751  16.948   1.747  37.012  0.3115  0.2248 -0.2699
  240BOLB   GL4 5752  17.225   2.015  37.008  0.0042  0.1910  0.0725
  240BOLB   C1C 5753  16.895   1.922  36.652 -0.3692 -0.1340  0.2266
  240BOLB   C2C 5754  16.582   2.123  36.317 -0.1077  0.0090  0.0242
  240BOLB   C3C 5755  16.664   2.580  36.049 -0.1003 -0.1778  0.2371
  240BOLB   C4C 5756  16.774   2.985  35.870  0.1354  0.1172 -0.0772
  240BOLB   C1D 5757  17.530   2.015  36.810 -0.3403  0.0799 -0.0665
  240BOLB   C2D 5758  17.676   2.034  36.393  0.1602  0.1676 -0.4037
  240BOLB   C3D 5759  17.949   2.130  36.059  0.2716 -0.0504 -0.0947
  240BOLB   C4D 5760  17.913   2.250  35.644 -0.2179 -0.4170  0.0322
  241BOLB   NC1 5761  13.964   4.771  30.867 -0.0923 -0.2149 -0.1333
  241BOLB   PO1 5762  13.693   5.038  31.153  0.1270 -0.0713 -0.1614
  241BOLB   GL1 5763  13.794   4.520  31.245 -0.1791  0.3506  0.0156
  241BOLB   GL2 5764  13.657   4.388  31.577  0.2739 -0.0339 -0.1458
  241BOLB   C1A 5765  13.658   4.052  31.176 -0.1135 -0.3975 -0.2142
  241BOLB   C2A 5766  13.576   3.703  31.349 -0.3527 -0.1552 -0.3482
  241BOLB   C3A 5767  13.450   3.331  31.607  0.1236 -0.0328 -0.1702
  241BOLB   C4A 5768  13.510   2.909  31.758 -0.0740 -0.0969  0.1473
  241BOLB   C1B 5769  13.879   4.029  31.621  0.5159 -0.1328 -0.4031
  241BOLB   C2B 5770  13.927   3.542  31.815  0.1604 -0.2603 -0.0636
  241BOLB   C3B 5771  14.279   3.396  32.090 -0.2542  0.1668 -0.0107
  241BOLB   C4B 5772  14.391   3.074  32.230 -0.2904  0.0759  0.2928
  241BOLB   NC2 5773  13.624   0.759  32.013  0.2922 -0.0276  0.0018
  241BOLB   PO2 5774  13.551   0.739  32.445  0.0397 -0.1284 -0.1115
  241BOLB   GL3 5775  13.751   1.136  32.432 -0.1368 -0.6336  0.1380
  241BOLB   GL4 5776  13.997   1.075  32.177 -0.0096 -0.0349 -0.0733
  241BOLB   C1C 5777  13.760   1.556  32.212 -0.1882  0.1808 -0.0697
  241BOLB   C2C 5778  13.588   1.829  31.986 -0.0853  0.1333  0.0141
  241BOLB   C3C 5779  13.765   2.225  31.787  0.2263  0.0046 -0.0152
  241BOLB   C4C 5780  13.778   2.614  31.753  0.0169 -0.0990  0.0311
  241BOLB   C1D 5781  13.780   1.298  31.768 -0.0627  0.0764  0.0643
  241BOLB   C2D 5782  13.711   1.703  31.407  0.3809  0.0586 -0.1176
  241BOLB   C3D 5783  13.911   2.035  31.318 -0.4854  0.0023  0.0365
  241BOLB   C4D 5784  14.209   2.444  31.515  0.1331 -0.0809  0.0148
  242BOLB   NC1 5785  11.344  13.490  22.020 -0.0478 -0.2000 -0.0245
  242BOLB   PO1 5786  11.120  13.751  22.048 -0.2239  0.0186 -0.1620
  242BOLB   GL1 5787  10.832  13.916  21.745 -0.0374 -0.3394  0.5165
  242BOLB   GL2 5788  10.631  14.195  21.726  0.0731  0.2604  0.4275
  242BOLB   C1A 5789  10.577  13.861  21.380  0.3350  0.1629 -0.1415
  242BOLB   C2A 5790  10.192  13.963  21.089  0.3767  0.2592 -0.0844
  242BOLB   C3A 5791   9.845  13.811  20.954  0.2071  0.1216  0.1658
  242BOLB   C4A 5792   9.686  13.743  20.562  0.3702  0.0477 -0.2607
  242BOLB   C1B 5793  10.415  14.337  21.346  0.1001  0.3469  0.0545
  242BOLB   C2B 5794  10.337  14.377  20.833  0.1655  0.3711 -0.2935
  242BOLB   C3B 5795   9.934  14.459  20.768  0.1670  0.1799  0.0040
  242BOLB   C4B 5796   9.745  14.875  20.742 -0.0426  0.0453 -0.0439
  242BOLB   NC2 5797   8.392  13.265  18.912 -0.2388  0.2136  0.1478
  242BOLB   PO2 5798   8.503  13.558  18.513  0.2172 -0.2031  0.1176
  242BOLB   GL3 5799   8.868  13.583  18.722 -0.1829 -0.0686 -0.2496
  242BOLB   GL4 5800   8.958  13.974  18.715  0.0201  0.4497  0.1336
  242BOLB   C1C 5801   9.073  13.497  19.084 -0.0544 -0.1417  0.1543
  242BOLB   C2C 5802   9.088  13.777  19.463 -0.1229  0.2861  0.1256
  242BOLB   C3C 5803   9.150  13.907  19.913 -0.3029 -0.0037  0.0508
  242BOLB   C4C 5804   9.332  13.787  20.266  0.1358  0.1023  0.1947
  242BOLB   C1D 5805   9.301  13.941  18.946 -0.0062 -0.2271 -0.0297
  242BOLB   C2D 5806   9.650  14.010  19.285 -0.0274 -0.2378  0.2074
  242BOLB   C3D 5807   9.939  13.833  19.486  0.1314 -0.3955 -0.1275
  242BOLB   C4D 5808  10.184  13.551  19.686 -0.1044  0.2241 -0.0433
  243BOLB   NC1 5809  15.507   4.379  30.093  0.0884 -0.0014 -0.0815
  243BOLB   PO1 5810  15.968   4.271  30.077  0.2077 -0.0560  0.0013
  243BOLB   GL1 5811  15.923   4.070  30.501 -0.0662  0.0565  0.1964
  243BOLB   GL2 5812  16.227   3.873  30.615 -0.0084  0.0902 -0.1232
  243BOLB   C1A 5813  15.747   3.747  30.813  0.0428 -0.1381 -0.0116
  243BOLB   C2A 5814  15.623   3.316  30.789  0.0319  0.0703  0.1866
  243BOLB   C3A 5815  15.860   2.995  30.884 -0.0279  0.0946 -0.4564
  243BOLB   C4A 5816  16.136   2.689  31.046  0.0189  0.1056  0.1815
  243BOLB   C1B 5817  16.091   3.438  30.783  0.0330  0.1694 -0.0290
  243BOLB   C2B 5818  16.299   3.141  30.757 -0.5113 -0.2496 -0.1248
  243BOLB   C3B 5819  16.360   2.745  30.587  0.0803  0.0147  0.1351
  243BOLB   C4B 5820  16.138   2.544  30.298  0.1203  0.2479  0.0283
  243BOLB   NC2 5821  16.268   0.322  32.245  0.0136 -0.2775 -0.1189
  243BOLB   PO2 5822  16.334   0.267  31.915  0.0394  0.2465  0.1395
  243BOLB   GL3 5823  16.186   0.650  31.824 -0.2015 -0.4769  0.2426
  243BOLB   GL4 5824  16.207   0.827  32.045 -0.1218  0.1634  0.1249
  243BOLB   C1C 5825  15.970   1.028  31.537  0.1258 -0.2641  0.1630
  243BOLB   C2C 5826  16.172   1.382  31.424 -0.2882  0.0919 -0.1089
  243BOLB   C3C 5827  16.241   1.866  31.355  0.0745  0.3558  0.0707
  243BOLB   C4C 5828  16.042   2.253  31.175  0.0477  0.1107 -0.0937
  243BOLB   C1D 5829  16.477   1.093  31.756 -0.1964  0.2752 -0.0227
  243BOLB   C2D 5830  16.603   1.503  31.695  0.1950 -0.0570 -0.0388
  243BOLB   C3D 5831  16.792   1.912  31.912 -0.3047 -0.2868  0.0380
  243BOLB   C4D 5832  16.925   2.389  31.879 -0.0859 -0.0257  0.2904
  244BOLB   NC1 5833   9.936  14.753  23.746  0.2883 -0.0296 -0.2304
  244BOLB   PO1 5834   9.572  14.512  23.899  0.3112  0.0538 -0.1490
  244BOLB   GL1 5835   9.270  14.462  23.665 -0.2165 -0.2560  0.3161
  244BOLB   GL2 5836   9.393  14.417  23.348  0.0737 -0.0913  0.2993
  244BOLB   C1A 5837   8.903  14.619  23.490  0.0580 -0.1774  0.3945
  244BOLB   C2A 5838   8.759  14.537  23.045  0.0390  0.1275 -0.3704
  244BOLB   C3A 5839   8.521  14.317  22.835 -0.0608 -0.1365 -0.1906
  244BOLB   C4A 5840   8.311  14.194  22.522 -0.0941 -0.0405 -0.1225
  244BOLB   C1B 5841   9.251  14.689  23.066  0.5322 -0.2888  0.2609
  244BOLB   C2B 5842   9.154  14.968  22.701  0.0938 -0.2408  0.1931
  244BOLB   C3B 5843   9.260  15.183  22.360 -0.0390 -0.1444  0.0202
  244BOLB   C4B 5844   9.377  15.358  21.999 -0.0786 -0.1097  0.1215
  244BOLB   NC2 5845   6.062  13.938  20.719  0.0967  0.2492  0.1334
  244BOLB   PO2 5846   6.520  14.207  20.750 -0.1503 -0.0182 -0.1859
  244BOLB   GL3 5847   6.846  13.928  20.994 -0.0808  0.1621 -0.1577
  244BOLB   GL4 5848   6.800  13.632  21.199 -0.2436  0.1444 -0.0047
  244BOLB   C1C 5849   7.203  13.950  21.284 -0.0065  0.1433  0.0701
  244BOLB   C2C 5850   7.490  13.866  21.571 -0.1093  0.0197  0.2935
  244BOLB   C3C 5851   7.743  13.937  21.903 -0.1393  0.0481  0.2247
  244BOLB   C4C 5852   8.018  14.065  22.246  0.0143  0.3590  0.0186
  244BOLB   C1D 5853   7.151  13.502  20.999 -0.0256  0.0337 -0.0592
  244BOLB   C2D 5854   7.482  13.264  20.776 -0.2457  0.0331 -0.0038
  244BOLB   C3D 5855   7.917  13.033  20.744 -0.1703  0.0275 -0.1591
  244BOLB   C4D 5856   8.352  13.159  20.814  0.0423  0.0439 -0.4104
  245BOLB   NC1 5857  13.431   5.818  34.142 -0.2105 -0.1538  0.1919
  245BOLB   PO1 5858  13.301   5.618  34.514 -0.0739 -0.0826  0.1715
  245BOLB   GL1 5859  13.243   5.318  34.834  0.2632 -0.0018 -0.0653
  245BOLB   GL2 5860  13.001   5.005  34.857 -0.2610  0.1722  0.2039
  245BOLB   C1A 5861  13.398   5.076  35.157  0.1037 -0.0673 -0.1498
  245BOLB   C2A 5862  13.281   4.714  35.353 -0.1903  0.1695  0.2335
  245BOLB   C3A 5863  13.306   4.378  35.539 -0.1376  0.0071  0.1002
  245BOLB   C4A 5864  13.391   3.945  35.593 -0.3714  0.0842 -0.0115
  245BOLB   C1B 5865  12.931   4.623  34.971  0.0224  0.1759 -0.1793
  245BOLB   C2B 5866  12.984   4.273  35.229 -0.1033  0.1837  0.0333
  245BOLB   C3B 5867  12.913   3.865  35.220 -0.0218  0.1534  0.1592
  245BOLB   C4B 5868  12.743   3.487  34.994 -0.2043  0.2354 -0.2029
  245BOLB   NC2 5869  12.197   2.367  37.313  0.0903 -0.0523  0.0045
  245BOLB   PO2 5870  12.307   2.383  36.887  0.0644  0.0261 -0.1977
  245BOLB   GL3 5871  12.166   2.769  36.625  0.1652  0.1344 -0.1044
  245BOLB   GL4 5872  11.963   2.750  36.373 -0.1205 -0.2722  0.0818
  245BOLB   C1C 5873  12.424   3.158  36.618 -0.1885 -0.1300 -0.1596
  245BOLB   C2C 5874  12.938   3.244  36.550 -0.0047 -0.0541  0.0766
  245BOLB   C3C 5875  13.164   3.311  36.136  0.0589 -0.2736  0.1186
  245BOLB   C4C 5876  13.363   3.647  35.882  0.1968 -0.3257  0.4351
  245BOLB   C1D 5877  11.990   3.048  36.029  0.2191 -0.0362 -0.3959
  245BOLB   C2D 5878  12.263   3.275  35.720  0.1659 -0.1134 -0.1257
  245BOLB   C3D 5879  12.519   3.591  35.540  0.0977 -0.0838 -0.0682
  245BOLB   C4D 5880  12.868   3.634  35.751  0.1831 -0.1074  0.0497
  246BOLB   NC1 5881  21.041   5.815  32.061  0.3767  0.0156 -0.1970
  246BOLB   PO1 5882  21.180   5.822  31.616 -0.1152  0.0997 -0.0644
  246BOLB   GL1 5883  21.510   5.684  31.609 -0.1484 -0.1666 -0.2983
  246BOLB   GL2 5884  21.875   5.719  31.596  0.0870 -0.1829 -0.0677
  246BOLB   C1A 5885  21.657   5.273  31.821  0.1072  0.1422 -0.1175
  246BOLB   C2A 5886  21.961   5.190  32.143 -0.1607 -0.0367 -0.1381
  246BOLB   C3A 5887  22.089   4.967  32.332  0.0467 -0.0063  0.2391
  246BOLB   C4A 5888  22.367   4.670  32.247  0.1327  0.1827  0.0930
  246BOLB   C1B 5889  22.194   5.438  31.665  0.0604  0.4052 -0.0577
  246BOLB   C2B 5890  22.473   4.986  31.660 -0.1380 -0.0377 -0.4043
  246BOLB   C3B 5891  22.748   4.686  31.675  0.1661  0.1064  0.2887
  246BOLB   C4B 5892  22.921   4.431  31.954  0.0160  0.0047  0.1190
  246BOLB   NC2 5893  24.631   3.392  34.001 -0.0328  0.1232  0.2065
  246BOLB   PO2 5894  24.418   3.390  33.579 -0.4217  0.1516  0.0673
  246BOLB   GL3 5895  23.998   3.439  33.554 -0.3593 -0.0208  0.0119
  246BOLB   GL4 5896  23.925   3.654  33.636  0.3264 -0.0588 -0.0412
  246BOLB   C1C 5897  23.664   3.783  33.279 -0.1022 -0.2794  0.1279
  246BOLB   C2C 5898  23.320   3.960  33.031 -0.1719  0.2092 -0.1325
  246BOLB   C3C 5899  23.002   4.160  32.745  0.1103  0.0507  0.0212
  246BOLB   C4C 5900  22.589   4.338  32.435 -0.0324  0.1120  0.2607
  246BOLB   C1D 5901  23.640   4.076  33.831  0.0626  0.1321  0.1272
  246BOLB   C2D 5902  23.435   4.507  33.788  0.1598  0.0329 -0.1496
  246BOLB   C3D 5903  23.637   4.822  33.636 -0.2407 -0.2043  0.1608
  246BOLB   C4D 5904  23.670   4.879  33.267 -0.2275  0.0945  0.0623
  247BOLB   NC1 5905  21.061   7.289  36.317  0.1126 -0.2613 -0.1035
  247BOLB   PO1 5906  21.419   7.467  36.230 -0.1917 -0.0407  0.1234
  247BOLB   GL1 5907  21.421   7.080  36.076  0.3432 -0.1882  0.2065
  247BOLB   GL2 5908  21.495   7.135  35.742 -0.2080 -0.0092 -0.0817
  247BOLB   C1A 5909  21.824   6.849  36.232  0.1967  0.0728  0.0182
  247BOLB   C2A 5910  22.007   6.503  35.994 -0.2704 -0.2048 -0.1979
  247BOLB   C3A 5911  22.332   6.156  35.979  0.1481 -0.0522 -0.0538
  247BOLB   C4A 5912  22.620   6.060  36.288 -0.0154 -0.0271 -0.1300
  247BOLB   C1B 5913  21.916   7.095  35.859  0.2311  0.0756  0.2215
  247BOLB   C2B 5914  22.271   7.180  36.048  0.0665 -0.2016  0.0637
  247BOLB   C3B 5915  22.585   7.453  35.972 -0.0226  0.4340  0.2594
  247BOLB   C4B 5916  22.999   7.296  35.910  0.0753 -0.0939 -0.1712
  247BOLB   NC2 5917  23.818   4.499  36.780  0.1032 -0.4082  0.1581
  247BOLB   PO2 5918  23.898   4.766  37.233 -0.0395  0.4304 -0.0630
  247BOLB   GL3 5919  23.936   4.966  36.887 -0.1984  0.2567  0.0065
  247BOLB   GL4 5920  24.193   5.280  36.853  0.0672  0.0758 -0.1425
  247BOLB   C1C 5921  23.670   5.292  36.835  0.1626 -0.2011  0.2776
  247BOLB   C2C 5922  23.515   5.678  36.546  0.1716 -0.4145  0.1611
  247BOLB   C3C 5923  23.502   6.092  36.588 -0.1982 -0.2697 -0.4077
  247BOLB   C4C 5924  23.108   6.245  36.529 -0.0326 -0.2720  0.1280
  247BOLB   C1D 5925  24.004   5.630  36.960  0.0072  0.0677 -0.1014
  247BOLB   C2D 5926  23.576   5.797  37.048  0.1356 -0.0903  0.0180
  247BOLB   C3D 5927  23.132   5.776  36.854  0.0439  0.0379 -0.1835
  247BOLB   C4D 5928  22.750   5.981  36.723  0.0269 -0.1488  0.3685
  248BOLB   NC1 5929  16.054  20.904  30.370  0.0715 -0.0973  0.3591
  248BOLB   PO1 5930  15.675  20.925  30.114  0.2951 -0.1828 -0.0340
  248BOLB   GL1 5931  16.044  21.339  30.096 -0.0517 -0.1180 -0.1021
  248BOLB   GL2 5932  16.114  21.483  29.795 -0.1620  0.2390 -0.1644
  248BOLB   C1A 5933  16.508  21.386  30.263 -0.2214  0.0377  0.1302
  248BOLB   C2A 5934  16.513  21.631  30.685  0.0212  0.2163  0.2623
  248BOLB   C3A 5935  16.305  22.152  30.850 -0.1328 -0.0939 -0.1699
  248BOLB   C4A 5936  16.311  22.633  30.783 -0.1023  0.2513 -0.2050
  248BOLB   C1B 5937  16.380  21.800  29.926 -0.0602  0.0894 -0.1610
  248BOLB   C2B 5938  16.832  22.048  30.031  0.1846  0.0790 -0.1620
  248BOLB   C3B 5939  17.045  22.322  29.729 -0.1298  0.1908 -0.0133
  248BOLB   C4B 5940  17.085  22.643  29.433  0.3468 -0.3121 -0.0267
  248BOLB   NC2 5941  17.414  25.219  30.146  0.1004  0.6113 -0.2149
  248BOLB   PO2 5942  17.148  24.777  30.360  0.0255 -0.0361 -0.2014
  248BOLB   GL3 5943  17.123  24.372  30.116  0.2430  0.2333  0.0361
  248BOLB   GL4 5944  17.404  24.356  29.995 -0.0482 -0.0976 -0.0679
  248BOLB   C1C 5945  16.974  23.918  30.041  0.0978  0.1976  0.0429
  248BOLB   C2C 5946  16.897  23.433  30.003 -0.0236 -0.1152  0.1597
  248BOLB   C3C 5947  16.833  23.004  30.206 -0.2549 -0.3153  0.0123
  248BOLB   C4C 5948  16.500  22.881  30.527  0.0464  0.1388  0.1747
  248BOLB   C1D 5949  17.463  23.899  29.921 -0.1540  0.1928  0.1707
  248BOLB   C2D 5950  17.416  23.424  29.814  0.1613  0.0497 -0.1960
  248BOLB   C3D 5951  17.419  23.074  29.791 -0.0037  0.3651 -0.3121
  248BOLB   C4D 5952  17.545  22.704  29.610  0.0956  0.1969  0.1783
  249BOLB   NC1 5953   7.618  12.296  29.351  0.0795 -0.0577  0.0350
  249BOLB   PO1 5954   7.618  12.287  29.027  0.1722 -0.2123 -0.2882
  249BOLB   GL1 5955   7.224  12.041  29.076 -0.1712 -0.1026  0.0155
  249BOLB   GL2 5956   7.260  11.621  29.162 -0.1819 -0.2560  0.0301
  249BOLB   C1A 5957   6.801  12.185  29.032 -0.0714  0.1500 -0.0326
  249BOLB   C2A 5958   6.411  12.241  28.791 -0.0931 -0.5310  0.1323
  249BOLB   C3A 5959   5.989  12.141  28.954  0.0262  0.2281 -0.1675
  249BOLB   C4A 5960   5.599  12.034  29.160  0.0582 -0.0864  0.1685
  249BOLB   C1B 5961   6.849  11.665  29.078 -0.2219  0.1308 -0.1910
  249BOLB   C2B 5962   6.445  11.770  28.934 -0.0312 -0.1353  0.0593
  249BOLB   C3B 5963   6.104  11.644  28.749 -0.2023  0.2349  0.1667
  249BOLB   C4B 5964   5.775  11.515  28.815 -0.0895 -0.2604  0.1007
  249BOLB   NC2 5965   3.549  12.826  29.494 -0.0701  0.1111 -0.0671
  249BOLB   PO2 5966   3.315  12.383  29.481  0.2220 -0.2158  0.1132
  249BOLB   GL3 5967   3.739  12.331  29.398  0.0640  0.2941  0.1022
  249BOLB   GL4 5968   3.809  12.648  29.090  0.3798 -0.3028  0.0328
  249BOLB   C1C 5969   4.138  12.320  29.428  0.0563  0.2632  0.1561
  249BOLB   C2C 5970   4.318  12.024  29.122 -0.1182  0.2482 -0.2652
  249BOLB   C3C 5971   4.825  12.002  29.236  0.0058  0.0489 -0.0005
  249BOLB   C4C 5972   5.194  11.866  29.120  0.1151 -0.0252 -0.2485
  249BOLB   C1D 5973   4.168  12.847  29.352  0.1433 -0.1526 -0.1633
  249BOLB   C2D 5974   4.492  12.995  29.502 -0.0249 -0.2915  0.1202
  249BOLB   C3D 5975   4.781  12.769  29.821 -0.2072 -0.0334  0.1102
  249BOLB   C4D 5976   5.128  12.748  29.879 -0.2613  0.1495  0.0351
  250BOLB   NC1 5977  12.270  21.084  30.909 -0.2721  0.2716  0.1010
  250BOLB   PO1 5978  12.416  21.380  30.560  0.3991 -0.1849  0.2501
  250BOLB   GL1 5979  12.519  21.765  30.605 -0.0211 -0.2599 -0.1114
  250BOLB   GL2 5980  12.840  21.793  30.642 -0.0371  0.0844  0.3039
  250BOLB   C1A 5981  12.374  22.120  30.595  0.1731  0.0801  0.2494
  250BOLB   C2A 5982  12.121  22.493  30.571 -0.0941 -0.0206 -0.1832
  250BOLB   C3A 5983  12.190  22.859  30.863 -0.1251 -0.2147  0.4907
  250BOLB   C4A 5984  12.038  23.210  31.005  0.0678 -0.3533  0.2371
  250BOLB   C1B 5985  12.854  22.138  30.437 -0.2361 -0.1710  0.0236
  250BOLB   C2B 5986  12.711  22.537  30.626  0.2613  0.1329 -0.0845
  250BOLB   C3B 5987  12.446  22.895  30.446 -0.0208 -0.3018  0.1102
  250BOLB   C4B 5988  12.184  23.240  30.519  0.3503 -0.1912 -0.2824
  250BOLB   NC2 5989  11.240  25.169  31.552  0.0647 -0.1611 -0.0900
  250BOLB   PO2 5990  11.020  24.918  31.807 -0.0607  0.1786 -0.1892
  250BOLB   GL3 5991  11.422  24.749  31.775  0.2569 -0.3569 -0.0876
  250BOLB   GL4 5992  11.521  24.804  32.122 -0.1112 -0.0825 -0.2376
  250BOLB   C1C 5993  11.528  24.352  31.661 -0.0913  0.2523 -0.0870
  250BOLB   C2C 5994  11.575  24.003  31.624  0.0689  0.4109  0.2116
  250BOLB   C3C 5995  11.601  23.556  31.468  0.2400 -0.1481 -0.1378
  250BOLB   C4C 5996  11.812  23.224  31.319  0.2285  0.2208  0.3475
  250BOLB   C1D 5997  11.526  24.359  32.165 -0.0693  0.2390 -0.0254
  250BOLB   C2D 5998  11.264  24.024  32.130  0.0696  0.1074  0.1104
  250BOLB   C3D 5999  11.094  23.579  32.255  0.1497  0.1352 -0.0375
  250BOLB   C4D 6000  11.275  23.148  32.416 -0.0740 -0.1207  0.1312
  251BOLB   NC1 6001  19.906   6.262  17.150  0.2484  0.0006 -0.0347
  251BOLB   PO1 6002  19.472   6.185  17.300  0.1144 -0.0431  0.1256
  251BOLB   GL1 6003  19.298   6.149  17.673  0.1864  0.0694  0.3095
  251BOLB   GL2 6004  18.986   5.879  17.736  0.1123 -0.0962  0.0075
  251BOLB   C1A 6005  19.298   6.487  18.010 -0.1053  0.0652  0.3589
  251BOLB   C2A 6006  19.280   6.901  18.207 -0.1066  0.0960  0.0837
  251BOLB   C3A 6007  19.440   7.044  18.529  0.2473  0.0403  0.2313
  251BOLB   C4A 6008  19.727   7.282  18.855  0.0896 -0.1256 -0.3269
  251BOLB   C1B 6009  18.997   6.071  18.100 -0.3372  0.2130  0.0592
  251BOLB   C2B 6010  19.272   6.270  18.436 -0.0163 -0.1920 -0.0779
  251BOLB   C3B 6011  19.553   6.443  18.693 -0.0949 -0.3728  0.2194
  251BOLB   C4B 6012  19.633   6.775  19.023  0.1071  0.0625  0.1130
  251BOLB   NC2 6013  21.769   6.225  17.739  0.0374 -0.2007  0.2325
  251BOLB   PO2 6014  21.258   6.107  17.724 -0.2140 -0.1440  0.1238
  251BOLB   GL3 6015  21.124   6.176  18.104 -0.2676  0.2152 -0.0263
  251BOLB   GL4 6016  21.402   6.297  18.287  0.1057  0.0722  0.2489
  251BOLB   C1C 6017  20.901   6.282  18.432  0.2295 -0.1029  0.1049
  251BOLB   C2C 6018  20.757   6.677  18.653  0.1994 -0.0195  0.2163
  251BOLB   C3C 6019  20.453   7.061  18.707 -0.0641 -0.1184  0.0380
  251BOLB   C4C 6020  20.186   7.398  18.870 -0.1347  0.0106  0.0705
  251BOLB   C1D 6021  21.237   6.564  18.674 -0.1549 -0.0027 -0.1485
  251BOLB   C2D 6022  21.234   6.801  18.981  0.0024  0.1983 -0.0273
  251BOLB   C3D 6023  20.890   7.077  19.056  0.0903 -0.1379 -0.1914
  251BOLB   C4D 6024  20.610   7.331  19.127  0.0224  0.0438  0.3154
  252BOLB   NC1 6025   7.789  11.508  28.216 -0.0820  0.2085  0.0140
  252BOLB   PO1 6026   7.958  11.293  27.770  0.0291 -0.0989 -0.0917
  252BOLB   GL1 6027   7.611  11.377  27.746 -0.1846  0.3436 -0.0087
  252BOLB   GL2 6028   7.580  11.784  27.760 -0.3012 -0.2930  0.0889
  252BOLB   C1A 6029   7.225  11.454  27.858 -0.0442  0.0795  0.0489
  252BOLB   C2A 6030   6.745  11.446  28.032 -0.0272 -0.2491  0.1536
  252BOLB   C3A 6031   6.365  11.568  28.064  0.0319 -0.0700 -0.0082
  252BOLB   C4A 6032   5.913  11.570  28.144  0.4209 -0.2485 -0.0435
  252BOLB   C1B 6033   7.131  11.870  27.619  0.0677 -0.1866 -0.1445
  252BOLB   C2B 6034   6.944  11.862  27.160  0.2974  0.0368  0.0351
  252BOLB   C3B 6035   6.524  11.740  27.112 -0.3103  0.1726  0.3700
  252BOLB   C4B 6036   6.199  11.929  26.963  0.1556 -0.0969 -0.0007
  252BOLB   NC2 6037   3.487  11.038  27.728 -0.2084  0.0745 -0.1717
  252BOLB   PO2 6038   3.725  10.756  27.503 -0.0696 -0.2288 -0.3052
  252BOLB   GL3 6039   4.155  11.057  27.612 -0.1984 -0.0483 -0.0590
  252BOLB   GL4 6040   4.461  10.951  27.423 -0.1354 -0.0582 -0.5978
  252BOLB   C1C 6041   4.540  10.990  27.929  0.0741 -0.0067 -0.0557
  252BOLB   C2C 6042   4.825  10.883  28.128  0.2214 -0.0045 -0.0462
  252BOLB   C3C 6043   5.209  10.980  28.347 -0.1143  0.2873 -0.0674
  252BOLB   C4C 6044   5.655  11.375  28.326  0.0419  0.0757  0.0521
  252BOLB   C1D 6045   4.931  10.928  27.371 -0.2352 -0.0421 -0.0980
  252BOLB   C2D 6046   5.372  11.057  27.404 -0.4734  0.0456 -0.0607
  252BOLB   C3D 6047   5.851  11.171  27.389  0.1258  0.1349  0.2906
  252BOLB   C4D 6048   6.284  11.342  27.479 -0.0480 -0.3773 -0.0035
  253BOLB   NC1 6049  16.040  10.059  19.797 -0.1241 -0.1757  0.1137
  253BOLB   PO1 6050  15.834  10.092  19.351 -0.1876 -0.0008 -0.0564
  253BOLB   GL1 6051  15.806  10.188  18.891  0.0299 -0.2129 -0.0370
  253BOLB   GL2 6052  16.025  10.425  18.724  0.1094  0.0264 -0.1243
  253BOLB   C1A 6053  15.563  10.052  18.607  0.2355 -0.0174 -0.0023
  253BOLB   C2A 6054  15.462   9.868  18.239  0.2745  0.3916 -0.1606
  253BOLB   C3A 6055  15.388   9.965  18.033  0.2615 -0.1761 -0.1198
  253BOLB   C4A 6056  15.495  10.238  17.712 -0.1487  0.1087  0.0339
  253BOLB   C1B 6057  16.112  10.330  18.320  0.1529 -0.2154 -0.0188
  253BOLB   C2B 6058  16.106  10.442  17.856  0.0266 -0.0378 -0.0881
  253BOLB   C3B 6059  15.768  10.617  17.588 -0.0769  0.1515 -0.1460
  253BOLB   C4B 6060  15.594  10.896  17.195 -0.0471 -0.1674  0.0887
  253BOLB   NC2 6061  14.512  10.164  15.784 -0.1301  0.1880 -0.1120
  253BOLB   PO2 6062  14.681  10.496  15.745 -0.0688 -0.2138  0.1468
  253BOLB   GL3 6063  14.756  10.673  16.147 -0.4120  0.2858  0.1953
  253BOLB   GL4 6064  14.599  11.055  16.215 -0.1139 -0.2623 -0.0929
  253BOLB   C1C 6065  15.190  10.664  16.278  0.0983  0.1431 -0.3349
  253BOLB   C2C 6066  15.349  10.465  16.577 -0.0241  0.0803  0.0936
  253BOLB   C3C 6067  15.308  10.275  17.006  0.0657 -0.3828 -0.1776
  253BOLB   C4C 6068  15.401  10.425  17.323 -0.4065  0.0203 -0.0360
  253BOLB   C1D 6069  14.881  11.033  16.553 -0.3125 -0.2108 -0.1637
  253BOLB   C2D 6070  15.099  10.778  16.937  0.3734 -0.0315 -0.1516
  253BOLB   C3D 6071  14.948  10.676  17.316 -0.1863 -0.1264 -0.0917
  253BOLB   C4D 6072  14.597  10.789  17.545 -0.2280 -0.1770 -0.1740
  254BOLB   NC1 6073  21.682  10.803  37.532  0.2903 -0.3569  0.1443
  254BOLB   PO1 6074  21.593  11.201  37.533  0.1093  0.2008 -0.2512
  254BOLB   GL1 6075  21.677  11.175  37.916  0.1378 -0.0843  0.2274
  254BOLB   GL2 6076  21.437  11.274  38.147  0.3489  0.0272  0.1937
  254BOLB   C1A 6077  21.942  11.043  38.128  0.0079 -0.2968 -0.1227
  254BOLB   C2A 6078  22.293  10.841  38.371 -0.1001  0.2717  0.0444
  254BOLB   C3A 6079  22.698  10.669  38.499  0.0498 -0.1673  0.1410
  254BOLB   C4A 6080  23.136  10.443  38.485  0.1050  0.1064 -0.0455
  254BOLB   C1B 6081  21.702  11.162  38.568  0.0125  0.1758  0.0522
  254BOLB   C2B 6082  22.091  11.263  38.842  0.4222 -0.4040  0.1097
  254BOLB   C3B 6083  22.457  11.165  38.901 -0.2264  0.2933  0.3233
  254BOLB   C4B 6084  22.880  11.113  38.940  0.1198  0.3860  0.0086
  254BOLB   NC2 6085  23.820   8.452  39.902  0.3079  0.0282 -0.0085
  254BOLB   PO2 6086  24.211   8.284  39.687 -0.0611  0.2612  0.3339
  254BOLB   GL3 6087  24.009   8.756  39.484 -0.0643  0.0477  0.0066
  254BOLB   GL4 6088  23.777   8.647  39.374 -0.0689 -0.3153  0.3115
  254BOLB   C1C 6089  23.817   9.151  39.257 -0.0979 -0.0216  0.0613
  254BOLB   C2C 6090  23.723   9.515  38.973 -0.1945 -0.0240  0.2035
  254BOLB   C3C 6091  23.324   9.759  38.821  0.0577  0.0563  0.1149
  254BOLB   C4C 6092  23.174  10.164  38.744  0.1196  0.1503  0.0993
  254BOLB   C1D 6093  23.793   8.700  38.933 -0.2962 -0.1078 -0.1275
  254BOLB   C2D 6094  23.837   8.442  38.684 -0.2204 -0.1347  0.1096
  254BOLB   C3D 6095  23.792   8.020  38.519 -0.0716 -0.0401  0.2718
  254BOLB   C4D 6096  23.639   7.944  38.136 -0.1874 -0.0041 -0.0253
  255BOLB   NC1 6097  22.737  11.099  25.648 -0.2706 -0.4477  0.0919
  255BOLB   PO1 6098  23.019  10.692  25.318  0.2172 -0.2135  0.2270
  255BOLB   GL1 6099  23.460  10.721  25.058 -0.1593 -0.3094  0.1352
  255BOLB   GL2 6100  23.739  10.523  24.965 -0.1360  0.0790  0.5724
  255BOLB   C1A 6101  23.778  11.062  24.884  0.4581  0.0681 -0.2329
  255BOLB   C2A 6102  24.063  11.076  24.915 -0.0855  0.0090  0.0119
  255BOLB   C3A 6103  24.348  11.324  24.782  0.0046 -0.0061 -0.0434
  255BOLB   C4A 6104  24.813  11.365  24.907  0.0105  0.4015 -0.3038
  255BOLB   C1B 6105  24.156  10.381  24.987  0.0947 -0.1540 -0.2931
  255BOLB   C2B 6106  24.557  10.124  25.144  0.4637 -0.2234 -0.4378
  255BOLB   C3B 6107  24.886   9.919  25.122 -0.0304  0.2668  0.1529
  255BOLB   C4B 6108  25.274   9.782  24.953 -0.2058  0.0879 -0.2551
  255BOLB   NC2 6109  27.040  11.725  24.685 -0.1182 -0.0634 -0.1285
  255BOLB   PO2 6110   0.080  12.142  24.651  0.2339 -0.3776 -0.2928
  255BOLB   GL3 6111  26.722  12.092  24.690 -0.0202  0.1148 -0.2331
  255BOLB   GL4 6112  26.516  12.258  24.734  0.0371 -0.1792  0.4449
  255BOLB   C1C 6113  26.318  11.836  24.898 -0.1442  0.2945  0.0358
  255BOLB   C2C 6114  25.942  11.635  24.883  0.0690 -0.0718 -0.2973
  255BOLB   C3C 6115  25.516  11.596  25.058 -0.0118 -0.2086 -0.1269
  255BOLB   C4C 6116  25.197  11.533  25.136  0.0956 -0.0244  0.2236
  255BOLB   C1D 6117  26.175  12.227  24.681 -0.2991  0.2199 -0.1004
  255BOLB   C2D 6118  25.771  12.083  24.901 -0.1999 -0.4899 -0.0296
  255BOLB   C3D 6119  25.411  12.124  25.077 -0.1048  0.2303 -0.0426
  255BOLB   C4D 6120  24.856  11.930  24.926  0.0197  0.0804 -0.1166
  256BOLB   NC1 6121  12.932  12.798  39.831  0.2023 -0.2178 -0.0633
  256BOLB   PO1 6122  12.669  12.729  39.610  0.1978 -0.1805 -0.0987
  256BOLB   GL1 6123  12.314  12.740  39.875  0.1389  0.3432  0.2010
  256BOLB   GL2 6124  12.150  12.373  39.853 -0.2009 -0.1237 -0.0708
  256BOLB   C1A 6125  12.288  12.889  40.278 -0.1391 -0.0991 -0.1906
  256BOLB   C2A 6126  11.923  13.033  40.563  0.0623  0.3443 -0.1711
  256BOLB   C3A 6127  11.629  13.146  40.491  0.0585  0.0872  0.3591
  256BOLB   C4A 6128  11.255  13.530  40.425  0.4659 -0.0309  0.1791
  256BOLB   C1B 6129  12.323  12.409  40.242  0.2605  0.2789  0.0249
  256BOLB   C2B 6130  12.762  12.518  40.466  0.2469 -0.0191 -0.1112
  256BOLB   C3B 6131  12.729  12.624  40.928 -0.1090  0.0389  0.1239
  256BOLB   C4B 6132  12.728  12.273  41.219 -0.2194 -0.0611 -0.0184
  256BOLB   NC2 6133  10.188  14.730  42.691 -0.1704  0.1110  0.0042
  256BOLB   PO2 6134  10.525  14.378  42.492 -0.1742  0.3201 -0.2559
  256BOLB   GL3 6135  10.365  14.096  42.163  0.1723  0.0075  0.2276
  256BOLB   GL4 6136  10.330  13.758  42.155 -0.1527  0.3665  0.2162
  256BOLB   C1C 6137  10.463  14.090  41.664  0.2343  0.1433  0.0525
  256BOLB   C2C 6138  10.374  14.219  41.259  0.1099  0.1020  0.0402
  256BOLB   C3C 6139  10.797  14.039  41.013  0.2794 -0.0858  0.0159
  256BOLB   C4C 6140  10.903  13.784  40.482  0.2452  0.1707  0.0654
  256BOLB   C1D 6141  10.656  13.649  41.809  0.0104 -0.0341  0.0821
  256BOLB   C2D 6142  10.869  13.902  41.470  0.1666  0.3052  0.1033
  256BOLB   C3D 6143  11.047  14.340  41.339 -0.1626 -0.4661 -0.1267
  256BOLB   C4D 6144  10.834  14.526  41.024 -0.0438 -0.0462 -0.2767
  257BOLB   NC1 6145  14.667  21.364  28.634  0.0616  0.3372 -0.2438
  257BOLB   PO1 6146  15.018  21.094  28.733  0.2611 -0.1083 -0.0364
  257BOLB   GL1 6147  15.279  21.501  28.719  0.2848  0.2287 -0.1244
  257BOLB   GL2 6148  15.172  21.492  28.430  0.1451  0.1673  0.1423
  257BOLB   C1A 6149  15.269  21.954  28.689 -0.0695  0.2605 -0.0536
  257BOLB   C2A 6150  15.432  22.265  28.444  0.1646  0.0675 -0.0804
  257BOLB   C3A 6151  15.725  22.528  28.489 -0.1132  0.0154  0.0690
  257BOLB   C4A 6152  15.598  23.025  28.459 -0.0039 -0.1126 -0.2138
  257BOLB   C1B 6153  15.223  21.859  28.183  0.2230  0.2895  0.1019
  257BOLB   C2B 6154  15.354  22.167  27.902 -0.1170 -0.2521  0.4673
  257BOLB   C3B 6155  15.601  22.420  27.520  0.0573  0.0275 -0.1305
  257BOLB   C4B 6156  15.782  22.811  27.459 -0.1261 -0.0307  0.1286
  257BOLB   NC2 6157  17.279  24.803  27.853 -0.0668  0.2058  0.1936
  257BOLB   PO2 6158  16.793  24.669  28.187  0.0245  0.2660  0.0974
  257BOLB   GL3 6159  16.642  24.522  28.505  0.0035 -0.2002 -0.1254
  257BOLB   GL4 6160  16.904  24.296  28.621 -0.1415  0.2377 -0.2072
  257BOLB   C1C 6161  16.238  24.503  28.676  0.0014 -0.1626 -0.1790
  257BOLB   C2C 6162  15.848  24.298  28.658  0.1997  0.1023 -0.0574
  257BOLB   C3C 6163  15.619  23.935  28.683 -0.0590  0.1622 -0.0697
  257BOLB   C4C 6164  15.691  23.384  28.736  0.3132 -0.0489  0.0994
  257BOLB   C1D 6165  16.619  23.983  28.543  0.1519 -0.1144  0.1360
  257BOLB   C2D 6166  16.522  23.559  28.618  0.0149  0.0311  0.0573
  257BOLB   C3D 6167  16.248  23.202  28.679  0.1984 -0.1295  0.0105
  257BOLB   C4D 6168  15.918  22.936  28.802 -0.0694  0.0773  0.0160
  258BOLB   NC1 6169  17.440   4.444  30.081 -0.2806  0.2598 -0.1015
  258BOLB   PO1 6170  17.072   4.447  30.318 -0.0178  0.0727  0.2358
  258BOLB   GL1 6171  17.027   3.977  30.552  0.4816 -0.0947 -0.1564
  258BOLB   GL2 6172  16.745   3.869  30.606  0.3679  0.0414 -0.1224
  258BOLB   C1A 6173  17.044   3.561  30.777  0.0067  0.1706  0.0825
  258BOLB   C2A 6174  17.177   3.148  30.817 -0.2273 -0.0565 -0.2790
  258BOLB   C3A 6175  17.143   2.700  30.915  0.0704  0.1401 -0.0715
  258BOLB   C4A 6176  17.287   2.281  31.023  0.0051 -0.0810  0.4669
  258BOLB   C1B 6177  16.555   3.600  30.854  0.0500 -0.3452  0.2626
  258BOLB   C2B 6178  16.732   3.178  30.917  0.0242  0.3051  0.0854
  258BOLB   C3B 6179  16.636   2.800  31.017 -0.0380 -0.0064  0.1451
  258BOLB   C4B 6180  16.493   2.324  31.080  0.0343  0.0112  0.2421
  258BOLB   NC2 6181  17.400   0.021  30.748 -0.0909  0.1338 -0.1782
  258BOLB   PO2 6182  17.488   0.022  31.217 -0.2662  0.3537 -0.1380
  258BOLB   GL3 6183  17.465   0.411  31.070  0.0700 -0.1630  0.0118
  258BOLB   GL4 6184  17.677   0.549  31.388 -0.1718 -0.0020  0.2229
  258BOLB   C1C 6185  17.397   0.821  31.062  0.0549  0.0889  0.1653
  258BOLB   C2C 6186  17.525   1.262  31.050  0.0164 -0.7797 -0.3273
  258BOLB   C3C 6187  17.159   1.508  31.023 -0.0057  0.2406  0.0146
  258BOLB   C4C 6188  17.244   1.872  31.079  0.0092 -0.2387 -0.4045
  258BOLB   C1D 6189  17.797   0.900  31.418  0.1287 -0.2602 -0.0012
  258BOLB   C2D 6190  17.907   1.303  31.395 -0.2041 -0.0196  0.1660
  258BOLB   C3D 6191  17.865   1.652  31.007  0.4574 -0.1499  0.3290
  258BOLB   C4D 6192  17.673   1.998  30.756  0.0131 -0.1741  0.1081
  259BOLB   NC1 6193   9.623  10.942  24.949 -0.0872  0.1991  0.1433
  259BOLB   PO1 6194   9.407  11.292  25.050 -0.1463  0.0617  0.2127
  259BOLB   GL1 6195   8.983  11.396  24.893 -0.0794  0.2336 -0.1090
  259BOLB   GL2 6196   8.980  11.464  24.486 -0.2072  0.5993  0.1491
  259BOLB   C1A 6197   8.591  11.535  24.816  0.2029 -0.2674 -0.0271
  259BOLB   C2A 6198   8.141  11.462  24.652  0.0836 -0.0965 -0.2177
  259BOLB   C3A 6199   7.893  11.257  24.436 -0.0019  0.0673  0.2911
  259BOLB   C4A 6200   7.768  10.951  24.288  0.3899  0.0421  0.1082
  259BOLB   C1B 6201   8.864  11.714  24.176  0.0873  0.2184 -0.2311
  259BOLB   C2B 6202   8.513  11.802  23.859 -0.3807 -0.0981 -0.3267
  259BOLB   C3B 6203   8.465  12.047  23.437  0.3790 -0.1184 -0.0230
  259BOLB   C4B 6204   8.186  12.504  23.315  0.0673  0.0750 -0.0763
  259BOLB   NC2 6205   5.337  10.447  23.390  0.3260  0.1734  0.1210
  259BOLB   PO2 6206   5.522  10.915  23.505 -0.1911 -0.3756 -0.0455
  259BOLB   GL3 6207   5.824  10.592  23.743  0.3024  0.0486  0.1421
  259BOLB   GL4 6208   5.860  11.010  23.908  0.1510 -0.1912  0.1236
  259BOLB   C1C 6209   6.287  10.439  23.889 -0.2036  0.0829 -0.0181
  259BOLB   C2C 6210   6.774  10.507  23.945 -0.0994 -0.0366  0.1900
  259BOLB   C3C 6211   7.240  10.657  23.993  0.0071  0.0696 -0.1426
  259BOLB   C4C 6212   7.585  10.857  23.987  0.1512 -0.4427  0.1479
  259BOLB   C1D 6213   6.114  11.301  24.204  0.0788  0.0821  0.0018
  259BOLB   C2D 6214   6.403  11.609  24.251 -0.0933  0.0010  0.0011
  259BOLB   C3D 6215   6.718  11.919  24.380  0.2328 -0.2784 -0.0061
  259BOLB   C4D 6216   6.861  12.059  24.774  0.0624  0.1182 -0.0756
  260BOLB   NC1 6217  15.031  17.715  38.075  0.0437 -0.1036  0.0455
  260BOLB   PO1 6218  14.618  17.694  38.048  0.2186  0.1594  0.0949
  260BOLB   GL1 6219  14.486  17.995  38.288 -0.1871 -0.0567  0.0893
  260BOLB   GL2 6220  14.790  18.093  38.389  0.1674 -0.0269  0.1891
  260BOLB   C1A 6221  14.233  18.159  38.584 -0.0677  0.1180 -0.1251
  260BOLB   C2A 6222  14.264  18.552  38.938 -0.2114 -0.0179 -0.1161
  260BOLB   C3A 6223  14.345  18.935  38.835  0.1826 -0.2559  0.2820
  260BOLB   C4A 6224  14.223  19.241  39.079  0.4305 -0.3944 -0.0902
  260BOLB   C1B 6225  14.978  17.991  38.931 -0.3267 -0.1697  0.0486
  260BOLB   C2B 6226  15.150  17.681  39.208 -0.0154  0.2796  0.0380
  260BOLB   C3B 6227  15.496  17.588  39.378 -0.0519 -0.3619 -0.1666
  260BOLB   C4B 6228  15.972  17.614  39.223  0.1540  0.0559  0.2716
  260BOLB   NC2 6229  14.072  21.278  40.533 -0.0401 -0.2107 -0.1695
  260BOLB   PO2 6230  13.826  21.346  40.228 -0.1677 -0.0480 -0.2128
  260BOLB   GL3 6231  14.018  21.057  39.960 -0.4026  0.0164 -0.1049
  260BOLB   GL4 6232  14.349  21.034  39.955  0.1430  0.2049 -0.1369
  260BOLB   C1C 6233  13.991  20.791  39.612 -0.2256  0.0697 -0.3200
  260BOLB   C2C 6234  14.053  20.375  39.243  0.3284  0.0030  0.0337
  260BOLB   C3C 6235  14.137  20.096  38.986  0.2176  0.2097 -0.0810
  260BOLB   C4C 6236  14.205  19.659  39.036  0.2221 -0.0870 -0.1226
  260BOLB   C1D 6237  14.557  20.672  39.896  0.1034 -0.0843 -0.2871
  260BOLB   C2D 6238  14.538  20.301  39.628  0.1831 -0.0910 -0.0982
  260BOLB   C3D 6239  14.345  19.926  39.464 -0.1799 -0.0658 -0.0390
  260BOLB   C4D 6240  14.212  19.618  39.537  0.1208  0.1574 -0.3428
  261BOLB   NC1 6241  15.626  12.418  19.171  0.3902 -0.0861  0.1129
  261BOLB   PO1 6242  15.998  12.186  19.233  0.0321 -0.0309  0.0647
  261BOLB   GL1 6243  15.843  12.102  18.827 -0.4102 -0.2177 -0.0402
  261BOLB   GL2 6244  15.635  11.925  18.846  0.0747 -0.0189 -0.4142
  261BOLB   C1A 6245  15.950  12.106  18.473  0.0522 -0.0208  0.1930
  261BOLB   C2A 6246  15.837  11.828  18.167 -0.0098 -0.0572 -0.2056
  261BOLB   C3A 6247  15.966  11.537  17.926  0.1839 -0.0484  0.2969
  261BOLB   C4A 6248  16.071  11.487  17.468  0.0390  0.1188 -0.0629
  261BOLB   C1B 6249  15.431  11.894  18.516 -0.1713 -0.4076 -0.2125
  261BOLB   C2B 6250  14.917  11.884  18.468  0.0405 -0.1708 -0.1667
  261BOLB   C3B 6251  14.459  11.575  18.400  0.1879 -0.1633 -0.4307
  261BOLB   C4B 6252  14.262  11.524  18.002  0.0227  0.0711  0.2361
  261BOLB   NC2 6253  15.232  12.062  15.397 -0.0772 -0.1327  0.3507
  261BOLB   PO2 6254  14.916  12.283  15.538  0.2523  0.2030  0.3356
  261BOLB   GL3 6255  15.042  11.944  15.874 -0.2011  0.2495  0.0951
  261BOLB   GL4 6256  15.296  12.259  15.977  0.0659  0.2320 -0.0335
  261BOLB   C1C 6257  15.365  11.786  16.222 -0.3098  0.3348 -0.2186
  261BOLB   C2C 6258  15.715  11.687  16.551  0.0098  0.2019  0.2304
  261BOLB   C3C 6259  16.119  11.704  16.773  0.1084  0.1522  0.0504
  261BOLB   C4C 6260  16.254  11.580  17.123  0.1140 -0.1119  0.0350
  261BOLB   C1D 6261  15.436  12.626  16.174 -0.1255 -0.0573 -0.2829
  261BOLB   C2D 6262  15.457  12.662  16.643  0.0834 -0.1323 -0.2788
  261BOLB   C3D 6263  15.661  12.874  17.012  0.4516 -0.2191  0.0236
  261BOLB   C4D 6264  15.716  12.637  17.341  0.0960 -0.3492 -0.0174
  262BOLB   NC1 6265  19.811   0.411  30.480  0.4430 -0.0630  0.0445
  262BOLB   PO1 6266  19.485   0.239  30.740 -0.0576  0.0882  0.1224
  262BOLB   GL1 6267  19.650   0.681  30.857 -0.1128  0.2670  0.0352
  262BOLB   GL2 6268  19.765   0.826  31.123 -0.1230 -0.2219  0.1134
  262BOLB   C1A 6269  19.582   1.220  30.801  0.0094 -0.1835 -0.0366
  262BOLB   C2A 6270  19.311   1.641  30.971 -0.0091 -0.1208 -0.0134
  262BOLB   C3A 6271  19.297   2.066  31.156  0.2112 -0.1582  0.0697
  262BOLB   C4A 6272  18.880   2.121  31.425 -0.0547 -0.1609 -0.1602
  262BOLB   C1B 6273  19.458   1.083  31.307 -0.2549  0.1646 -0.0793
  262BOLB   C2B 6274  19.369   1.405  31.510 -0.1224 -0.1527  0.0086
  262BOLB   C3B 6275  19.262   1.765  31.640  0.1541  0.2803  0.1289
  262BOLB   C4B 6276  19.428   2.200  31.599 -0.1493  0.2369 -0.3704
  262BOLB   NC2 6277  19.317   0.488  32.160 -0.0973 -0.3358  0.0312
  262BOLB   PO2 6278  19.323   0.411  32.572 -0.0492  0.0483 -0.4965
  262BOLB   GL3 6279  19.077   0.881  32.523 -0.0502 -0.3031 -0.0686
  262BOLB   GL4 6280  18.800   0.673  32.441 -0.0293 -0.2075  0.1228
  262BOLB   C1C 6281  18.903   1.247  32.344 -0.1339 -0.1454  0.0728
  262BOLB   C2C 6282  18.584   1.645  32.344 -0.1380 -0.3544 -0.0115
  262BOLB   C3C 6283  18.475   1.963  32.181  0.0079  0.1457 -0.0124
  262BOLB   C4C 6284  18.567   2.039  31.689  0.0866 -0.2707  0.1029
  262BOLB   C1D 6285  18.486   0.955  32.624  0.2048 -0.0656 -0.3101
  262BOLB   C2D 6286  18.241   1.289  32.513  0.1157 -0.0980  0.1551
  262BOLB   C3D 6287  18.095   1.623  32.310 -0.0501 -0.2259 -0.2969
  262BOLB   C4D 6288  18.029   2.130  32.384 -0.0720 -0.0388  0.0712
  263BOLB   NC1 6289   8.646  12.465  25.141 -0.3184  0.0874  0.4729
  263BOLB   PO1 6290   8.852  12.431  25.515 -0.2522  0.0986 -0.1197
  263BOLB   GL1 6291   8.412  12.279  25.551  0.0169 -0.1839 -0.0007
  263BOLB   GL2 6292   8.426  11.998  25.521  0.0157  0.1026  0.1628
  263BOLB   C1A 6293   7.995  12.151  25.411  0.0302 -0.0400  0.1431
  263BOLB   C2A 6294   7.638  12.089  25.483  0.3160  0.2736 -0.1620
  263BOLB   C3A 6295   7.293  12.111  25.300  0.0646  0.3501  0.4928
  263BOLB   C4A 6296   6.911  11.990  25.284 -0.2552 -0.0985  0.1659
  263BOLB   C1B 6297   8.311  11.614  25.448 -0.3403 -0.1419 -0.0443
  263BOLB   C2B 6298   8.015  11.552  25.126  0.0881 -0.0207  0.1352
  263BOLB   C3B 6299   7.651  11.539  24.958 -0.1525 -0.1421 -0.0857
  263BOLB   C4B 6300   7.190  11.689  24.837  0.0230 -0.0858  0.1925
  263BOLB   NC2 6301   5.083  12.500  23.444  0.1576 -0.1472  0.0319
  263BOLB   PO2 6302   5.089  12.364  23.862 -0.1498 -0.0400 -0.1039
  263BOLB   GL3 6303   5.337  12.354  24.234  0.1267 -0.2491 -0.0970
  263BOLB   GL4 6304   5.608  12.476  24.428  0.3169 -0.2434 -0.1628
  263BOLB   C1C 6305   5.735  12.025  24.247 -0.2577 -0.0329  0.7747
  263BOLB   C2C 6306   6.046  11.901  24.353 -0.1432 -0.1409  0.1912
  263BOLB   C3C 6307   6.260  11.725  24.749  0.3188 -0.0155 -0.0683
  263BOLB   C4C 6308   6.516  11.827  25.134  0.0498  0.2362  0.0521
  263BOLB   C1D 6309   5.856  12.242  24.693 -0.0846  0.1930  0.0158
  263BOLB   C2D 6310   5.998  12.045  25.094 -0.5383  0.0848  0.0695
  263BOLB   C3D 6311   6.245  12.133  25.441  0.2067  0.1968  0.2011
  263BOLB   C4D 6312   6.631  11.932  25.636  0.0928 -0.0514  0.3219
  264BOLB   NC1 6313  13.416   9.982  39.068 -0.4042 -0.1037 -0.1628
  264BOLB   PO1 6314  13.882   9.894  39.131 -0.0324  0.2733 -0.0237
  264BOLB   GL1 6315  13.614   9.803  39.476  0.0567  0.1810  0.1109
  264BOLB   GL2 6316  13.568   9.921  39.771  0.0348  0.0936 -0.1405
  264BOLB   C1A 6317  13.322   9.520  39.552 -0.1062 -0.0805 -0.2558
  264BOLB   C2A 6318  13.147   9.134  39.810 -0.1843 -0.0446 -0.3412
  264BOLB   C3A 6319  13.032   8.865  40.105  0.1636 -0.0164  0.3145
  264BOLB   C4A 6320  13.079   8.540  40.285  0.1732  0.1303 -0.2657
  264BOLB   C1B 6321  13.409   9.653  40.057 -0.3892 -0.0387  0.2070
  264BOLB   C2B 6322  13.128   9.511  40.355 -0.1662 -0.3770  0.2532
  264BOLB   C3B 6323  13.268   9.552  40.802 -0.0503  0.0914  0.0163
  264BOLB   C4B 6324  13.124   9.726  41.215 -0.3491 -0.0327  0.2500
  264BOLB   NC2 6325  12.511   7.504  42.488  0.1641  0.0660 -0.1601
  264BOLB   PO2 6326  12.485   8.029  42.492  0.1591  0.0166  0.1262
  264BOLB   GL3 6327  12.573   8.020  42.119  0.1651  0.0714 -0.0159
  264BOLB   GL4 6328  12.908   7.756  42.111 -0.0584  0.0167  0.0182
  264BOLB   C1C 6329  12.915   8.195  41.810 -0.4448 -0.0520 -0.0172
  264BOLB   C2C 6330  12.981   8.424  41.446  0.1011 -0.3183  0.3629
  264BOLB   C3C 6331  12.996   8.168  41.032 -0.2359  0.1281 -0.3068
  264BOLB   C4C 6332  12.964   8.341  40.584  0.0315  0.0924 -0.3191
  264BOLB   C1D 6333  13.319   7.860  42.028 -0.1884  0.0380  0.2575
  264BOLB   C2D 6334  13.431   8.208  41.679  0.3234  0.0937  0.1979
  264BOLB   C3D 6335  13.403   8.344  41.218 -0.0349  0.0909 -0.2918
  264BOLB   C4D 6336  13.143   8.608  41.029 -0.0722 -0.0992 -0.3209
  265BOLB   NC1 6337  11.927   5.991  27.202 -0.2050  0.0582 -0.1545
  265BOLB   PO1 6338  12.034   5.587  27.502  0.1960 -0.2848 -0.0256
  265BOLB   GL1 6339  12.034   5.056  27.613  0.1815 -0.1618  0.1616
  265BOLB   GL2 6340  11.672   5.054  27.571 -0.1140  0.0722  0.0126
  265BOLB   C1A 6341  12.355   4.691  27.772 -0.2845  0.0928 -0.0216
  265BOLB   C2A 6342  12.140   4.281  27.780 -0.0413  0.1144 -0.1633
  265BOLB   C3A 6343  11.851   3.924  27.899  0.2780  0.3170  0.3300
  265BOLB   C4A 6344  11.657   3.824  28.186 -0.0979 -0.0682  0.0116
  265BOLB   C1B 6345  11.804   4.649  27.837 -0.1815 -0.2073  0.3430
  265BOLB   C2B 6346  11.756   4.376  28.176  0.3137 -0.0215 -0.2464
  265BOLB   C3B 6347  11.525   4.446  28.537  0.1934 -0.2977  0.0904
  265BOLB   C4B 6348  11.183   4.499  28.614 -0.0020 -0.3512 -0.1745
  265BOLB   NC2 6349   9.890   2.261  27.616 -0.2469  0.4060  0.0085
  265BOLB   PO2 6350  10.046   2.117  27.887 -0.0777 -0.5758 -0.0463
  265BOLB   GL3 6351  10.460   2.279  28.013  0.0435  0.0114 -0.1597
  265BOLB   GL4 6352  10.462   2.536  27.801 -0.2098 -0.3002 -0.1516
  265BOLB   C1C 6353  10.808   2.500  28.228 -0.0335 -0.5073 -0.2851
  265BOLB   C2C 6354  11.085   2.854  28.388  0.1183  0.3182 -0.3345
  265BOLB   C3C 6355  11.366   3.222  28.532  0.0647 -0.2398  0.2033
  265BOLB   C4C 6356  11.473   3.610  28.374 -0.1132 -0.2113 -0.0582
  265BOLB   C1D 6357  10.468   2.874  27.672 -0.0362  0.1601  0.2073
  265BOLB   C2D 6358  10.337   3.337  27.762  0.3537 -0.1447 -0.2990
  265BOLB   C3D 6359  10.176   3.672  27.779 -0.0195 -0.1050  0.1025
  265BOLB   C4D 6360  10.115   4.208  27.776 -0.0655  0.4457 -0.2060
  266BOLB   NC1 6361   9.307  16.502  25.121 -0.1649 -0.1554 -0.0341
  266BOLB   PO1 6362   9.497  16.905  24.947 -0.1710  0.1074 -0.1815
  266BOLB   GL1 6363   9.236  17.125  24.655  0.4359 -0.0791 -0.0247
  266BOLB   GL2 6364   9.405  17.366  24.445 -0.1238  0.0831  0.1987
  266BOLB   C1A 6365   8.915  17.150  24.221 -0.0092  0.0152  0.1010
  266BOLB   C2A 6366   8.711  17.337  23.906 -0.1266  0.3245 -0.0634
  266BOLB   C3A 6367   8.473  17.364  23.502 -0.1227 -0.0023 -0.0860
  266BOLB   C4A 6368   8.152  17.269  23.317  0.1359 -0.0486  0.1655
  266BOLB   C1B 6369   9.274  17.464  24.061 -0.1950  0.1305  0.4048
  266BOLB   C2B 6370   9.094  17.664  23.742  0.2952  0.3612  0.2679
  266BOLB   C3B 6371   8.939  17.988  23.552 -0.1540 -0.2179 -0.2408
  266BOLB   C4B 6372   8.584  18.219  23.434 -0.0545 -0.3439  0.2098
  266BOLB   NC2 6373   5.801  16.884  23.403  0.0739  0.1621  0.1834
  266BOLB   PO2 6374   6.016  17.319  23.345  0.1694 -0.1002 -0.1586
  266BOLB   GL3 6375   6.198  16.990  23.084 -0.2789 -0.1283  0.2766
  266BOLB   GL4 6376   6.464  17.162  22.850  0.2245 -0.2117  0.0784
  266BOLB   C1C 6377   6.534  16.561  23.001 -0.0833  0.1020 -0.3725
  266BOLB   C2C 6378   6.994  16.585  22.998 -0.2744 -0.2153  0.3404
  266BOLB   C3C 6379   7.356  16.759  23.071  0.4566 -0.0117  0.3045
  266BOLB   C4C 6380   7.681  17.138  23.131  0.0535 -0.0765  0.0402
  266BOLB   C1D 6381   6.574  17.469  23.087  0.1531  0.0057 -0.1870
  266BOLB   C2D 6382   6.928  17.745  23.247 -0.2127  0.5334 -0.1490
  266BOLB   C3D 6383   7.136  17.539  23.563 -0.3717 -0.0276  0.1012
  266BOLB   C4D 6384   7.358  17.744  23.868  0.0365  0.1223 -0.1223
  267BOLB   NC1 6385  11.899   7.175  23.997 -0.0303  0.1080  0.0304
  267BOLB   PO1 6386  11.669   7.614  24.062  0.0313 -0.0424  0.1881
  267BOLB   GL1 6387  11.488   7.400  23.789  0.1789 -0.1498  0.3195
  267BOLB   GL2 6388  11.678   7.275  23.539  0.0036  0.0542 -0.0312
  267BOLB   C1A 6389  11.195   6.931  23.722  0.0172 -0.2593 -0.1654
  267BOLB   C2A 6390  10.950   6.673  23.723  0.0082 -0.1491  0.2222
  267BOLB   C3A 6391  10.723   6.294  23.481  0.1768  0.2608  0.0924
  267BOLB   C4A 6392  10.603   5.859  23.351  0.1690  0.2286  0.0647
  267BOLB   C1B 6393  11.504   6.965  23.313 -0.0441 -0.0895 -0.0021
  267BOLB   C2B 6394  11.466   6.724  22.952 -0.4517  0.0056  0.3704
  267BOLB   C3B 6395  11.321   6.318  22.810 -0.1635 -0.0874 -0.2384
  267BOLB   C4B 6396  11.266   6.006  22.490 -0.1697 -0.1794 -0.1061
  267BOLB   NC2 6397  11.067   3.634  22.396 -0.0183  0.0597 -0.1711
  267BOLB   PO2 6398  11.005   3.511  22.819  0.1563  0.1832 -0.5664
  267BOLB   GL3 6399  11.113   3.934  22.851  0.0709  0.0509 -0.1042
  267BOLB   GL4 6400  11.227   4.046  22.489 -0.0050 -0.3256 -0.1261
  267BOLB   C1C 6401  10.895   4.302  22.825  0.2290 -0.1988  0.0124
  267BOLB   C2C 6402  10.718   4.517  23.028  0.1786  0.1112  0.1101
  267BOLB   C3C 6403  10.732   5.004  23.312 -0.2063 -0.1931  0.0301
  267BOLB   C4C 6404  10.654   5.458  23.332  0.0923  0.1726 -0.1808
  267BOLB   C1D 6405  11.508   4.302  22.746 -0.2727 -0.2870 -0.0511
  267BOLB   C2D 6406  11.789   4.625  22.815  0.3957  0.0949  0.4190
  267BOLB   C3D 6407  12.072   4.877  22.959 -0.1989 -0.0477  0.3753
  267BOLB   C4D 6408  12.570   4.911  22.819  0.0643 -0.3415 -0.2045
  268BOLB   NC1 6409  20.874   7.225  36.820 -0.2087 -0.3302  0.0020
  268BOLB   PO1 6410  20.662   7.574  37.008 -0.1337  0.2437 -0.1041
  268BOLB   GL1 6411  20.595   7.260  37.304  0.0992 -0.2838 -0.3413
  268BOLB   GL2 6412  20.367   7.296  37.399 -0.2439  0.0747 -0.0204
  268BOLB   C1A 6413  20.889   7.103  37.621 -0.0353  0.1084  0.0812
  268BOLB   C2A 6414  21.324   7.235  37.513  0.1038 -0.1323  0.1214
  268BOLB   C3A 6415  21.769   6.984  37.523 -0.1215 -0.0286 -0.2684
  268BOLB   C4A 6416  21.915   6.673  37.301  0.0970 -0.0383 -0.2391
  268BOLB   C1B 6417  20.409   6.800  37.494 -0.0937 -0.1006 -0.4557
  268BOLB   C2B 6418  20.654   6.736  37.768 -0.0720 -0.0836 -0.1308
  268BOLB   C3B 6419  20.832   6.363  37.982 -0.1103  0.0849  0.4717
  268BOLB   C4B 6420  21.231   6.272  37.911  0.0404  0.0728 -0.0657
  268BOLB   NC2 6421  24.120   5.467  37.894  0.1558  0.0863 -0.5142
  268BOLB   PO2 6422  23.641   5.416  37.852  0.2560  0.0985  0.1411
  268BOLB   GL3 6423  23.464   5.597  37.457  0.0292  0.1058 -0.1455
  268BOLB   GL4 6424  23.378   5.370  37.221  0.2264  0.0433 -0.0785
  268BOLB   C1C 6425  23.126   5.747  37.353 -0.1903 -0.1246  0.0297
  268BOLB   C2C 6426  22.789   5.953  37.188  0.0444  0.4819  0.0034
  268BOLB   C3C 6427  22.403   6.304  37.260 -0.2790 -0.1463  0.0488
  268BOLB   C4C 6428  22.081   6.355  37.459 -0.0776 -0.5326  0.1479
  268BOLB   C1D 6429  22.931   5.145  37.083 -0.0001 -0.1990  0.0363
  268BOLB   C2D 6430  22.708   5.487  36.986  0.1037  0.0519 -0.2083
  268BOLB   C3D 6431  22.278   5.716  37.056 -0.1590  0.1931 -0.1772
  268BOLB   C4D 6432  22.110   6.067  36.863  0.1227  0.0070  0.3128
  269BOLB   NC1 6433  23.568  11.883  27.825  0.2792 -0.0634 -0.1085
  269BOLB   PO1 6434  23.575  12.309  27.491 -0.4136 -0.2457  0.0867
  269BOLB   GL1 6435  23.828  12.342  27.839 -0.0594 -0.2728  0.0037
  269BOLB   GL2 6436  23.855  12.374  28.195  0.0603  0.2749  0.0339
  269BOLB   C1A 6437  24.324  12.400  27.866  0.1553  0.0907  0.0018
  269BOLB   C2A 6438  24.800  12.346  27.828  0.3147 -0.0185 -0.4940
  269BOLB   C3A 6439  25.194  12.343  27.667 -0.0352 -0.2865  0.0475
  269BOLB   C4A 6440  25.485  12.443  27.315 -0.0430 -0.1838  0.2661
  269BOLB   C1B 6441  24.012  12.782  28.045 -0.0349 -0.0720 -0.0531
  269BOLB   C2B 6442  24.342  12.944  27.839 -0.2032  0.1200 -0.4005
  269BOLB   C3B 6443  24.329  13.205  27.478  0.3436  0.2802 -0.1121
  269BOLB   C4B 6444  24.449  13.387  27.131  0.3918 -0.2292  0.0589
  269BOLB   NC2 6445  26.940  12.205  25.648 -0.0242  0.1992 -0.2130
  269BOLB   PO2 6446   0.132  11.918  25.967 -0.0265 -0.1787  0.1198
  269BOLB   GL3 6447  26.788  11.780  25.923 -0.1552  0.2774 -0.2173
  269BOLB   GL4 6448  26.493  11.893  25.788  0.0778 -0.0022 -0.2509
  269BOLB   C1C 6449  26.444  11.774  26.230  0.0219  0.0134  0.1202
  269BOLB   C2C 6450  26.050  11.791  26.374  0.1996 -0.0617  0.2955
  269BOLB   C3C 6451  25.879  12.034  26.722 -0.0898  0.1859 -0.0407
  269BOLB   C4C 6452  25.837  12.112  27.089  0.3099 -0.0522 -0.0219
  269BOLB   C1D 6453  26.119  11.864  25.845  0.3326  0.0632 -0.0473
  269BOLB   C2D 6454  25.755  12.091  26.117 -0.0376  0.0601  0.0471
  269BOLB   C3D 6455  25.358  11.943  26.264 -0.1398 -0.1177  0.1447
  269BOLB   C4D 6456  25.197  11.866  26.593  0.0803 -0.1126  0.0405
  270BOLB   NC1 6457   7.898  16.745  32.226 -0.0429  0.0096  0.2901
  270BOLB   PO1 6458   7.774  16.410  31.789  0.2138  0.0982 -0.0577
  270BOLB   GL1 6459   7.471  16.706  31.752 -0.3048 -0.1667 -0.0703
  270BOLB   GL2 6460   7.332  16.854  31.456  0.3428  0.0757  0.2728
  270BOLB   C1A 6461   7.071  16.783  31.928  0.2573  0.0944 -0.0314
  270BOLB   C2A 6462   6.583  16.624  31.902  0.0620 -0.3112 -0.2967
  270BOLB   C3A 6463   6.113  16.664  31.943  0.1085  0.2349  0.2566
  270BOLB   C4A 6464   5.944  16.861  31.600  0.0889 -0.0691 -0.1882
  270BOLB   C1B 6465   6.942  17.070  31.556 -0.0072  0.0322  0.1333
  270BOLB   C2B 6466   6.511  17.087  31.689 -0.1538 -0.1490 -0.1789
  270BOLB   C3B 6467   6.188  17.292  31.582  0.0259 -0.1157  0.1955
  270BOLB   C4B 6468   5.841  17.564  31.516 -0.2589  0.0983 -0.0040
  270BOLB   NC2 6469   3.947  18.296  31.901  0.0188  0.2544 -0.1904
  270BOLB   PO2 6470   4.358  18.022  32.151 -0.3168 -0.1744  0.1922
  270BOLB   GL3 6471   4.554  17.611  32.352  0.1763 -0.2650  0.0236
  270BOLB   GL4 6472   4.619  17.546  32.063  0.0383 -0.1458 -0.0926
  270BOLB   C1C 6473   4.837  17.223  32.428  0.2522  0.3599  0.1334
  270BOLB   C2C 6474   5.323  17.327  32.393 -0.1854 -0.0002 -0.0319
  270BOLB   C3C 6475   5.481  17.325  32.044 -0.1751 -0.2089  0.2789
  270BOLB   C4C 6476   5.739  17.127  31.746  0.1241 -0.0717  0.1055
  270BOLB   C1D 6477   4.964  17.500  31.980 -0.2914  0.0509  0.0373
  270BOLB   C2D 6478   5.295  17.489  31.656  0.4459 -0.0538  0.2112
  270BOLB   C3D 6479   5.496  17.695  31.228  0.1261 -0.4722  0.1380
  270BOLB   C4D 6480   5.819  17.972  31.139 -0.0859 -0.0003 -0.1372
  271BOLB   NC1 6481  13.548   5.132  31.623 -0.2370 -0.0865 -0.1386
  271BOLB   PO1 6482  13.313   4.798  31.811  0.0105  0.2179  0.0508
  271BOLB   GL1 6483  13.282   4.303  31.936 -0.4259 -0.1898  0.1170
  271BOLB   GL2 6484  13.344   4.044  31.717  0.2275  0.0456  0.0862
  271BOLB   C1A 6485  13.097   3.946  32.122  0.3400 -0.1796 -0.2046
  271BOLB   C2A 6486  12.736   3.845  32.448  0.3505 -0.0988  0.1842
  271BOLB   C3A 6487  12.449   3.568  32.691 -0.1038 -0.0974 -0.0946
  271BOLB   C4A 6488  12.367   3.253  32.924 -0.3355 -0.1143 -0.0778
  271BOLB   C1B 6489  13.120   3.685  31.610 -0.2761  0.1362 -0.1411
  271BOLB   C2B 6490  12.962   3.348  31.816 -0.0074  0.2040  0.2980
  271BOLB   C3B 6491  13.022   2.898  32.051 -0.0831 -0.2928  0.1268
  271BOLB   C4B 6492  12.765   2.435  31.803  0.1452 -0.2351  0.0811
  271BOLB   NC2 6493  12.873   1.584  34.819 -0.0216 -0.0249 -0.0440
  271BOLB   PO2 6494  12.687   1.190  34.573 -0.0207 -0.0015  0.0810
  271BOLB   GL3 6495  12.627   1.602  34.262  0.0888 -0.0375 -0.0342
  271BOLB   GL4 6496  12.898   1.820  34.374  0.0538 -0.0704  0.1283
  271BOLB   C1C 6497  12.574   1.948  34.016  0.3772 -0.0835 -0.0022
  271BOLB   C2C 6498  12.315   2.184  33.776  0.4260 -0.2044  0.0488
  271BOLB   C3C 6499  12.454   2.582  33.484  0.1268 -0.0573  0.0413
  271BOLB   C4C 6500  12.409   2.903  33.229 -0.2132 -0.2351 -0.0749
  271BOLB   C1D 6501  13.034   2.138  34.268 -0.1268  0.1911 -0.2796
  271BOLB   C2D 6502  13.226   2.444  34.237 -0.0415  0.4061 -0.1483
  271BOLB   C3D 6503  13.301   2.821  34.572 -0.1398  0.1420  0.1393
  271BOLB   C4D 6504  13.661   2.995  34.841 -0.1801  0.1543 -0.0858
  272BOLB   NC1 6505  15.359  19.341  22.474 -0.1822 -0.1269 -0.1370
  272BOLB   PO1 6506  15.650  19.516  22.831 -0.0199  0.0403 -0.1455
  272BOLB   GL1 6507  15.445  19.869  22.886 -0.0432 -0.0861  0.2031
  272BOLB   GL2 6508  15.468  19.873  22.529  0.0048  0.0890 -0.0434
  272BOLB   C1A 6509  15.374  20.319  22.809  0.0378  0.1238  0.0483
  272BOLB   C2A 6510  15.168  20.707  22.603  0.0499  0.1678  0.0645
  272BOLB   C3A 6511  14.850  20.989  22.352 -0.0301 -0.1920  0.0808
  272BOLB   C4A 6512  14.783  21.217  21.886 -0.0364  0.1220  0.0850
  272BOLB   C1B 6513  15.534  20.050  22.138  0.0434 -0.3443 -0.0935
  272BOLB   C2B 6514  15.525  20.011  21.686 -0.4543 -0.0714 -0.0539
  272BOLB   C3B 6515  15.538  20.167  21.372  0.2963  0.1264  0.1981
  272BOLB   C4B 6516  15.311  20.384  21.132  0.0653 -0.3203  0.0866
  272BOLB   NC2 6517  14.682  23.045  20.712  0.0783  0.3793  0.3315
  272BOLB   PO2 6518  14.360  23.018  20.930 -0.2727 -0.0714  0.1692
  272BOLB   GL3 6519  14.503  22.832  21.209 -0.0302 -0.3545  0.0097
  272BOLB   GL4 6520  14.388  22.812  21.540 -0.0332 -0.0164  0.1543
  272BOLB   C1C 6521  14.908  22.710  21.459 -0.1360 -0.4508  0.0764
  272BOLB   C2C 6522  14.930  22.312  21.451 -0.1442 -0.1765  0.1248
  272BOLB   C3C 6523  14.820  22.048  21.659  0.3185 -0.1101  0.0090
  272BOLB   C4C 6524  14.666  21.688  21.848  0.0618  0.1720 -0.1530
  272BOLB   C1D 6525  14.429  22.373  21.519 -0.1845  0.1361 -0.1879
  272BOLB   C2D 6526  14.272  21.945  21.705 -0.0245 -0.2075  0.1494
  272BOLB   C3D 6527  13.861  21.658  21.575 -0.0737  0.3024  0.0857
  272BOLB   C4D 6528  13.461  21.575  21.648  0.3269  0.1135  0.0381
  273BOLB   NC1 6529  14.993  20.236  34.983 -0.1172 -0.1903  0.0535
  273BOLB   PO1 6530  15.100  19.985  35.341  0.1768 -0.1755 -0.1174
  273BOLB   GL1 6531  15.083  20.261  35.694  0.0791 -0.1218  0.1659
  273BOLB   GL2 6532  14.886  20.141  36.004  0.2540  0.5058 -0.0044
  273BOLB   C1A 6533  15.262  20.640  35.827 -0.1365 -0.1263 -0.2473
  273BOLB   C2A 6534  15.193  21.107  35.782  0.0182  0.2637  0.0741
  273BOLB   C3A 6535  15.044  21.445  35.584 -0.1819 -0.1696 -0.0237
  273BOLB   C4A 6536  14.901  21.740  35.859 -0.5406 -0.1339 -0.0243
  273BOLB   C1B 6537  14.963  20.429  36.271 -0.2611 -0.0295 -0.2381
  273BOLB   C2B 6538  14.866  20.573  36.582 -0.0822  0.1662 -0.1084
  273BOLB   C3B 6539  14.824  20.641  37.078 -0.2570  0.0595  0.1726
  273BOLB   C4B 6540  15.187  20.857  37.370  0.0857 -0.2178 -0.6714
  273BOLB   NC2 6541  15.170  24.111  36.988  0.4028 -0.1163  0.0430
  273BOLB   PO2 6542  14.874  23.824  37.027 -0.2177 -0.0201  0.0187
  273BOLB   GL3 6543  14.772  23.473  36.860 -0.1052 -0.0350  0.1665
  273BOLB   GL4 6544  14.563  23.557  36.639 -0.0071  0.1081 -0.2311
  273BOLB   C1C 6545  14.905  23.147  36.706  0.1469 -0.1418 -0.1117
  273BOLB   C2C 6546  14.953  22.889  36.345 -0.2287 -0.1482 -0.2310
  273BOLB   C3C 6547  15.006  22.548  36.165  0.1648 -0.3236  0.2404
  273BOLB   C4C 6548  14.952  22.162  35.980  0.0318 -0.1894  0.0832
  273BOLB   C1D 6549  14.665  23.354  36.256  0.2756 -0.2134 -0.4322
  273BOLB   C2D 6550  14.511  22.978  36.075 -0.0945 -0.0429  0.0989
  273BOLB   C3D 6551  14.498  22.472  36.085 -0.1062 -0.0695 -0.2246
  273BOLB   C4D 6552  14.455  22.034  35.972 -0.1416  0.1153 -0.0747
  274BOLB   NC1 6553   9.838  20.061  29.275 -0.3594  0.1889  0.0636
  274BOLB   PO1 6554   9.683  19.790  28.987 -0.1671 -0.0340  0.0328
  274BOLB   GL1 6555   9.391  20.099  29.034  0.0102  0.1834  0.3189
  274BOLB   GL2 6556   9.109  19.868  28.996 -0.1680 -0.2617 -0.2752
  274BOLB   C1A 6557   9.021  20.314  29.184 -0.1001  0.0432 -0.1680
  274BOLB   C2A 6558   8.529  20.359  29.000 -0.3213  0.1471  0.0257
  274BOLB   C3A 6559   8.134  20.483  28.946 -0.0177 -0.4728 -0.1461
  274BOLB   C4A 6560   7.889  20.356  28.944 -0.1311  0.1224  0.1297
  274BOLB   C1B 6561   8.753  19.965  28.838 -0.0066  0.2220  0.1895
  274BOLB   C2B 6562   8.264  20.095  28.646  0.1084  0.0287 -0.1284
  274BOLB   C3B 6563   7.800  19.922  28.478 -0.3315  0.3181  0.0474
  274BOLB   C4B 6564   7.511  20.123  28.251 -0.0561  0.3189  0.1936
  274BOLB   NC2 6565   6.700  21.822  27.973 -0.0362  0.0685  0.0642
  274BOLB   PO2 6566   6.875  21.916  27.615 -0.1954 -0.1221  0.0871
  274BOLB   GL3 6567   7.120  21.567  27.781  0.0762 -0.0491 -0.2205
  274BOLB   GL4 6568   7.180  21.487  27.463  0.3130  0.3063  0.0617
  274BOLB   C1C 6569   7.027  21.192  28.032  0.1593 -0.1152  0.0937
  274BOLB   C2C 6570   6.896  20.814  28.367  0.3546 -0.1953  0.3429
  274BOLB   C3C 6571   7.133  20.480  28.601 -0.4115 -0.4343 -0.0583
  274BOLB   C4C 6572   7.571  20.362  28.710 -0.2366  0.1961  0.2403
  274BOLB   C1D 6573   7.341  21.185  27.467 -0.0794  0.3353 -0.0195
  274BOLB   C2D 6574   7.359  20.764  27.489 -0.2966 -0.1071 -0.3107
  274BOLB   C3D 6575   7.685  20.533  27.385  0.3730 -0.1074  0.6841
  274BOLB   C4D 6576   8.024  20.257  27.148  0.0265  0.1713 -0.1338
  275BOLB   NC1 6577   7.514  12.059  30.970  0.0823 -0.0644  0.1388
  275BOLB   PO1 6578   7.491  12.361  31.277 -0.1610 -0.1635 -0.0546
  275BOLB   GL1 6579   7.077  12.190  31.232  0.1150  0.0570 -0.0292
  275BOLB   GL2 6580   7.024  11.936  30.999  0.3045 -0.0068  0.2964
  275BOLB   C1A 6581   6.698  12.009  31.390  0.0294 -0.0645  0.2687
  275BOLB   C2A 6582   6.311  11.956  31.514 -0.0368  0.0678 -0.0113
  275BOLB   C3A 6583   5.860  11.925  31.445  0.1759 -0.0852 -0.2213
  275BOLB   C4A 6584   5.530  11.746  31.768  0.0907  0.3874 -0.1499
  275BOLB   C1B 6585   6.559  11.785  30.974  0.0334  0.0829 -0.1050
  275BOLB   C2B 6586   6.069  11.599  31.035  0.0461 -0.3516 -0.1125
  275BOLB   C3B 6587   5.648  11.304  30.815 -0.2056  0.0358 -0.0527
  275BOLB   C4B 6588   5.289  11.065  30.877  0.0921  0.1161  0.1191
  275BOLB   NC2 6589   3.554  10.817  31.881 -0.1288 -0.0355  0.0377
  275BOLB   PO2 6590   3.487  10.440  31.584 -0.0009  0.1875 -0.1100
  275BOLB   GL3 6591   3.973  10.457  31.600  0.2162 -0.2700 -0.0885
  275BOLB   GL4 6592   4.063  10.200  31.627  0.0139 -0.3095  0.0709
  275BOLB   C1C 6593   4.175  10.825  31.568 -0.1347  0.0677  0.0784
  275BOLB   C2C 6594   4.441  11.133  31.495 -0.0740  0.2057 -0.2471
  275BOLB   C3C 6595   4.887  11.387  31.582  0.1770  0.1856 -0.2070
  275BOLB   C4C 6596   5.188  11.624  31.614  0.1884  0.1101 -0.1155
  275BOLB   C1D 6597   4.384  10.375  31.259 -0.0783  0.2882  0.0067
  275BOLB   C2D 6598   4.716  10.592  31.002 -0.0796 -0.2659  0.0490
  275BOLB   C3D 6599   4.774  10.672  30.542  0.0179 -0.2311 -0.2372
  275BOLB   C4D 6600   4.816  10.582  30.126  0.1063 -0.1067 -0.1024
  276BOLB   NC1 6601  21.937  13.778  35.628 -0.0198  0.0912 -0.3378
  276BOLB   PO1 6602  22.302  13.833  35.977  0.1631  0.0182 -0.0171
  276BOLB   GL1 6603  22.711  13.907  36.242 -0.0829 -0.2343  0.1806
  276BOLB   GL2 6604  22.569  13.898  36.653 -0.1675 -0.1596  0.1311
  276BOLB   C1A 6605  23.088  13.883  36.360  0.1146 -0.0057  0.1803
  276BOLB   C2A 6606  23.599  13.779  36.500 -0.0046  0.1631 -0.0794
  276BOLB   C3A 6607  23.972  13.858  36.281  0.0918  0.0364 -0.2207
  276BOLB   C4A 6608  24.363  13.871  35.922  0.4483 -0.0770  0.0202
  276BOLB   C1B 6609  22.935  13.709  36.850  0.0040  0.0435  0.1662
  276BOLB   C2B 6610  23.268  13.635  37.096 -0.1057 -0.0566 -0.1033
  276BOLB   C3B 6611  23.289  13.389  37.530 -0.2628  0.2213 -0.0717
  276BOLB   C4B 6612  23.401  13.433  37.944  0.0285  0.0922  0.1739
  276BOLB   NC2 6613  26.784  12.361  36.469 -0.0208 -0.3235  0.2833
  276BOLB   PO2 6614  26.554  12.711  36.298 -0.1991 -0.3124 -0.1450
  276BOLB   GL3 6615  26.286  12.991  36.144  0.0075  0.0362  0.1924
  276BOLB   GL4 6616  26.036  12.783  36.502 -0.0300 -0.4533  0.1419
  276BOLB   C1C 6617  26.035  13.314  35.944  0.0718  0.1969  0.1135
  276BOLB   C2C 6618  25.755  13.632  36.003 -0.0519  0.1007 -0.0264
  276BOLB   C3C 6619  25.310  13.857  36.002 -0.0140 -0.5615 -0.1357
  276BOLB   C4C 6620  24.845  13.816  36.051 -0.1376  0.1101  0.0942
  276BOLB   C1D 6621  25.758  12.637  36.259 -0.2818  0.1566  0.1561
  276BOLB   C2D 6622  25.665  12.868  35.855 -0.0548  0.0624  0.1393
  276BOLB   C3D 6623  25.514  13.251  35.777  0.1831 -0.2769 -0.0746
  276BOLB   C4D 6624  25.581  13.586  35.493  0.0482 -0.3842 -0.0957
  277BOLB   NC1 6625  19.081   8.627  38.706 -0.0869 -0.0818  0.0960
  277BOLB   PO1 6626  19.394   8.425  38.407 -0.1493 -0.1061 -0.2173
  277BOLB   GL1 6627  19.252   8.128  38.738 -0.2036 -0.1353  0.2143
  277BOLB   GL2 6628  19.398   8.262  39.057 -0.3335 -0.1067 -0.0219
  277BOLB   C1A 6629  19.076   7.907  39.022  0.0623  0.2393  0.2286
  277BOLB   C2A 6630  19.160   7.513  39.160 -0.0629 -0.0644  0.0556
  277BOLB   C3A 6631  18.992   7.230  39.439  0.1185 -0.0070 -0.0863
  277BOLB   C4A 6632  19.155   6.931  39.879 -0.2483  0.0666  0.0171
  277BOLB   C1B 6633  19.262   8.123  39.379  0.1366 -0.2178 -0.2657
  277BOLB   C2B 6634  19.362   8.007  39.859 -0.1744  0.1793  0.0194
  277BOLB   C3B 6635  19.865   8.139  40.076  0.0446  0.3454  0.1844
  277BOLB   C4B 6636  20.266   8.148  39.947 -0.0407 -0.0551 -0.1399
  277BOLB   NC2 6637  20.450   5.391  41.467 -0.1043  0.0274  0.0492
  277BOLB   PO2 6638  20.101   5.603  41.710 -0.3043  0.1214  0.1934
  277BOLB   GL3 6639  19.943   5.772  41.230 -0.1888 -0.2050  0.0396
  277BOLB   GL4 6640  19.898   5.647  40.882 -0.1772 -0.1124  0.1471
  277BOLB   C1C 6641  19.717   6.110  41.206  0.1445  0.0363 -0.2753
  277BOLB   C2C 6642  19.489   6.259  40.872 -0.0944 -0.0479 -0.3362
  277BOLB   C3C 6643  19.396   6.461  40.543  0.0577 -0.0754 -0.2251
  277BOLB   C4C 6644  19.312   6.759  40.238  0.2649 -0.1773  0.0338
  277BOLB   C1D 6645  19.681   5.408  40.675 -0.0703 -0.2168  0.2419
  277BOLB   C2D 6646  19.806   5.104  40.507 -0.4351  0.0729  0.3337
  277BOLB   C3D 6647  19.829   4.868  40.132  0.6011  0.0467 -0.1377
  277BOLB   C4D 6648  19.832   4.599  39.671 -0.0324 -0.0057 -0.0203
  278BOLB   NC1 6649  16.896  20.256  28.042 -0.3052  0.0262  0.1853
  278BOLB   PO1 6650  17.302  20.201  27.893  0.1182  0.2171 -0.1694
  278BOLB   GL1 6651  17.222  20.538  27.824 -0.2226  0.0794  0.2800
  278BOLB   GL2 6652  17.004  20.635  27.577 -0.2525  0.3160 -0.1052
  278BOLB   C1A 6653  17.419  20.925  27.933  0.2434 -0.0766  0.0705
  278BOLB   C2A 6654  17.582  21.248  27.712 -0.0641  0.0475 -0.2126
  278BOLB   C3A 6655  17.992  21.423  27.666  0.1984  0.1611  0.1736
  278BOLB   C4A 6656  18.064  21.792  27.658 -0.1627 -0.1672  0.1111
  278BOLB   C1B 6657  17.184  21.103  27.365 -0.3147 -0.0438 -0.0659
  278BOLB   C2B 6658  17.514  21.516  27.343 -0.2455  0.2741  0.0753
  278BOLB   C3B 6659  17.816  21.746  27.260 -0.0644  0.1979 -0.0887
  278BOLB   C4B 6660  17.963  21.971  26.874  0.0728 -0.0301 -0.2318
  278BOLB   NC2 6661  18.829  23.884  27.438  0.1543  0.0433  0.0958
  278BOLB   PO2 6662  18.460  24.008  27.543  0.1105 -0.0177 -0.0342
  278BOLB   GL3 6663  18.381  23.627  27.610 -0.3002 -0.0074 -0.0662
  278BOLB   GL4 6664  18.652  23.433  27.559  0.0815 -0.1967 -0.2577
  278BOLB   C1C 6665  18.177  23.398  27.888  0.0021  0.0177 -0.0305
  278BOLB   C2C 6666  18.118  22.917  28.008  0.2169 -0.1237 -0.0132
  278BOLB   C3C 6667  18.075  22.544  27.887  0.1804 -0.0672 -0.0034
  278BOLB   C4C 6668  18.216  22.111  27.864  0.1455 -0.0939 -0.0777
  278BOLB   C1D 6669  18.580  23.132  27.191 -0.0583  0.1111  0.4341
  278BOLB   C2D 6670  18.391  22.699  27.220 -0.0157 -0.1077 -0.3009
  278BOLB   C3D 6671  17.972  22.456  27.349  0.1224 -0.1633 -0.1537
  278BOLB   C4D 6672  17.697  22.187  27.588  0.0374 -0.3008  0.1069
  279BOLB   NC1 6673  18.008  12.682  39.395 -0.0131 -0.1587 -0.0387
  279BOLB   PO1 6674  17.982  13.137  39.415  0.0425 -0.1739  0.1110
  279BOLB   GL1 6675  18.258  13.044  39.692  0.7273  0.1899 -0.1898
  279BOLB   GL2 6676  18.545  13.146  39.662  0.1683  0.3087 -0.0390
  279BOLB   C1A 6677  18.264  13.192  40.156 -0.1195 -0.1223 -0.1514
  279BOLB   C2A 6678  18.269  13.272  40.544 -0.0224  0.2442 -0.0314
  279BOLB   C3A 6679  18.049  13.075  40.843 -0.1776  0.1580 -0.1035
  279BOLB   C4A 6680  18.110  12.839  41.290  0.1299 -0.0485  0.1661
  279BOLB   C1B 6681  18.730  13.331  40.054 -0.1376  0.2737  0.0285
  279BOLB   C2B 6682  19.075  13.406  40.239 -0.0473  0.2115  0.1638
  279BOLB   C3B 6683  19.358  13.252  40.510  0.1767  0.0182  0.1294
  279BOLB   C4B 6684  19.420  13.023  40.964  0.2093  0.1440  0.1907
  279BOLB   NC2 6685  19.092  13.812  43.440 -0.1465 -0.1270  0.0585
  279BOLB   PO2 6686  18.797  13.997  43.195 -0.2893  0.2832  0.1861
  279BOLB   GL3 6687  18.356  13.820  42.957  0.0222 -0.0632 -0.1301
  279BOLB   GL4 6688  18.273  13.904  42.641 -0.4798 -0.1621  0.2766
  279BOLB   C1C 6689  18.332  13.412  42.643  0.2356 -0.1196  0.0429
  279BOLB   C2C 6690  18.321  13.105  42.341 -0.1296 -0.0178 -0.2989
  279BOLB   C3C 6691  18.245  12.943  41.868  0.0275 -0.3188  0.1163
  279BOLB   C4C 6692  18.350  12.662  41.566 -0.3090 -0.4054 -0.0196
  279BOLB   C1D 6693  18.259  13.763  42.237 -0.0950  0.2884  0.2618
  279BOLB   C2D 6694  18.146  13.830  41.827  0.0988  0.2610 -0.2105
  279BOLB   C3D 6695  17.991  13.887  41.410  0.1043 -0.0108 -0.2928
  279BOLB   C4D 6696  17.915  14.064  41.024 -0.0878 -0.0037 -0.1857
  280BOLB   NC1 6697  11.965   5.973  26.352 -0.2796 -0.1334  0.1020
  280BOLB   PO1 6698  11.644   6.055  26.450 -0.1773  0.3299  0.1345
  280BOLB   GL1 6699  11.468   5.734  26.205 -0.0723 -0.0520 -0.1309
  280BOLB   GL2 6700  11.699   5.620  25.846  0.1256 -0.0444 -0.0040
  280BOLB   C1A 6701  11.326   5.394  26.009  0.2397  0.3052  0.4468
  280BOLB   C2A 6702  10.933   5.190  25.808 -0.1168 -0.1837  0.0224
  280BOLB   C3A 6703  10.561   4.900  25.857 -0.0553 -0.1988 -0.1129
  280BOLB   C4A 6704  10.182   4.818  26.060  0.0453  0.2350 -0.2110
  280BOLB   C1B 6705  11.394   5.522  25.565 -0.1088  0.3308 -0.0712
  280BOLB   C2B 6706  11.204   5.534  25.225 -0.0420 -0.0371  0.3025
  280BOLB   C3B 6707  10.967   5.318  24.928 -0.3484 -0.0639 -0.0796
  280BOLB   C4B 6708  10.684   5.299  24.662 -0.0758  0.2185  0.0851
  280BOLB   NC2 6709   9.260   2.787  27.031  0.1803  0.0156  0.0231
  280BOLB   PO2 6710   8.999   2.884  26.651  0.2645  0.0342 -0.1948
  280BOLB   GL3 6711   9.112   3.236  26.815  0.2583 -0.1365  0.0230
  280BOLB   GL4 6712   8.875   3.554  26.858  0.3081 -0.2817 -0.0141
  280BOLB   C1C 6713   9.408   3.511  26.962 -0.1942 -0.3404  0.1609
  280BOLB   C2C 6714   9.522   3.910  26.665  0.0597 -0.0168 -0.1322
  280BOLB   C3C 6715   9.604   4.446  26.533 -0.4177  0.2865  0.1482
  280BOLB   C4C 6716   9.766   4.667  26.149  0.2751 -0.0306 -0.3194
  280BOLB   C1D 6717   8.965   3.692  26.523 -0.4528  0.2601 -0.0432
  280BOLB   C2D 6718   9.206   3.836  26.292  0.2434  0.3749 -0.2022
  280BOLB   C3D 6719   9.482   4.131  26.089 -0.1459  0.0809 -0.0998
  280BOLB   C4D 6720   9.469   4.482  25.816 -0.0642  0.2327  0.0250
  281BOLB   NC1 6721  22.306   8.133  28.607 -0.0929 -0.2233  0.0558
  281BOLB   PO1 6722  22.697   8.368  28.808  0.2408 -0.0019 -0.2416
  281BOLB   GL1 6723  23.179   8.272  28.771  0.1093 -0.2276  0.0200
  281BOLB   GL2 6724  23.400   7.935  28.878 -0.3761 -0.1028 -0.0461
  281BOLB   C1A 6725  23.672   8.334  28.618  0.0239 -0.0318 -0.1493
  281BOLB   C2A 6726  24.067   8.483  28.509 -0.0535 -0.3034  0.0198
  281BOLB   C3A 6727  24.478   8.423  28.491 -0.4114  0.0462 -0.0134
  281BOLB   C4A 6728  24.984   8.346  28.547  0.0828 -0.0420 -0.1459
  281BOLB   C1B 6729  23.877   7.764  28.803 -0.1614  0.0132  0.0112
  281BOLB   C2B 6730  24.192   7.682  29.175  0.0826  0.0552 -0.1018
  281BOLB   C3B 6731  24.474   7.669  29.398 -0.2003 -0.0952  0.0495
  281BOLB   C4B 6732  24.702   8.107  29.327  0.1485  0.1545 -0.0490
  281BOLB   NC2 6733  26.845   7.230  28.928  0.0286 -0.0685  0.2743
  281BOLB   PO2 6734   0.166   7.493  28.570 -0.2667  0.1562  0.3258
  281BOLB   GL3 6735  26.860   7.773  28.591  0.0642 -0.3127 -0.1520
  281BOLB   GL4 6736  26.833   7.785  28.941 -0.1272  0.1920  0.2310
  281BOLB   C1C 6737  26.630   8.151  28.547  0.0664 -0.3610  0.0724
  281BOLB   C2C 6738  26.221   8.293  28.559  0.2071  0.1562 -0.0411
  281BOLB   C3C 6739  25.865   8.399  28.453 -0.0884  0.0967 -0.0711
  281BOLB   C4C 6740  25.386   8.311  28.495  0.0693 -0.2457 -0.0820
  281BOLB   C1D 6741  26.443   7.753  28.800  0.2850  0.1005  0.1385
  281BOLB   C2D 6742  26.009   7.773  28.564  0.1199 -0.0906  0.1237
  281BOLB   C3D 6743  25.789   7.896  28.317  0.3576 -0.1382  0.1384
  281BOLB   C4D 6744  25.331   7.947  28.018 -0.0463  0.0631 -0.2314
  282BOLB   NC1 6745  23.012  12.593  33.953 -0.0230  0.2567 -0.1766
  282BOLB   PO1 6746  23.414  12.803  33.920  0.0173 -0.0471 -0.1708
  282BOLB   GL1 6747  23.798  12.609  33.840 -0.0434 -0.2510 -0.2056
  282BOLB   GL2 6748  23.738  12.568  33.486 -0.1635 -0.2031  0.0688
  282BOLB   C1A 6749  24.183  12.747  33.949 -0.1013 -0.2380  0.0326
  282BOLB   C2A 6750  24.617  12.807  33.916 -0.4114 -0.1727 -0.0830
  282BOLB   C3A 6751  24.968  13.040  33.786  0.1425 -0.0236 -0.1496
  282BOLB   C4A 6752  25.332  13.220  33.993  0.0961  0.2826  0.1729
  282BOLB   C1B 6753  24.165  12.632  33.462  0.0981  0.0903  0.0409
  282BOLB   C2B 6754  24.628  12.553  33.528  0.2194 -0.3021  0.0962
  282BOLB   C3B 6755  25.035  12.599  33.471  0.0299 -0.1744 -0.0370
  282BOLB   C4B 6756  25.382  12.453  33.245  0.2784  0.3252  0.1530
  282BOLB   NC2 6757  27.041  13.173  35.606  0.1790  0.0698 -0.2379
  282BOLB   PO2 6758  26.939  13.601  35.736 -0.0576 -0.3325  0.2111
  282BOLB   GL3 6759  26.502  13.678  35.502  0.3869 -0.0420 -0.2537
  282BOLB   GL4 6760  26.142  13.623  35.621  0.2898 -0.3523  0.0491
  282BOLB   C1C 6761  26.438  13.642  35.025 -0.1479  0.1125 -0.3273
  282BOLB   C2C 6762  26.330  13.557  34.666  0.0452 -0.1336 -0.3143
  282BOLB   C3C 6763  25.927  13.644  34.439  0.0159  0.1443  0.0633
  282BOLB   C4C 6764  25.608  13.555  34.111 -0.0169 -0.0020 -0.0177
  282BOLB   C1D 6765  26.123  13.243  35.406 -0.3335 -0.1462  0.1100
  282BOLB   C2D 6766  26.288  13.124  34.940 -0.1769  0.1118 -0.0136
  282BOLB   C3D 6767  26.648  13.131  34.720  0.0842  0.0988  0.0047
  282BOLB   C4D 6768  26.778  13.514  34.537 -0.1031 -0.1717 -0.1791
  283BOLB   NC1 6769   7.714  12.536  31.643 -0.2379  0.1328 -0.2412
  283BOLB   PO1 6770   7.563  13.014  31.547 -0.3804 -0.0359 -0.1298
  283BOLB   GL1 6771   7.244  12.931  31.779  0.0532 -0.0264  0.0468
  283BOLB   GL2 6772   7.155  12.640  31.630 -0.2549  0.2406 -0.3633
  283BOLB   C1A 6773   6.829  13.264  31.925  0.2264 -0.2149  0.1043
  283BOLB   C2A 6774   6.391  13.287  31.770  0.0718  0.3975 -0.1703
  283BOLB   C3A 6775   5.924  13.407  31.837 -0.1767  0.2104  0.1179
  283BOLB   C4A 6776   5.668  13.592  31.564 -0.0890 -0.2210 -0.0254
  283BOLB   C1B 6777   6.787  12.715  31.846 -0.0642 -0.1640  0.2212
  283BOLB   C2B 6778   6.365  12.742  31.817 -0.0995  0.3220  0.0931
  283BOLB   C3B 6779   5.983  12.920  31.676 -0.1554 -0.1126  0.4031
  283BOLB   C4B 6780   5.883  13.163  31.330 -0.0668 -0.0303  0.2794
  283BOLB   NC2 6781   3.262  13.621  30.618 -0.1402 -0.0655 -0.3140
  283BOLB   PO2 6782   3.389  13.278  30.263  0.2702  0.0676 -0.3078
  283BOLB   GL3 6783   3.792  13.384  30.557  0.3025  0.0052 -0.1670
  283BOLB   GL4 6784   4.037  13.350  30.386  0.1942  0.1521  0.1303
  283BOLB   C1C 6785   4.040  13.226  30.893  0.2106 -0.0372  0.2224
  283BOLB   C2C 6786   4.367  13.424  31.095  0.0239  0.1180 -0.0603
  283BOLB   C3C 6787   4.898  13.436  31.186 -0.0219  0.2701  0.1381
  283BOLB   C4C 6788   5.221  13.457  31.391 -0.0077 -0.1074 -0.1105
  283BOLB   C1D 6789   4.181  13.536  30.173  0.2803 -0.0862  0.1967
  283BOLB   C2D 6790   4.532  13.711  30.010  0.1705  0.0018 -0.0305
  283BOLB   C3D 6791   4.918  13.578  29.921  0.1607  0.0047  0.0007
  283BOLB   C4D 6792   4.922  13.217  29.779 -0.1957 -0.1966 -0.3132
  284BOLB   NC1 6793  16.087   5.480  34.683 -0.1716 -0.1068 -0.0159
  284BOLB   PO1 6794  15.683   5.301  34.841  0.0608  0.1853 -0.0970
  284BOLB   GL1 6795  15.521   4.942  35.039 -0.2077  0.0517 -0.1051
  284BOLB   GL2 6796  15.630   4.803  35.280  0.0593 -0.0477 -0.2907
  284BOLB   C1A 6797  15.531   4.390  34.999  0.2746 -0.1266 -0.2820
  284BOLB   C2A 6798  15.262   4.043  34.957  0.1130 -0.0624  0.3395
  284BOLB   C3A 6799  15.168   3.693  35.199 -0.3000 -0.2601  0.2328
  284BOLB   C4A 6800  15.443   3.647  35.604  0.2991  0.1044  0.1189
  284BOLB   C1B 6801  15.897   4.478  35.331  0.1758 -0.0793  0.0879
  284BOLB   C2B 6802  16.050   4.296  35.622  0.0190  0.3315 -0.0092
  284BOLB   C3B 6803  16.214   4.028  35.937 -0.2020  0.1184 -0.0187
  284BOLB   C4B 6804  16.259   3.668  36.203 -0.0571 -0.0406  0.0462
  284BOLB   NC2 6805  15.385   1.788  36.707 -0.0052  0.1090 -0.2891
  284BOLB   PO2 6806  15.811   1.722  36.944 -0.2080 -0.1386  0.2701
  284BOLB   GL3 6807  15.824   2.110  36.751  0.0721 -0.0058 -0.0198
  284BOLB   GL4 6808  15.509   2.238  36.526 -0.2652  0.2031 -0.0961
  284BOLB   C1C 6809  15.925   2.580  36.687 -0.2173 -0.0352 -0.1245
  284BOLB   C2C 6810  15.898   2.954  36.497 -0.2013 -0.0704 -0.0307
  284BOLB   C3C 6811  15.797   3.337  36.338  0.0037  0.0821  0.0743
  284BOLB   C4C 6812  15.684   3.565  36.054 -0.0120 -0.3210  0.1428
  284BOLB   C1D 6813  15.656   2.506  36.141  0.1402  0.0043  0.1433
  284BOLB   C2D 6814  15.513   2.805  35.933 -0.0112  0.0318 -0.0936
  284BOLB   C3D 6815  15.357   3.161  35.701  0.3478  0.0707  0.1468
  284BOLB   C4D 6816  15.193   3.251  35.389 -0.2846  0.3614  0.1107
  285BOLB   NC1 6817  19.762   1.192  32.977 -0.0592  0.1609  0.1091
  285BOLB   PO1 6818  19.458   0.969  32.992  0.1582  0.0027  0.0838
  285BOLB   GL1 6819  19.148   1.303  32.847  0.0370 -0.2212  0.1293
  285BOLB   GL2 6820  19.354   1.548  32.978 -0.2212  0.0971 -0.0423
  285BOLB   C1A 6821  19.057   1.691  32.576 -0.2883 -0.0646 -0.3752
  285BOLB   C2A 6822  18.892   1.999  32.483 -0.2455  0.1876  0.0594
  285BOLB   C3A 6823  18.904   2.314  32.372 -0.4576 -0.2913  0.1873
  285BOLB   C4A 6824  18.668   2.388  32.028  0.2002 -0.2573 -0.1679
  285BOLB   C1B 6825  19.038   1.708  33.093  0.0076  0.3503  0.0354
  285BOLB   C2B 6826  18.725   1.954  32.905 -0.2688  0.4189 -0.1124
  285BOLB   C3B 6827  18.387   2.225  32.844 -0.0622  0.0178 -0.0627
  285BOLB   C4B 6828  18.342   2.493  32.578 -0.2464  0.5150 -0.0393
  285BOLB   NC2 6829  19.338   4.531  30.600 -0.2407  0.3655 -0.0968
  285BOLB   PO2 6830  19.290   4.482  31.127 -0.0939  0.0335  0.1578
  285BOLB   GL3 6831  19.555   4.298  31.165 -0.0465  0.4133 -0.0130
  285BOLB   GL4 6832  19.860   4.069  31.195  0.0707 -0.0965 -0.0730
  285BOLB   C1C 6833  19.332   3.849  31.194  0.3931 -0.5520  0.0350
  285BOLB   C2C 6834  19.224   3.388  31.356 -0.1435  0.1896 -0.1487
  285BOLB   C3C 6835  18.984   3.147  31.581  0.3626 -0.2970 -0.1914
  285BOLB   C4C 6836  18.825   2.703  31.673  0.1297  0.2623  0.0459
  285BOLB   C1D 6837  19.696   3.659  31.462  0.1414  0.2116 -0.3385
  285BOLB   C2D 6838  19.708   3.224  31.657  0.0498  0.1387  0.1843
  285BOLB   C3D 6839  19.338   3.033  31.903 -0.0112 -0.1178  0.0364
  285BOLB   C4D 6840  19.014   2.921  32.154 -0.0724 -0.0922  0.3259
  286BOLB   NC1 6841  16.770   4.303  28.523 -0.0782  0.3066 -0.0683
  286BOLB   PO1 6842  17.200   4.125  28.651 -0.1623 -0.1767  0.2552
  286BOLB   GL1 6843  17.195   3.572  28.691 -0.1176 -0.1740 -0.2412
  286BOLB   GL2 6844  17.513   3.403  28.614  0.0563  0.2013  0.1333
  286BOLB   C1A 6845  17.142   3.233  28.362 -0.2825 -0.0788 -0.5221
  286BOLB   C2A 6846  17.284   2.879  28.361 -0.0025 -0.2813 -0.2056
  286BOLB   C3A 6847  17.245   2.504  28.562  0.1271 -0.6183 -0.0196
  286BOLB   C4A 6848  17.290   2.108  28.861 -0.3007  0.3599  0.1769
  286BOLB   C1B 6849  17.568   3.032  28.819  0.0273 -0.0636 -0.1313
  286BOLB   C2B 6850  17.655   2.941  29.158  0.1451 -0.0325 -0.2495
  286BOLB   C3B 6851  17.678   2.650  29.596 -0.0707  0.3024 -0.0499
  286BOLB   C4B 6852  17.453   2.646  30.023 -0.2463  0.1092 -0.0806
  286BOLB   NC2 6853  17.976   0.045  29.081 -0.1402 -0.1554 -0.1915
  286BOLB   PO2 6854  18.353   0.254  29.276  0.1298  0.1199 -0.1087
  286BOLB   GL3 6855  18.268   0.538  29.075 -0.1264 -0.1159  0.1045
  286BOLB   GL4 6856  18.539   0.728  28.946 -0.0456 -0.0424 -0.0829
  286BOLB   C1C 6857  18.068   0.810  28.822 -0.2283 -0.0065  0.3368
  286BOLB   C2C 6858  17.874   1.179  28.618 -0.0713 -0.1154 -0.0879
  286BOLB   C3C 6859  17.585   1.441  28.509  0.2422  0.1630  0.0441
  286BOLB   C4C 6860  17.557   1.766  28.720 -0.4351  0.0627 -0.2138
  286BOLB   C1D 6861  18.727   1.190  28.962  0.2113 -0.2179  0.1189
  286BOLB   C2D 6862  18.567   1.729  28.867 -0.1799 -0.1893 -0.2244
  286BOLB   C3D 6863  18.545   2.161  28.770  0.1175  0.0508 -0.1158
  286BOLB   C4D 6864  18.164   2.437  28.666  0.4310  0.0092  0.3572
  287BOLB   NC1 6865  20.947  16.629  28.900  0.0379  0.0035 -0.2344
  287BOLB   PO1 6866  20.925  16.557  29.416  0.0674 -0.4044  0.0309
  287BOLB   GL1 6867  21.169  16.926  29.335  0.1537 -0.2683  0.0600
  287BOLB   GL2 6868  21.470  16.886  29.490  0.1019 -0.1614  0.2128
  287BOLB   C1A 6869  21.466  17.116  28.987  0.3632  0.2060  0.0563
  287BOLB   C2A 6870  21.778  17.471  29.030  0.1393 -0.1885 -0.0675
  287BOLB   C3A 6871  22.131  17.742  28.860 -0.0074  0.2697 -0.0101
  287BOLB   C4A 6872  22.297  17.979  28.556  0.1318  0.1384 -0.1585
  287BOLB   C1B 6873  21.820  17.153  29.405 -0.1958  0.1220  0.1165
  287BOLB   C2B 6874  22.264  17.285  29.517 -0.0838 -0.0809  0.0723
  287BOLB   C3B 6875  22.768  17.181  29.420  0.2431 -0.0880 -0.4344
  287BOLB   C4B 6876  23.112  17.403  29.321  0.0124 -0.1413  0.2599
  287BOLB   NC2 6877  24.147  19.787  28.867 -0.4115  0.1962  0.1584
  287BOLB   PO2 6878  24.276  19.445  28.473 -0.1259 -0.1446  0.1912
  287BOLB   GL3 6879  23.980  19.009  28.300 -0.1484  0.0079 -0.2662
  287BOLB   GL4 6880  24.016  18.926  28.666 -0.1533 -0.0375  0.0585
  287BOLB   C1C 6881  23.513  18.768  28.298 -0.3147  0.1262 -0.2865
  287BOLB   C2C 6882  23.333  18.530  28.516  0.2353  0.1152 -0.1556
  287BOLB   C3C 6883  23.184  18.217  28.631  0.2522 -0.1689 -0.1774
  287BOLB   C4C 6884  22.663  18.280  28.775  0.0042 -0.1072  0.1980
  287BOLB   C1D 6885  23.756  18.654  28.740 -0.0031  0.2388 -0.0904
  287BOLB   C2D 6886  23.349  18.509  29.024  0.2527 -0.0966  0.0352
  287BOLB   C3D 6887  22.935  18.712  28.957 -0.0092 -0.1259 -0.0937
  287BOLB   C4D 6888  22.574  18.748  28.924 -0.0539  0.2513  0.1184
  288BOLB   NC1 6889  20.562  11.498  37.805  0.3161  0.0313  0.1225
  288BOLB   PO1 6890  20.867  11.479  38.138  0.0393 -0.1094 -0.4672
  288BOLB   GL1 6891  21.160  11.420  38.544 -0.0550  0.0479 -0.1652
  288BOLB   GL2 6892  21.363  11.612  38.647 -0.1831  0.3690  0.2686
  288BOLB   C1A 6893  21.419  11.253  38.975  0.0240  0.0515 -0.1698
  288BOLB   C2A 6894  21.771  10.971  39.165 -0.0014  0.0092 -0.2088
  288BOLB   C3A 6895  22.128  11.161  39.316 -0.3059 -0.1847  0.0402
  288BOLB   C4A 6896  22.385  11.422  39.360 -0.2347  0.0276  0.2056
  288BOLB   C1B 6897  21.668  11.699  39.029  0.0642  0.1884  0.1302
  288BOLB   C2B 6898  21.667  11.513  39.441 -0.1725  0.1467 -0.0664
  288BOLB   C3B 6899  21.580  11.650  39.780  0.0481  0.1770  0.0392
  288BOLB   C4B 6900  21.698  11.518  40.087  0.1748 -0.0167 -0.5081
  288BOLB   NC2 6901  23.651  11.078  40.916 -0.0519 -0.0238  0.0308
  288BOLB   PO2 6902  24.000  10.890  40.733  0.2364  0.1709 -0.1843
  288BOLB   GL3 6903  23.698  10.845  40.411  0.2861  0.3445  0.2587
  288BOLB   GL4 6904  23.416  10.744  40.487 -0.0344  0.0191  0.4263
  288BOLB   C1C 6905  23.515  11.091  40.083  0.0309 -0.3445  0.1401
  288BOLB   C2C 6906  23.470  11.348  39.733  0.0539 -0.1036 -0.1770
  288BOLB   C3C 6907  23.191  11.373  39.417 -0.0895  0.0772 -0.1894
  288BOLB   C4C 6908  22.845  11.500  39.284  0.0131 -0.0624 -0.1406
  288BOLB   C1D 6909  23.236  10.674  40.089 -0.2409  0.1538 -0.0002
  288BOLB   C2D 6910  23.116  10.401  39.826  0.0079 -0.0236  0.2211
  288BOLB   C3D 6911  22.881  10.307  39.423 -0.1475 -0.3111 -0.0957
  288BOLB   C4D 6912  22.732   9.943  39.270  0.2856 -0.0831  0.4468
  289BOLB   NC1 6913  16.073  19.783  35.597  0.2140 -0.0153  0.0894
  289BOLB   PO1 6914  16.222  19.547  35.854  0.1667  0.0371 -0.0520
  289BOLB   GL1 6915  16.268  19.961  36.089 -0.0280 -0.0704 -0.3885
  289BOLB   GL2 6916  16.096  20.012  36.353  0.0920 -0.2743 -0.1596
  289BOLB   C1A 6917  16.343  20.377  36.073  0.3617  0.0953  0.1196
  289BOLB   C2A 6918  16.370  20.813  36.131  0.1493  0.0014 -0.1091
  289BOLB   C3A 6919  16.079  21.179  36.283  0.1448 -0.2794 -0.1534
  289BOLB   C4A 6920  15.851  21.595  36.382  0.0752  0.0309  0.0196
  289BOLB   C1B 6921  16.236  20.286  36.622  0.0693 -0.1698 -0.0878
  289BOLB   C2B 6922  16.250  20.608  36.839  0.1576  0.2234 -0.1539
  289BOLB   C3B 6923  16.065  20.708  37.219  0.0284  0.3193 -0.0664
  289BOLB   C4B 6924  15.714  20.674  37.478 -0.0153 -0.1594 -0.2134
  289BOLB   NC2 6925  14.860  23.963  37.693 -0.0648 -0.2048 -0.4062
  289BOLB   PO2 6926  15.220  23.813  37.456  0.1586  0.3899 -0.2754
  289BOLB   GL3 6927  15.331  23.438  37.082 -0.2592  0.0446  0.2091
  289BOLB   GL4 6928  15.375  23.596  36.736 -0.2969  0.1875 -0.0365
  289BOLB   C1C 6929  15.246  23.005  37.063  0.3309 -0.0304  0.0126
  289BOLB   C2C 6930  15.298  22.589  36.797 -0.3052 -0.3926 -0.2766
  289BOLB   C3C 6931  15.494  22.232  36.850 -0.1046  0.2316 -0.1291
  289BOLB   C4C 6932  15.536  21.774  36.695  0.0142  0.3430 -0.1549
  289BOLB   C1D 6933  15.254  23.395  36.465  0.1163  0.1184 -0.0206
  289BOLB   C2D 6934  15.468  23.053  36.355  0.0335  0.0510  0.1889
  289BOLB   C3D 6935  15.662  22.955  36.770  0.0200  0.1339  0.0930
  289BOLB   C4D 6936  15.650  22.660  37.172 -0.1430  0.0451 -0.0629
  290BOLB   NC1 6937   8.108  11.708  27.571  0.0169 -0.1132 -0.3150
  290BOLB   PO1 6938   8.385  12.052  27.378 -0.2805 -0.0225  0.0534
  290BOLB   GL1 6939   7.929  12.215  27.452  0.0315  0.1142 -0.2994
  290BOLB   GL2 6940   7.776  12.032  27.299  0.1763 -0.0948  0.1451
  290BOLB   C1A 6941   7.499  12.456  27.353  0.0776  0.3731 -0.0933
  290BOLB   C2A 6942   7.090  12.331  27.311 -0.0918 -0.1355 -0.0859
  290BOLB   C3A 6943   6.576  12.242  27.231 -0.2264 -0.0917 -0.1124
  290BOLB   C4A 6944   6.214  12.164  27.414 -0.0772  0.3443  0.0986
  290BOLB   C1B 6945   7.421  11.977  26.956 -0.0636 -0.0081  0.1499
  290BOLB   C2B 6946   7.135  12.292  26.840 -0.0976 -0.0313 -0.3829
  290BOLB   C3B 6947   6.874  12.397  26.550  0.1184 -0.0741 -0.3350
  290BOLB   C4B 6948   6.521  12.500  26.482 -0.4922 -0.3003  0.1957
  290BOLB   NC2 6949   3.773  11.544  26.891 -0.3378  0.0690 -0.2184
  290BOLB   PO2 6950   3.712  11.926  27.030 -0.0837  0.1790 -0.1301
  290BOLB   GL3 6951   4.123  12.015  27.039  0.1078 -0.0950  0.0588
  290BOLB   GL4 6952   4.154  11.882  27.352  0.0869 -0.0352  0.1581
  290BOLB   C1C 6953   4.552  12.060  26.985 -0.1611  0.0036  0.1203
  290BOLB   C2C 6954   4.951  12.064  27.141 -0.1151  0.0240 -0.1048
  290BOLB   C3C 6955   5.266  12.043  27.191  0.1740  0.2080 -0.0242
  290BOLB   C4C 6956   5.747  12.176  27.345  0.0976 -0.1503 -0.1450
  290BOLB   C1D 6957   4.607  11.701  27.269 -0.1611 -0.1770  0.1027
  290BOLB   C2D 6958   4.976  11.589  27.212 -0.0596 -0.0831  0.0973
  290BOLB   C3D 6959   5.438  11.571  27.272 -0.4134  0.3182  0.0784
  290BOLB   C4D 6960   5.938  11.729  27.329 -0.2472 -0.0443 -0.0618
  291BOLB   NC1 6961  15.941  11.657  19.120  0.2916 -0.1217 -0.0317
  291BOLB   PO1 6962  16.336  11.685  19.071 -0.0184 -0.2525 -0.0912
  291BOLB   GL1 6963  16.076  11.698  18.664  0.3109 -0.3573  0.1673
  291BOLB   GL2 6964  16.414  11.908  18.572  0.0599  0.2386 -0.0494
  291BOLB   C1A 6965  15.739  11.472  18.499 -0.2327  0.0347 -0.0979
  291BOLB   C2A 6966  15.457  11.544  18.134 -0.2548 -0.0887 -0.1751
  291BOLB   C3A 6967  15.287  11.519  17.693  0.2500  0.3608 -0.3942
  291BOLB   C4A 6968  15.218  11.933  17.420 -0.0131 -0.2867 -0.1470
  291BOLB   C1B 6969  16.356  11.770  18.161 -0.1892 -0.1160 -0.1440
  291BOLB   C2B 6970  16.402  11.750  17.754  0.2756 -0.3135 -0.1442
  291BOLB   C3B 6971  16.591  11.790  17.421 -0.4103 -0.1260  0.0097
  291BOLB   C4B 6972  16.934  12.080  17.405  0.1479  0.1635 -0.1001
  291BOLB   NC2 6973  15.326  13.498  15.440  0.0102  0.0069  0.1887
  291BOLB   PO2 6974  14.983  13.227  15.379 -0.0071  0.0425  0.4609
  291BOLB   GL3 6975  15.140  13.113  15.731 -0.0508 -0.2152  0.0819
  291BOLB   GL4 6976  15.455  13.031  15.809  0.3098  0.0960  0.0588
  291BOLB   C1C 6977  15.035  12.914  16.098 -0.0263 -0.1038 -0.1856
  291BOLB   C2C 6978  14.946  12.837  16.444 -0.0704 -0.0978 -0.0537
  291BOLB   C3C 6979  15.010  12.557  16.744  0.3212 -0.0523 -0.1941
  291BOLB   C4C 6980  15.220  12.318  17.064  0.1633 -0.2502  0.2084
  291BOLB   C1D 6981  15.773  13.137  15.961 -0.0516  0.1768 -0.0229
  291BOLB   C2D 6982  16.163  13.196  16.223 -0.0426  0.1298  0.0269
  291BOLB   C3D 6983  16.373  13.257  16.488 -0.0621  0.0499  0.3362
  291BOLB   C4D 6984  16.361  13.242  16.976 -0.1016 -0.0477 -0.1943
  292BOLB   NC1 6985  21.012  21.726  21.686  0.0697 -0.1412  0.0835
  292BOLB   PO1 6986  20.705  21.378  21.583 -0.0380 -0.2625 -0.1260
  292BOLB   GL1 6987  20.650  21.026  21.812 -0.0462  0.2840 -0.0816
  292BOLB   GL2 6988  20.689  20.742  21.634 -0.4153  0.1807 -0.2609
  292BOLB   C1A 6989  20.269  20.869  22.038  0.1960  0.1415 -0.1214
  292BOLB   C2A 6990  19.838  20.653  21.922  0.1851 -0.0072  0.2411
  292BOLB   C3A 6991  19.524  20.894  22.059  0.3314 -0.0404  0.0892
  292BOLB   C4A 6992  19.272  20.980  22.379 -0.1618  0.1218 -0.0319
  292BOLB   C1B 6993  20.661  20.572  22.024 -0.1897  0.2288 -0.1280
  292BOLB   C2B 6994  20.670  20.182  22.376  0.0513  0.1207  0.1635
  292BOLB   C3B 6995  20.526  19.737  22.553 -0.0605  0.4473 -0.1000
  292BOLB   C4B 6996  20.172  19.653  22.853 -0.0985  0.0585  0.0615
  292BOLB   NC2 6997  19.811  22.699  23.267 -0.1012 -0.1481 -0.1918
  292BOLB   PO2 6998  19.546  22.880  23.681 -0.0648  0.0920  0.1466
  292BOLB   GL3 6999  19.516  22.432  23.615 -0.2084 -0.0839  0.0628
  292BOLB   GL4 7000  19.829  22.439  23.796 -0.1902 -0.0314  0.1800
  292BOLB   C1C 7001  19.384  22.101  23.415 -0.1490 -0.0654  0.1085
  292BOLB   C2C 7002  19.431  21.693  23.388  0.0571 -0.1214 -0.1807
  292BOLB   C3C 7003  19.263  21.405  23.207 -0.1414  0.2118  0.0531
  292BOLB   C4C 7004  19.324  21.151  22.781  0.0821  0.0174 -0.0466
  292BOLB   C1D 7005  19.715  21.944  23.749 -0.1643 -0.1574  0.0791
  292BOLB   C2D 7006  19.640  21.494  23.887 -0.1125  0.0749  0.2751
  292BOLB   C3D 7007  19.485  21.031  23.796  0.0541  0.1048 -0.1028
  292BOLB   C4D 7008  19.323  20.643  24.048 -0.2619 -0.3005 -0.0233
  293BOLB   NC1 7009  16.691   6.086  23.205 -0.2160 -0.1147  0.2489
  293BOLB   PO1 7010  17.032   5.844  23.256  0.2544  0.1645 -0.0616
  293BOLB   GL1 7011  16.758   5.609  22.993  0.2591 -0.3591  0.0774
  293BOLB   GL2 7012  16.726   5.718  22.641  0.0011 -0.1797 -0.0476
  293BOLB   C1A 7013  16.534   5.236  22.714 -0.2719  0.3905  0.1253
  293BOLB   C2A 7014  16.349   4.905  22.464 -0.0890  0.0941 -0.1298
  293BOLB   C3A 7015  16.261   4.443  22.389 -0.1988 -0.1247 -0.4251
  293BOLB   C4A 7016  16.046   4.004  22.455  0.2566 -0.1245 -0.2369
  293BOLB   C1B 7017  17.059   5.404  22.660 -0.3018 -0.1429  0.0842
  293BOLB   C2B 7018  17.211   5.034  22.526 -0.0607  0.0946  0.2603
  293BOLB   C3B 7019  17.315   4.760  22.273  0.0706 -0.1245 -0.1145
  293BOLB   C4B 7020  17.068   4.638  22.068 -0.0724 -0.0760  0.0692
  293BOLB   NC2 7021  14.869   2.000  21.772  0.2348 -0.0657  0.2141
  293BOLB   PO2 7022  15.315   2.077  21.614 -0.2696 -0.2146  0.1235
  293BOLB   GL3 7023  15.406   2.139  22.030 -0.1440  0.1095 -0.3690
  293BOLB   GL4 7024  15.132   2.325  22.155  0.2084 -0.1185  0.2269
  293BOLB   C1C 7025  15.606   2.525  22.246  0.1194  0.1033  0.2407
  293BOLB   C2C 7026  15.656   2.818  22.641 -0.1108  0.1071  0.0917
  293BOLB   C3C 7027  15.609   3.210  22.594 -0.0980 -0.3170  0.1920
  293BOLB   C4C 7028  15.933   3.598  22.577  0.1784 -0.1410  0.4072
  293BOLB   C1D 7029  15.157   2.602  22.579 -0.0659 -0.2527 -0.0366
  293BOLB   C2D 7030  15.190   3.070  22.772  0.1549 -0.1927  0.1955
  293BOLB   C3D 7031  15.288   3.549  22.549 -0.2032  0.1229 -0.0566
  293BOLB   C4D 7032  15.505   3.888  22.379 -0.0348  0.0409 -0.2119
  294BOLB   NC1 7033  23.607  10.092  30.504 -0.1808  0.0628 -0.1089
  294BOLB   PO1 7034  23.657  10.523  30.549  0.0828 -0.1480  0.1472
  294BOLB   GL1 7035  24.077  10.386  30.742 -0.1276  0.1981  0.2176
  294BOLB   GL2 7036  24.262  10.646  30.866 -0.0262  0.0142 -0.0398
  294BOLB   C1A 7037  24.343  10.176  30.990 -0.0992  0.0536 -0.2219
  294BOLB   C2A 7038  24.725  10.008  31.266 -0.3403 -0.0799 -0.1358
  294BOLB   C3A 7039  25.212   9.892  31.494  0.2465  0.3131 -0.1452
  294BOLB   C4A 7040  25.627   9.783  31.525 -0.1075  0.0291 -0.0689
  294BOLB   C1B 7041  24.624  10.747  30.974 -0.0748  0.2233 -0.1364
  294BOLB   C2B 7042  24.851  10.383  30.921  0.2040 -0.3527 -0.0737
  294BOLB   C3B 7043  25.127  10.354  31.056 -0.1274  0.1820 -0.0734
  294BOLB   C4B 7044  25.461   9.980  31.085 -0.1931 -0.0484 -0.2058
  294BOLB   NC2 7045   1.069   9.673  31.932 -0.3117 -0.3070 -0.2085
  294BOLB   PO2 7046   0.835   9.203  31.864  0.0928  0.3101  0.2235
  294BOLB   GL3 7047   0.522   9.118  32.013  0.2525  0.1729  0.1044
  294BOLB   GL4 7048   0.338   9.231  32.214  0.0196  0.1907  0.4597
  294BOLB   C1C 7049   0.131   9.364  31.807  0.1518  0.1046  0.5076
  294BOLB   C2C 7050  26.845   9.463  31.734 -0.1870  0.1868 -0.0274
  294BOLB   C3C 7051  26.409   9.466  31.678 -0.3611 -0.0984  0.1046
  294BOLB   C4C 7052  25.972   9.491  31.495 -0.5046 -0.1217 -0.1082
  294BOLB   C1D 7053   0.261   9.658  32.166 -0.2286 -0.0275 -0.2566
  294BOLB   C2D 7054  26.888   9.793  32.206  0.1194 -0.0331 -0.4057
  294BOLB   C3D 7055  26.725   9.783  32.581 -0.1451  0.0465  0.2959
  294BOLB   C4D 7056  26.458   9.719  32.799 -0.2426  0.1468 -0.0756
  295BOLB   NC1 7057  15.659   5.070  33.647 -0.1037 -0.0369  0.3417
  295BOLB   PO1 7058  15.267   4.891  33.798 -0.1261 -0.0414  0.1501
  295BOLB   GL1 7059  15.623   4.761  34.005  0.3630  0.2188 -0.2054
  295BOLB   GL2 7060  15.972   4.837  33.922 -0.2388  0.1088 -0.2132
  295BOLB   C1A 7061  15.599   4.482  34.350  0.0106 -0.2947 -0.2770
  295BOLB   C2A 7062  15.458   4.072  34.435 -0.0357 -0.2093 -0.1247
  295BOLB   C3A 7063  15.328   3.658  34.605  0.0495  0.1022  0.1367
  295BOLB   C4A 7064  15.116   3.224  34.855  0.0841 -0.2115 -0.1161
  295BOLB   C1B 7065  16.020   4.417  34.057 -0.0169  0.3093 -0.0321
  295BOLB   C2B 7066  15.970   4.091  34.352 -0.3072 -0.3730  0.1461
  295BOLB   C3B 7067  15.756   3.647  34.352  0.1148 -0.0279  0.1742
  295BOLB   C4B 7068  15.547   3.337  34.223 -0.0137  0.0750 -0.0629
  295BOLB   NC2 7069  14.462   1.081  35.432 -0.1115 -0.0109  0.2368
  295BOLB   PO2 7070  14.939   1.062  35.608 -0.2941 -0.0476  0.3190
  295BOLB   GL3 7071  15.043   1.577  35.706 -0.3043  0.2091 -0.0272
  295BOLB   GL4 7072  15.192   1.590  35.424  0.0527 -0.1236 -0.1082
  295BOLB   C1C 7073  15.060   1.931  35.758 -0.3031  0.0729  0.0256
  295BOLB   C2C 7074  14.895   2.371  35.678 -0.1236  0.1519  0.1259
  295BOLB   C3C 7075  15.064   2.755  35.557  0.1264 -0.0296  0.0925
  295BOLB   C4C 7076  14.964   2.973  35.052 -0.0824  0.1554 -0.3349
  295BOLB   C1D 7077  15.135   2.054  35.286 -0.1082 -0.0827  0.0401
  295BOLB   C2D 7078  15.251   2.502  35.070 -0.0211 -0.0855  0.1153
  295BOLB   C3D 7079  15.386   2.617  34.722 -0.0096  0.0479 -0.3047
  295BOLB   C4D 7080  15.648   2.551  34.434 -0.0015 -0.2084  0.0399
  296BOLB   NC1 7081  15.604   5.502  25.406 -0.2666 -0.1810 -0.2085
  296BOLB   PO1 7082  15.618   5.042  25.275  0.4372  0.2675  0.3253
  296BOLB   GL1 7083  15.635   4.682  24.941  0.0246  0.1356  0.1056
  296BOLB   GL2 7084  15.735   4.615  24.702 -0.1327  0.1544  0.0502
  296BOLB   C1A 7085  15.474   4.247  24.950  0.0874  0.2378  0.3157
  296BOLB   C2A 7086  15.394   3.944  24.664 -0.0077 -0.0967  0.2007
  296BOLB   C3A 7087  15.342   3.413  24.559 -0.2749 -0.2979  0.1057
  296BOLB   C4A 7088  15.387   3.057  24.677  0.2203 -0.1029  0.1038
  296BOLB   C1B 7089  15.663   4.369  24.439 -0.0434  0.0237 -0.0043
  296BOLB   C2B 7090  15.697   4.128  24.119 -0.4066  0.2533 -0.2264
  296BOLB   C3B 7091  15.957   3.807  23.923  0.2071 -0.0632  0.2677
  296BOLB   C4B 7092  16.185   3.650  23.602  0.0490 -0.1320  0.0778
  296BOLB   NC2 7093  15.376   0.793  23.648  0.0324  0.0054  0.0916
  296BOLB   PO2 7094  15.104   1.107  23.609  0.0541  0.1958 -0.1097
  296BOLB   GL3 7095  15.333   1.410  23.900  0.1937  0.0286  0.2587
  296BOLB   GL4 7096  15.422   1.254  24.066 -0.0918 -0.0920  0.0786
  296BOLB   C1C 7097  15.227   1.820  24.018 -0.2255 -0.2176 -0.1345
  296BOLB   C2C 7098  14.920   2.035  24.454 -0.1290  0.1153  0.1022
  296BOLB   C3C 7099  15.006   2.319  24.829  0.1383 -0.0226 -0.2125
  296BOLB   C4C 7100  15.221   2.705  24.860  0.0072 -0.0930 -0.0943
  296BOLB   C1D 7101  15.370   1.578  24.412 -0.3613  0.1957  0.2400
  296BOLB   C2D 7102  15.341   1.916  24.594 -0.2006  0.1085 -0.0200
  296BOLB   C3D 7103  15.514   2.294  24.749  0.3836 -0.1054 -0.0191
  296BOLB   C4D 7104  15.679   2.623  24.516  0.1357  0.1508  0.0098
  297BOLB   NC1 7105  15.163  14.447  15.497  0.1656 -0.1053  0.0905
  297BOLB   PO1 7106  15.010  14.795  15.797 -0.1334 -0.4823  0.3242
  297BOLB   GL1 7107  15.126  15.093  16.116  0.0579 -0.2283  0.4309
  297BOLB   GL2 7108  15.182  15.396  16.038  0.0983 -0.0714  0.0203
  297BOLB   C1A 7109  15.403  14.903  16.413  0.0628  0.0683  0.0654
  297BOLB   C2A 7110  15.572  14.812  16.870 -0.0520 -0.2276 -0.3138
  297BOLB   C3A 7111  15.862  14.794  17.184  0.0887 -0.1128 -0.2090
  297BOLB   C4A 7112  16.171  14.954  17.430  0.0104 -0.0664 -0.0241
  297BOLB   C1B 7113  15.595  15.270  16.154  0.2534 -0.1832 -0.0110
  297BOLB   C2B 7114  15.934  15.120  16.408  0.1883  0.0866 -0.0105
  297BOLB   C3B 7115  15.911  14.738  16.470  0.1638 -0.0881  0.1269
  297BOLB   C4B 7116  15.895  14.403  16.813 -0.1835 -0.3666  0.1135
  297BOLB   NC2 7117  16.977  13.898  15.083 -0.3533 -0.4823  0.0198
  297BOLB   PO2 7118  16.792  14.390  15.201 -0.0152 -0.0030 -0.1761
  297BOLB   GL3 7119  16.886  14.344  15.685 -0.1323  0.0701 -0.3713
  297BOLB   GL4 7120  17.027  14.701  15.791 -0.1230  0.1173 -0.0541
  297BOLB   C1C 7121  16.783  14.498  16.151 -0.0073 -0.0365  0.3955
  297BOLB   C2C 7122  16.851  14.855  16.506 -0.0056 -0.3223 -0.0879
  297BOLB   C3C 7123  16.802  15.011  16.886 -0.1515 -0.1141  0.0267
  297BOLB   C4C 7124  16.616  14.977  17.324  0.1637  0.1819  0.0193
  297BOLB   C1D 7125  17.454  14.568  15.788 -0.1086  0.1960 -0.1185
  297BOLB   C2D 7126  17.723  14.514  16.171  0.1476 -0.1910  0.0138
  297BOLB   C3D 7127  17.670  14.169  16.462  0.0544 -0.1141 -0.0172
  297BOLB   C4D 7128  17.482  13.882  16.856  0.1808  0.1260  0.1661
  298BOLB   NC1 7129   9.005   9.929  26.123  0.1820  0.2018 -0.0084
  298BOLB   PO1 7130   9.288   9.546  26.182  0.1077 -0.1846  0.2376
  298BOLB   GL1 7131   8.854   9.420  26.112  0.1431 -0.1069  0.0914
  298BOLB   GL2 7132   8.735   9.561  25.828 -0.0802 -0.1145  0.0248
  298BOLB   C1A 7133   8.488   9.217  26.146 -0.1525  0.0547 -0.1843
  298BOLB   C2A 7134   8.180   9.054  25.926 -0.4078 -0.0233 -0.1570
  298BOLB   C3A 7135   7.813   8.947  25.860  0.0387  0.0551 -0.2083
  298BOLB   C4A 7136   7.317   9.073  25.902  0.0214  0.0985 -0.1584
  298BOLB   C1B 7137   8.390   9.518  25.687  0.2742 -0.2203  0.1355
  298BOLB   C2B 7138   8.163   9.544  25.312 -0.1172 -0.1876  0.1439
  298BOLB   C3B 7139   7.929   9.331  25.045 -0.1170  0.3413  0.0127
  298BOLB   C4B 7140   7.551   9.173  24.930 -0.2329 -0.0101 -0.1491
  298BOLB   NC2 7141   5.713   8.272  24.556 -0.1745 -0.0701  0.1232
  298BOLB   PO2 7142   5.755   8.382  24.093 -0.3012 -0.1570  0.1611
  298BOLB   GL3 7143   6.157   8.314  24.363  0.1781 -0.0048  0.1151
  298BOLB   GL4 7144   6.478   8.343  24.149  0.0626 -0.0776 -0.0480
  298BOLB   C1C 7145   6.301   8.249  24.752 -0.0365  0.3334  0.5143
  298BOLB   C2C 7146   6.485   8.341  25.078 -0.1858 -0.1862  0.1403
  298BOLB   C3C 7147   6.836   8.538  25.285  0.2885 -0.3065 -0.1926
  298BOLB   C4C 7148   7.069   8.851  25.658 -0.0327 -0.0575 -0.2046
  298BOLB   C1D 7149   6.805   8.507  24.236 -0.2823  0.2185 -0.2952
  298BOLB   C2D 7150   7.115   8.878  24.341 -0.1907 -0.0072  0.2205
  298BOLB   C3D 7151   7.446   9.080  24.473 -0.0235 -0.1944 -0.0965
  298BOLB   C4D 7152   7.535   9.500  24.388  0.0289  0.0728  0.2616
  299BOLB   NC1 7153  16.745  17.572  38.319  0.0737 -0.0402 -0.0662
  299BOLB   PO1 7154  16.969  17.702  37.900  0.2305 -0.0722  0.0960
  299BOLB   GL1 7155  17.107  17.912  38.286  0.3205 -0.1091 -0.2040
  299BOLB   GL2 7156  17.391  17.910  38.129 -0.1878 -0.0442  0.0581
  299BOLB   C1A 7157  17.313  17.996  38.585  0.2288  0.2512 -0.0880
  299BOLB   C2A 7158  17.599  18.183  38.963  0.0388  0.0538 -0.0268
  299BOLB   C3A 7159  17.637  18.611  39.231 -0.1249 -0.3478 -0.0221
  299BOLB   C4A 7160  17.659  18.944  39.522 -0.2127 -0.0462  0.2662
  299BOLB   C1B 7161  17.307  18.310  37.958 -0.1197  0.2974 -0.0180
  299BOLB   C2B 7162  17.646  18.634  37.969  0.0163  0.4039 -0.0475
  299BOLB   C3B 7163  17.838  18.816  38.286 -0.0717  0.0493 -0.1618
  299BOLB   C4B 7164  18.005  19.127  38.578  0.3753  0.1380 -0.2189
  299BOLB   NC2 7165  18.733  20.731  40.073  0.0224 -0.0525  0.1587
  299BOLB   PO2 7166  18.428  21.027  40.084 -0.3798 -0.2035 -0.0970
  299BOLB   GL3 7167  18.440  20.842  39.625 -0.2066  0.0758 -0.0035
  299BOLB   GL4 7168  18.724  20.785  39.550 -0.1425  0.0739 -0.0054
  299BOLB   C1C 7169  18.375  20.397  39.479  0.0521  0.1689 -0.0089
  299BOLB   C2C 7170  18.109  19.980  39.649  0.3166 -0.1554 -0.0410
  299BOLB   C3C 7171  18.152  19.603  39.691 -0.0300 -0.0309  0.3115
  299BOLB   C4C 7172  18.018  19.220  39.675  0.0345  0.2645 -0.1295
  299BOLB   C1D 7173  18.666  20.555  39.142  0.2011  0.3472  0.2020
  299BOLB   C2D 7174  18.606  20.203  38.913 -0.1314  0.3753  0.1080
  299BOLB   C3D 7175  18.638  19.900  38.572 -0.1456  0.1994  0.6139
  299BOLB   C4D 7176  18.403  19.916  38.213 -0.0764  0.2837  0.1865
  300BOLB   NC1 7177  11.859  15.060  38.229  0.0705  0.1427 -0.0445
  300BOLB   PO1 7178  11.568  14.840  38.033  0.0711 -0.0239  0.2588
  300BOLB   GL1 7179  11.269  15.039  38.319  0.1236 -0.1543 -0.0210
  300BOLB   GL2 7180  10.973  15.149  38.184 -0.2587 -0.0400 -0.1186
  300BOLB   C1A 7181  10.858  14.867  38.531 -0.4131 -0.2221  0.1428
  300BOLB   C2A 7182  10.443  15.113  38.616  0.1163  0.1093 -0.3836
  300BOLB   C3A 7183  10.052  15.252  38.703 -0.2636  0.3408  0.1162
  300BOLB   C4A 7184   9.675  15.228  38.972  0.2150  0.1193 -0.1185
  300BOLB   C1B 7185  10.595  15.423  38.216 -0.0587  0.1745  0.0200
  300BOLB   C2B 7186  10.368  15.575  38.413 -0.1926 -0.1674 -0.1993
  300BOLB   C3B 7187   9.959  15.689  38.478 -0.0028  0.0920  0.3015
  300BOLB   C4B 7188   9.655  15.945  38.549 -0.3555 -0.0746 -0.1589
  300BOLB   NC2 7189   8.994  16.465  41.404  0.1905 -0.1527 -0.2266
  300BOLB   PO2 7190   9.021  16.198  41.040 -0.0460 -0.0358  0.1465
  300BOLB   GL3 7191   9.330  16.027  40.841  0.1454 -0.2755  0.0735
  300BOLB   GL4 7192   9.657  16.154  40.554  0.1785 -0.1658 -0.2493
  300BOLB   C1C 7193   9.295  15.800  40.513 -0.1687  0.2999  0.1097
  300BOLB   C2C 7194   9.470  15.413  40.144  0.0485 -0.0998 -0.2023
  300BOLB   C3C 7195   9.564  15.167  39.765  0.2418 -0.0390 -0.0326
  300BOLB   C4C 7196   9.711  15.042  39.367  0.0591 -0.1532  0.0310
  300BOLB   C1D 7197   9.898  16.123  40.156  0.1641 -0.0112 -0.1687
  300BOLB   C2D 7198  10.257  16.183  39.908  0.0418  0.0833 -0.0811
  300BOLB   C3D 7199  10.364  16.430  39.562 -0.0066  0.0038 -0.0769
  300BOLB   C4D 7200  10.087  16.462  39.256 -0.1003 -0.0883 -0.1688
  301BOLB   NC1 7201  13.667   6.158  23.731 -0.3353  0.1478 -0.0484
  301BOLB   PO1 7202  13.366   6.284  23.551 -0.0666 -0.1644  0.0650
  301BOLB   GL1 7203  13.433   5.993  23.309 -0.0788  0.3045 -0.0011
  301BOLB   GL2 7204  13.390   5.987  22.900 -0.0642  0.1088 -0.1206
  301BOLB   C1A 7205  13.358   5.482  23.124  0.0890  0.1208  0.0121
  301BOLB   C2A 7206  13.085   5.288  23.119  0.0803 -0.0504 -0.1803
  301BOLB   C3A 7207  12.880   4.872  23.251  0.0754  0.0945  0.2008
  301BOLB   C4A 7208  12.745   4.516  23.099  0.3990  0.1528  0.2213
  301BOLB   C1B 7209  13.448   5.766  22.607 -0.0944  0.0311  0.0613
  301BOLB   C2B 7210  13.456   5.482  22.253 -0.0162  0.0692  0.0344
  301BOLB   C3B 7211  13.526   5.641  21.859  0.1854 -0.0471 -0.4035
  301BOLB   C4B 7212  13.200   5.763  21.652 -0.0930 -0.0678  0.0072
  301BOLB   NC2 7213  11.161   3.051  21.914 -0.1593 -0.0373  0.2856
  301BOLB   PO2 7214  11.306   3.548  21.908 -0.1039 -0.1259  0.1728
  301BOLB   GL3 7215  11.499   4.056  21.953 -0.1079 -0.0493 -0.2677
  301BOLB   GL4 7216  11.835   4.041  22.012  0.1849  0.0170  0.2786
  301BOLB   C1C 7217  11.470   4.499  22.143 -0.2297  0.1498 -0.0334
  301BOLB   C2C 7218  11.811   4.751  22.339 -0.3451  0.0120  0.0341
  301BOLB   C3C 7219  12.163   4.623  22.488 -0.1512 -0.2973  0.1976
  301BOLB   C4C 7220  12.442   4.430  22.751 -0.1366 -0.0290  0.1403
  301BOLB   C1D 7221  12.061   4.339  22.049 -0.1462  0.1381  0.2349
  301BOLB   C2D 7222  12.415   4.383  22.174  0.0301  0.2398  0.0642
  301BOLB   C3D 7223  12.748   4.124  22.361  0.1440 -0.1023 -0.1227
  301BOLB   C4D 7224  13.042   3.804  22.414  0.3029 -0.1879 -0.0747
  302BOLB   NC1 7225  20.910  14.268  37.392  0.1091 -0.2598  0.1253
  302BOLB   PO1 7226  21.118  13.918  37.501  0.0116  0.2020 -0.1626
  302BOLB   GL1 7227  21.182  13.711  37.874 -0.1488  0.0743  0.1683
  302BOLB   GL2 7228  21.272  13.962  38.208  0.1083 -0.0407  0.3229
  302BOLB   C1A 7229  21.599  13.517  38.239 -0.0281 -0.1232  0.2474
  302BOLB   C2A 7230  21.781  13.498  38.615 -0.0234 -0.0546  0.0717
  302BOLB   C3A 7231  21.859  13.419  39.105  0.0441 -0.0070  0.0393
  302BOLB   C4A 7232  21.902  13.359  39.434  0.1198 -0.0860 -0.1966
  302BOLB   C1B 7233  21.228  14.240  38.648  0.4510 -0.2692  0.0292
  302BOLB   C2B 7234  21.296  14.636  38.917 -0.2588  0.1791 -0.1703
  302BOLB   C3B 7235  21.232  14.582  39.343 -0.2609  0.3126 -0.4251
  302BOLB   C4B 7236  21.307  14.635  39.801 -0.0563 -0.2653 -0.0016
  302BOLB   NC2 7237  23.917  12.736  40.590 -0.0652 -0.0049  0.4025
  302BOLB   PO2 7238  23.954  13.156  40.470  0.0053  0.0400 -0.3084
  302BOLB   GL3 7239  23.522  13.142  40.259  0.3606  0.1792  0.2995
  302BOLB   GL4 7240  23.706  13.378  40.039 -0.1844 -0.2369  0.1666
  302BOLB   C1C 7241  23.119  12.990  40.478 -0.0009  0.0726 -0.1645
  302BOLB   C2C 7242  22.722  12.922  40.365 -0.1911  0.1490  0.1279
  302BOLB   C3C 7243  22.441  13.148  40.162  0.2162 -0.0129 -0.2563
  302BOLB   C4C 7244  22.128  13.108  39.756  0.1927 -0.6890 -0.1249
  302BOLB   C1D 7245  23.805  13.197  39.624  0.1445 -0.1923 -0.3680
  302BOLB   C2D 7246  23.546  13.170  39.276 -0.0113 -0.2317 -0.4441
  302BOLB   C3D 7247  23.102  12.998  39.233  0.2435 -0.0531 -0.0306
  302BOLB   C4D 7248  22.880  12.730  39.424 -0.1565 -0.4824 -0.1027
  303BOLB   NC1 7249   9.326   8.409  32.426  0.2662  0.0662 -0.1330
  303BOLB   PO1 7250   9.323   8.150  32.733  0.0323 -0.1497  0.0900
  303BOLB   GL1 7251   8.914   8.170  32.710 -0.4032  0.0402  0.1448
  303BOLB   GL2 7252   8.754   8.438  32.542  0.1606 -0.0787 -0.1134
  303BOLB   C1A 7253   8.556   8.015  32.789  0.1926  0.0843 -0.2515
  303BOLB   C2A 7254   8.341   7.783  32.913  0.0513 -0.0452  0.1502
  303BOLB   C3A 7255   8.107   7.532  33.210 -0.0276  0.0192  0.4291
  303BOLB   C4A 7256   7.854   7.451  33.489 -0.2349 -0.1967 -0.1662
  303BOLB   C1B 7257   8.364   8.423  32.448  0.3678 -0.0637  0.1551
  303BOLB   C2B 7258   7.895   8.491  32.587 -0.1372 -0.0133  0.0728
  303BOLB   C3B 7259   7.577   8.322  32.828 -0.0611  0.0728  0.0168
  303BOLB   C4B 7260   7.078   8.216  32.976  0.1292 -0.0127  0.0888
  303BOLB   NC2 7261   6.293   5.613  34.612  0.1311  0.0275 -0.3465
  303BOLB   PO2 7262   6.541   5.752  34.892  0.0672  0.1815 -0.0423
  303BOLB   GL3 7263   6.580   6.198  34.871  0.2014 -0.2214 -0.2001
  303BOLB   GL4 7264   6.391   6.201  34.547  0.1722  0.1143  0.0491
  303BOLB   C1C 7265   6.933   6.307  34.591 -0.0020  0.0760  0.0516
  303BOLB   C2C 7266   7.253   6.554  34.394 -0.0716  0.0645  0.4018
  303BOLB   C3C 7267   7.495   6.909  34.196 -0.0300 -0.0437 -0.1970
  303BOLB   C4C 7268   7.617   7.050  33.764 -0.0303 -0.2562  0.0619
  303BOLB   C1D 7269   6.643   6.557  34.218 -0.0229 -0.0627 -0.0863
  303BOLB   C2D 7270   6.885   6.613  34.036 -0.0695  0.1515 -0.1963
  303BOLB   C3D 7271   7.320   6.570  33.844 -0.0008  0.1359  0.0009
  303BOLB   C4D 7272   7.468   6.218  33.579 -0.3459 -0.3173 -0.3013
  304BOLB   NC1 7273  17.249   4.931  26.414 -0.0312 -0.3814  0.3253
  304BOLB   PO1 7274  17.231   4.675  26.143 -0.0832  0.2089 -0.1078
  304BOLB   GL1 7275  17.511   4.347  25.997 -0.1024 -0.3925  0.1904
  304BOLB   GL2 7276  17.437   4.110  26.240  0.1259 -0.0281  0.0050
  304BOLB   C1A 7277  17.447   4.009  25.702  0.0701 -0.4437 -0.3130
  304BOLB   C2A 7278  17.224   4.031  25.320  0.2516 -0.0756  0.1633
  304BOLB   C3A 7279  17.373   3.857  24.935  0.2792  0.1117 -0.0296
  304BOLB   C4A 7280  17.377   3.634  24.542  0.0454 -0.0165 -0.2015
  304BOLB   C1B 7281  17.679   3.790  26.074 -0.0390 -0.0095 -0.1616
  304BOLB   C2B 7282  17.659   3.603  25.633 -0.1315 -0.1921  0.0149
  304BOLB   C3B 7283  17.441   3.455  25.282  0.2792 -0.2241 -0.0130
  304BOLB   C4B 7284  17.128   3.365  24.971 -0.1286 -0.0392  0.0903
  304BOLB   NC2 7285  17.615   1.429  23.885 -0.0778  0.1978  0.1033
  304BOLB   PO2 7286  17.593   1.379  23.488  0.0304 -0.0583  0.2471
  304BOLB   GL3 7287  17.320   1.853  23.551 -0.1369  0.3617 -0.3914
  304BOLB   GL4 7288  17.070   2.037  23.488  0.1796 -0.2414 -0.0405
  304BOLB   C1C 7289  17.502   2.095  23.799  0.1674  0.0861  0.1617
  304BOLB   C2C 7290  17.271   2.458  24.028  0.3700  0.0390  0.0649
  304BOLB   C3C 7291  17.408   2.836  24.211  0.1553  0.1001 -0.0611
  304BOLB   C4C 7292  17.345   3.218  24.386 -0.0438 -0.0873  0.0661
  304BOLB   C1D 7293  16.934   2.546  23.651 -0.0263  0.0673  0.0994
  304BOLB   C2D 7294  17.054   2.925  23.826  0.2473  0.3001 -0.1827
  304BOLB   C3D 7295  17.073   3.413  23.866  0.0637  0.0688 -0.2212
  304BOLB   C4D 7296  17.175   3.787  24.121 -0.0418 -0.0999 -0.3450
  305BOLB   NC1 7297   9.112  18.564  31.231  0.1675 -0.1528 -0.2542
  305BOLB   PO1 7298   8.818  18.749  31.502 -0.3681 -0.0372  0.2606
  305BOLB   GL1 7299   8.803  19.166  31.499 -0.0028 -0.0623 -0.3259
  305BOLB   GL2 7300   8.551  19.168  31.397  0.4358 -0.4087 -0.1070
  305BOLB   C1A 7301   8.533  19.566  31.658 -0.0290  0.0394 -0.0955
  305BOLB   C2A 7302   8.168  19.649  31.670  0.1216 -0.1014 -0.1218
  305BOLB   C3A 7303   7.963  19.929  31.533  0.1921  0.0508 -0.1047
  305BOLB   C4A 7304   7.667  20.176  31.755  0.1101  0.0092 -0.0900
  305BOLB   C1B 7305   8.185  19.359  31.305 -0.2769  0.1367  0.1883
  305BOLB   C2B 7306   8.199  19.766  31.141 -0.1554 -0.1445 -0.0322
  305BOLB   C3B 7307   8.034  20.092  31.048 -0.1059 -0.0475 -0.0647
  305BOLB   C4B 7308   7.659  20.171  31.226 -0.1752 -0.1731 -0.1051
  305BOLB   NC2 7309   5.126  21.284  31.939 -0.0901 -0.2709  0.1587
  305BOLB   PO2 7310   5.312  21.480  31.673 -0.1852 -0.1385 -0.2351
  305BOLB   GL3 7311   5.684  21.209  31.612 -0.0007  0.1880  0.3112
  305BOLB   GL4 7312   5.681  20.807  31.688 -0.0118  0.0419  0.0102
  305BOLB   C1C 7313   6.173  20.874  31.743 -0.1076  0.1753 -0.1731
  305BOLB   C2C 7314   6.427  20.569  31.909  0.1115 -0.2857  0.0653
  305BOLB   C3C 7315   6.778  20.347  31.888 -0.3936 -0.1518 -0.0167
  305BOLB   C4C 7316   7.222  20.232  32.012 -0.0901  0.1342 -0.1093
  305BOLB   C1D 7317   5.852  20.402  31.930 -0.0053  0.4236  0.0490
  305BOLB   C2D 7318   6.136  20.108  31.958  0.2088 -0.3159  0.0365
  305BOLB   C3D 7319   6.336  19.768  31.794  0.3600 -0.0409  0.1198
  305BOLB   C4D 7320   6.584  19.518  31.775  0.0058  0.0822 -0.4196
  306BOLB   NC1 7321  14.376   5.619  35.272  0.1335  0.0254  0.2431
  306BOLB   PO1 7322  14.634   5.516  35.004 -0.0253 -0.0507 -0.0940
  306BOLB   GL1 7323  14.378   5.131  35.109 -0.0090  0.0446  0.0853
  306BOLB   GL2 7324  14.120   5.217  35.333 -0.4082 -0.0396  0.1350
  306BOLB   C1A 7325  14.558   4.745  35.166 -0.2163 -0.4126 -0.2233
  306BOLB   C2A 7326  14.370   4.335  35.316 -0.1081  0.0162 -0.0723
  306BOLB   C3A 7327  14.325   4.156  35.664  0.1740 -0.1336  0.1860
  306BOLB   C4A 7328  14.548   3.824  35.915  0.0590  0.0231  0.0483
  306BOLB   C1B 7329  14.073   4.817  35.359  0.1192 -0.0325 -0.3643
  306BOLB   C2B 7330  14.086   4.743  35.787  0.0377  0.1669  0.3207
  306BOLB   C3B 7331  13.981   4.735  36.194 -0.0179 -0.0058  0.2623
  306BOLB   C4B 7332  13.827   4.899  36.616 -0.3941  0.3904 -0.1678
  306BOLB   NC2 7333  15.120   1.214  36.056 -0.1560  0.1216 -0.1723
  306BOLB   PO2 7334  15.159   1.452  36.416  0.2765 -0.0064 -0.1248
  306BOLB   GL3 7335  15.194   1.804  36.212 -0.1165 -0.1033  0.1841
  306BOLB   GL4 7336  14.869   1.980  36.350 -0.0636  0.1741  0.0944
  306BOLB   C1C 7337  15.196   2.222  36.102 -0.3412 -0.0541  0.1047
  306BOLB   C2C 7338  15.066   2.686  36.121 -0.4009 -0.2606  0.2217
  306BOLB   C3C 7339  14.740   3.036  36.244  0.4235 -0.1122 -0.2899
  306BOLB   C4C 7340  14.654   3.468  36.142  0.0792  0.0483 -0.1856
  306BOLB   C1D 7341  14.906   2.371  36.548 -0.1201 -0.0209  0.0397
  306BOLB   C2D 7342  14.976   2.776  36.690 -0.0566 -0.4344  0.0589
  306BOLB   C3D 7343  15.169   3.215  36.813  0.1849  0.0403 -0.2203
  306BOLB   C4D 7344  15.664   3.240  36.846  0.1573  0.0483  0.1775
  307BOLB   NC1 7345  11.244  11.882  21.770  0.1559 -0.3119  0.1931
  307BOLB   PO1 7346  11.575  11.879  21.306  0.0207  0.1286  0.1262
  307BOLB   GL1 7347  11.523  12.022  20.858  0.3025 -0.1874 -0.0197
  307BOLB   GL2 7348  11.554  11.703  20.825 -0.0478 -0.2873  0.1987
  307BOLB   C1A 7349  11.076  12.110  20.682 -0.0227 -0.4533  0.2034
  307BOLB   C2A 7350  10.762  11.763  20.455 -0.0908 -0.1250  0.1003
  307BOLB   C3A 7351  10.390  11.613  20.368  0.0843 -0.1927  0.3854
  307BOLB   C4A 7352   9.953  11.844  20.421  0.2012 -0.1026  0.2605
  307BOLB   C1B 7353  11.351  11.754  20.477  0.0114  0.0325 -0.0069
  307BOLB   C2B 7354  11.072  11.843  20.079 -0.0372 -0.0553  0.1256
  307BOLB   C3B 7355  10.633  11.808  19.976 -0.0395 -0.0015 -0.3569
  307BOLB   C4B 7356  10.304  11.929  19.588 -0.2451  0.1897 -0.0190
  307BOLB   NC2 7357   7.162  11.570  19.994  0.0777 -0.1270 -0.3463
  307BOLB   PO2 7358   7.412  11.427  20.295 -0.2006  0.2023  0.0925
  307BOLB   GL3 7359   7.920  11.584  20.396 -0.1264 -0.1072  0.2585
  307BOLB   GL4 7360   8.077  11.575  20.732 -0.0331 -0.1242 -0.1187
  307BOLB   C1C 7361   8.369  11.645  20.376 -0.3202  0.3564  0.1310
  307BOLB   C2C 7362   8.724  11.582  20.092 -0.2068  0.0152 -0.2543
  307BOLB   C3C 7363   9.133  11.702  20.125  0.2526 -0.2718 -0.1671
  307BOLB   C4C 7364   9.548  11.855  20.245  0.1290 -0.1056  0.2077
  307BOLB   C1D 7365   8.402  11.233  20.724 -0.1076  0.0746  0.0504
  307BOLB   C2D 7366   8.672  11.433  20.926 -0.1050  0.1083 -0.0180
  307BOLB   C3D 7367   8.668  11.592  21.434  0.0617  0.1510 -0.0002
  307BOLB   C4D 7368   8.426  11.350  21.710 -0.1589  0.0232  0.0734
  308BOLB   NC1 7369   0.780  13.064  28.455  0.0275  0.1984  0.2953
  308BOLB   PO1 7370   0.794  12.648  28.736  0.0523 -0.0800 -0.1441
  308BOLB   GL1 7371   0.344  12.516  28.680 -0.0898  0.1513  0.1769
  308BOLB   GL2 7372   0.169  12.451  28.956 -0.1615 -0.3801  0.2731
  308BOLB   C1A 7373   0.102  12.306  28.459 -0.1279 -0.0643 -0.1334
  308BOLB   C2A 7374  26.654  12.310  28.553 -0.4046 -0.0655 -0.0513
  308BOLB   C3A 7375  26.243  12.231  28.604  0.2868 -0.1541 -0.0718
  308BOLB   C4A 7376  26.109  12.408  28.999 -0.2369 -0.1654 -0.2872
  308BOLB   C1B 7377  26.833  12.607  28.901  0.0380 -0.1183  0.1374
  308BOLB   C2B 7378  26.836  13.079  28.639  0.2459  0.2942  0.0088
  308BOLB   C3B 7379  26.714  13.154  28.248  0.0804  0.3221 -0.2608
  308BOLB   C4B 7380  26.679  12.909  27.895 -0.0842  0.0916  0.2634
  308BOLB   NC2 7381   0.603  12.625  29.252  0.0571 -0.1417  0.2836
  308BOLB   PO2 7382   0.486  12.996  28.895 -0.2806 -0.0424 -0.1047
  308BOLB   GL3 7383   0.254  12.926  29.153  0.2544 -0.0178 -0.1662
  308BOLB   GL4 7384   0.397  12.999  29.436 -0.2733  0.1381 -0.0604
  308BOLB   C1C 7385  26.848  13.058  29.163  0.0364  0.2225  0.1466
  308BOLB   C2C 7386  26.494  13.319  29.057  0.0479 -0.2104  0.1055
  308BOLB   C3C 7387  26.103  13.164  29.297 -0.5553  0.0883  0.0950
  308BOLB   C4C 7388  25.875  12.755  29.309  0.0144  0.4045  0.3120
  308BOLB   C1D 7389  27.049  13.002  29.668 -0.2794  0.0751  0.1294
  308BOLB   C2D 7390  26.697  12.786  29.734 -0.1660 -0.1615 -0.0565
  308BOLB   C3D 7391  26.196  12.904  29.702  0.3012  0.1478 -0.2927
  308BOLB   C4D 7392  25.746  13.015  29.697 -0.2077  0.2913  0.0793
  309BOLB   NC1 7393  10.945  20.311  29.992 -0.0423 -0.0273  0.2365
  309BOLB   PO1 7394  10.721  20.647  30.206  0.4204 -0.1207 -0.1955
  309BOLB   GL1 7395  10.478  21.103  30.429 -0.1027  0.0356  0.2515
  309BOLB   GL2 7396  10.165  21.086  30.509 -0.4465 -0.0843  0.4719
  309BOLB   C1A 7397  10.510  21.432  30.691  0.3523 -0.0256  0.0127
  309BOLB   C2A 7398  10.348  21.703  30.859  0.0207 -0.1145 -0.0106
  309BOLB   C3A 7399  10.437  22.073  30.862  0.0640 -0.0532 -0.0627
  309BOLB   C4A 7400  10.283  22.501  31.103  0.0929  0.2721  0.0038
  309BOLB   C1B 7401   9.730  21.214  30.450  0.2459 -0.1550  0.1174
  309BOLB   C2B 7402   9.404  21.342  30.313  0.2712  0.0504 -0.0528
  309BOLB   C3B 7403   9.173  21.530  30.594  0.0945 -0.0718  0.2298
  309BOLB   C4B 7404   8.743  21.722  30.712 -0.1744  0.3369 -0.1636
  309BOLB   NC2 7405   9.103  24.315  31.221 -0.2250 -0.2774  0.0554
  309BOLB   PO2 7406   9.534  24.465  31.020 -0.3332 -0.0278 -0.2213
  309BOLB   GL3 7407   9.530  24.028  31.247 -0.0316 -0.0106 -0.4192
  309BOLB   GL4 7408   9.707  23.786  31.005  0.2411  0.2704 -0.4052
  309BOLB   C1C 7409   9.378  23.637  31.434  0.0687  0.0378  0.3058
  309BOLB   C2C 7410   9.563  23.235  31.619  0.1434  0.3293 -0.0162
  309BOLB   C3C 7411   9.953  23.129  31.715 -0.1141 -0.2789 -0.0973
  309BOLB   C4C 7412  10.326  22.794  31.385  0.0268 -0.2216 -0.2197
  309BOLB   C1D 7413  10.067  23.570  31.137  0.1043 -0.0055  0.1040
  309BOLB   C2D 7414  10.548  23.599  31.092  0.0109  0.0689  0.0337
  309BOLB   C3D 7415  10.887  23.904  31.238  0.0198 -0.1379  0.0910
  309BOLB   C4D 7416  11.101  24.189  31.402 -0.0586  0.2064 -0.0190
  310BOLB   NC1 7417  20.990   7.124  34.257 -0.0080 -0.0213 -0.0020
  310BOLB   PO1 7418  21.391   6.981  34.200 -0.0627 -0.0231 -0.2360
  310BOLB   GL1 7419  21.629   6.623  34.189 -0.0669 -0.0272 -0.2248
  310BOLB   GL2 7420  21.960   6.675  34.069  0.1725 -0.2012 -0.2964
  310BOLB   C1A 7421  21.772   6.272  34.431 -0.1718 -0.1433  0.1427
  310BOLB   C2A 7422  22.017   6.001  34.425  0.0402 -0.2651 -0.1888
  310BOLB   C3A 7423  22.435   5.887  34.563 -0.1334 -0.1640  0.2619
  310BOLB   C4A 7424  22.739   5.728  34.830 -0.2678 -0.1193  0.3797
  310BOLB   C1B 7425  22.376   6.412  34.207 -0.1919  0.4192 -0.2277
  310BOLB   C2B 7426  22.721   6.485  34.509 -0.0528 -0.1773  0.3474
  310BOLB   C3B 7427  23.146   6.478  34.519 -0.2397  0.0621  0.2365
  310BOLB   C4B 7428  23.432   6.754  34.699 -0.2482  0.0912  0.3579
  310BOLB   NC2 7429  23.594   4.143  35.963  0.2085  0.0120  0.4788
  310BOLB   PO2 7430  23.892   4.475  36.181 -0.0495  0.1137  0.2500
  310BOLB   GL3 7431  23.650   4.633  35.781  0.1820 -0.1073  0.1625
  310BOLB   GL4 7432  23.310   4.511  35.709  0.0657  0.2096 -0.2198
  310BOLB   C1C 7433  23.693   4.530  35.360 -0.2008  0.1045  0.0469
  310BOLB   C2C 7434  23.443   4.749  35.098 -0.1792  0.3263 -0.0444
  310BOLB   C3C 7435  23.165   5.203  34.977  0.3137 -0.0054 -0.2781
  310BOLB   C4C 7436  22.954   5.390  34.828 -0.0120  0.0319  0.1667
  310BOLB   C1D 7437  22.922   4.471  35.889 -0.4590 -0.0752  0.1521
  310BOLB   C2D 7438  22.633   4.135  35.952  0.0945  0.1593  0.1377
  310BOLB   C3D 7439  22.233   4.004  35.988  0.0111  0.1679  0.0518
  310BOLB   C4D 7440  22.062   4.089  35.580 -0.2324 -0.2549 -0.1575
  311BOLB   NC1 7441   9.685  18.856  33.469  0.3153 -0.3438 -0.1124
  311BOLB   PO1 7442   9.967  19.143  33.433  0.1374  0.0491 -0.0172
  311BOLB   GL1 7443   9.655  19.376  33.650 -0.0145 -0.2172  0.2622
  311BOLB   GL2 7444   9.690  19.405  33.937  0.3199  0.0820 -0.1503
  311BOLB   C1A 7445   9.231  19.607  33.719 -0.4602  0.1024  0.0341
  311BOLB   C2A 7446   8.894  19.733  33.844 -0.1992 -0.1272  0.1050
  311BOLB   C3A 7447   8.603  20.055  34.121 -0.0361  0.2679  0.0327
  311BOLB   C4A 7448   8.138  20.067  34.287 -0.0821 -0.0428  0.0625
  311BOLB   C1B 7449   9.409  19.756  34.145  0.0416  0.3026 -0.0001
  311BOLB   C2B 7450   9.131  20.000  34.277  0.3135  0.3430 -0.2904
  311BOLB   C3B 7451   8.882  20.186  34.499 -0.0967 -0.1245  0.0787
  311BOLB   C4B 7452   8.454  19.989  34.693  0.0967  0.3663  0.1585
  311BOLB   NC2 7453   7.766  22.809  34.674  0.3664  0.0010  0.0747
  311BOLB   PO2 7454   7.661  22.518  34.935  0.1085 -0.0512  0.1604
  311BOLB   GL3 7455   7.746  22.055  35.130  0.0030  0.3370 -0.1810
  311BOLB   GL4 7456   7.450  21.852  35.134  0.1915 -0.0077 -0.0755
  311BOLB   C1C 7457   7.982  21.718  35.092  0.3287 -0.3653 -0.2974
  311BOLB   C2C 7458   8.149  21.341  34.933 -0.4047  0.0159 -0.2492
  311BOLB   C3C 7459   8.128  20.807  34.749  0.2409 -0.0235  0.1672
  311BOLB   C4C 7460   8.072  20.425  34.615 -0.1567  0.0922 -0.1655
  311BOLB   C1D 7461   7.642  21.811  34.728  0.0371 -0.0081 -0.0290
  311BOLB   C2D 7462   7.980  21.499  34.504  0.1874 -0.1846  0.1822
  311BOLB   C3D 7463   8.045  20.993  34.295  0.2967 -0.2184 -0.0665
  311BOLB   C4D 7464   7.722  20.775  34.459 -0.1578  0.1229 -0.4315
  312BOLB   NC1 7465  23.034   4.000  36.652  0.0417 -0.0142 -0.1583
  312BOLB   PO1 7466  23.268   4.366  36.688 -0.0094  0.0976 -0.3557
  312BOLB   GL1 7467  23.249   4.706  36.683 -0.0373 -0.2362 -0.2139
  312BOLB   GL2 7468  23.326   4.905  36.924  0.2435 -0.0813 -0.2536
  312BOLB   C1A 7469  23.194   4.927  36.240 -0.4736  0.0568 -0.1964
  312BOLB   C2A 7470  23.191   5.380  36.198 -0.1358 -0.1178  0.0149
  312BOLB   C3A 7471  23.187   5.869  36.224 -0.2132 -0.0963  0.3001
  312BOLB   C4A 7472  23.441   6.156  35.947 -0.0255  0.1910  0.2615
  312BOLB   C1B 7473  23.174   5.246  36.673  0.1591  0.2655 -0.0874
  312BOLB   C2B 7474  22.746   5.513  36.482 -0.0725 -0.0200 -0.4117
  312BOLB   C3B 7475  22.300   5.670  36.575 -0.0673  0.0738  0.2298
  312BOLB   C4B 7476  21.975   5.464  36.761 -0.3446 -0.1210  0.3035
  312BOLB   NC2 7477  25.996   7.018  35.612  0.2955  0.0607 -0.1525
  312BOLB   PO2 7478  25.596   7.050  35.444  0.0706 -0.1050  0.3196
  312BOLB   GL3 7479  25.184   7.180  35.559 -0.0318  0.0071  0.1003
  312BOLB   GL4 7480  25.078   7.147  35.930 -0.0816 -0.0397 -0.0962
  312BOLB   C1C 7481  24.790   7.001  35.372 -0.1791 -0.0058 -0.0082
  312BOLB   C2C 7482  24.333   6.811  35.401 -0.2024  0.0176  0.1257
  312BOLB   C3C 7483  23.976   6.533  35.421  0.0184  0.4355 -0.3463
  312BOLB   C4C 7484  23.738   6.194  35.598  0.0823  0.0660  0.1466
  312BOLB   C1D 7485  24.743   7.454  35.733 -0.0089 -0.3259 -0.1327
  312BOLB   C2D 7486  24.404   7.302  35.404 -0.3880 -0.0529 -0.0651
  312BOLB   C3D 7487  24.129   7.214  35.128 -0.0048 -0.2410 -0.2308
  312BOLB   C4D 7488  23.762   7.011  34.992  0.1303  0.2773  0.0039
  313BOLB   NC1 7489  20.910   5.375  29.742 -0.0272 -0.0542  0.4017
  313BOLB   PO1 7490  20.789   5.495  29.283  0.2070  0.1414 -0.3299
  313BOLB   GL1 7491  21.186   5.227  29.299 -0.3580  0.1074 -0.0116
  313BOLB   GL2 7492  21.312   5.063  29.654 -0.3090  0.2801  0.3182
  313BOLB   C1A 7493  21.480   4.774  29.205  0.0969 -0.0063 -0.2805
  313BOLB   C2A 7494  21.747   4.492  29.228 -0.2330 -0.0751  0.1410
  313BOLB   C3A 7495  21.603   4.334  29.510  0.0396  0.0398  0.0454
  313BOLB   C4A 7496  21.568   3.952  29.817  0.0226 -0.0581 -0.1232
  313BOLB   C1B 7497  21.477   4.845  30.043  0.0770 -0.1204  0.0598
  313BOLB   C2B 7498  21.726   4.583  29.979  0.0207 -0.4876 -0.1614
  313BOLB   C3B 7499  22.045   4.379  29.895 -0.1723  0.0681 -0.0152
  313BOLB   C4B 7500  22.082   4.075  29.983 -0.0212 -0.3181 -0.2337
  313BOLB   NC2 7501  22.811   1.802  30.167  0.1946  0.2727  0.0836
  313BOLB   PO2 7502  22.596   1.683  29.728  0.0527 -0.2898 -0.0110
  313BOLB   GL3 7503  22.281   1.930  29.857  0.0671 -0.0584  0.1537
  313BOLB   GL4 7504  22.230   1.887  30.122  0.0866 -0.2087 -0.0794
  313BOLB   C1C 7505  22.154   2.365  29.942 -0.3856  0.2967 -0.2952
  313BOLB   C2C 7506  21.886   2.685  29.794 -0.0718 -0.0513  0.2037
  313BOLB   C3C 7507  21.852   3.154  29.878  0.1824 -0.0896 -0.0659
  313BOLB   C4C 7508  21.583   3.509  29.864 -0.2333 -0.3503 -0.0022
  313BOLB   C1D 7509  21.796   2.068  30.239  0.2830 -0.5448  0.0140
  313BOLB   C2D 7510  21.525   2.371  30.173 -0.2861  0.0290  0.0737
  313BOLB   C3D 7511  21.430   2.718  30.031  0.2800  0.2943  0.1793
  313BOLB   C4D 7512  21.365   3.106  30.101  0.2587  0.1798  0.0376
  314BOLB   NC1 7513  11.586   9.923  22.573 -0.1699  0.2410  0.1638
  314BOLB   PO1 7514  11.412  10.339  22.568  0.2432 -0.0843  0.2721
  314BOLB   GL1 7515  11.237  10.192  22.239  0.2260 -0.1154 -0.3676
  314BOLB   GL2 7516  11.214  10.453  21.959  0.0031 -0.0806  0.2572
  314BOLB   C1A 7517  11.179   9.942  21.916  0.0427 -0.2166  0.3088
  314BOLB   C2A 7518  11.168   9.613  21.610  0.1510  0.1627 -0.1199
  314BOLB   C3A 7519  11.058   9.762  21.143  0.2724 -0.0079  0.1976
  314BOLB   C4A 7520  10.762   9.896  20.753 -0.0645  0.1699 -0.2576
  314BOLB   C1B 7521  10.838  10.285  21.790 -0.1376  0.1354 -0.3055
  314BOLB   C2B 7522  10.660   9.947  21.652 -0.1479  0.0888 -0.0194
  314BOLB   C3B 7523  10.359   9.570  21.722  0.1795  0.1191 -0.0328
  314BOLB   C4B 7524   9.959   9.509  21.649  0.0383  0.2014  0.2248
  314BOLB   NC2 7525   8.824   9.194  19.777 -0.1950 -0.0517  0.3651
  314BOLB   PO2 7526   8.677   9.548  19.542 -0.0159  0.1728  0.0610
  314BOLB   GL3 7527   8.966   9.719  19.819  0.1059  0.0783 -0.0673
  314BOLB   GL4 7528   8.853   9.540  20.138 -0.0944 -0.2321 -0.2110
  314BOLB   C1C 7529   9.397   9.702  19.924  0.4297  0.1130  0.0211
  314BOLB   C2C 7530   9.859   9.831  19.952 -0.0980 -0.3486 -0.1156
  314BOLB   C3C 7531  10.200  10.057  19.937  0.1085  0.1325 -0.0283
  314BOLB   C4C 7532  10.549  10.033  20.240 -0.0384  0.1034 -0.2626
  314BOLB   C1D 7533   8.901   9.957  20.307  0.1308 -0.0763  0.2524
  314BOLB   C2D 7534   8.745  10.310  20.617  0.3106  0.2403 -0.2895
  314BOLB   C3D 7535   8.469  10.240  21.000 -0.1647 -0.1332  0.0441
  314BOLB   C4D 7536   8.696  10.102  21.345  0.0649 -0.4462 -0.0797
  315BOLB   NC1 7537  22.912   8.695  31.470  0.0890  0.0538  0.3232
  315BOLB   PO1 7538  22.689   8.349  31.705 -0.1692 -0.0111  0.0483
  315BOLB   GL1 7539  23.099   8.159  31.664  0.1029 -0.2281  0.5960
  315BOLB   GL2 7540  23.148   8.104  31.430  0.0644 -0.0879 -0.2645
  315BOLB   C1A 7541  23.446   7.902  31.816 -0.1048 -0.2160  0.3354
  315BOLB   C2A 7542  23.645   7.540  31.961  0.0310  0.1326 -0.0462
  315BOLB   C3A 7543  24.128   7.384  32.174  0.1774 -0.0925 -0.1538
  315BOLB   C4A 7544  24.144   7.344  32.572  0.0705  0.1316 -0.0195
  315BOLB   C1B 7545  23.373   7.748  31.351  0.0801 -0.0817  0.0414
  315BOLB   C2B 7546  23.629   7.414  31.123 -0.4191  0.1701  0.0366
  315BOLB   C3B 7547  23.974   7.170  31.081 -0.1569  0.1537  0.0464
  315BOLB   C4B 7548  24.361   6.978  31.039 -0.1083  0.0436 -0.1186
  315BOLB   NC2 7549  26.319   6.041  32.757  0.1120 -0.2005  0.0609
  315BOLB   PO2 7550  26.499   6.460  32.881  0.1555 -0.0328 -0.0079
  315BOLB   GL3 7551  26.158   6.696  32.745  0.1182  0.0828 -0.1414
  315BOLB   GL4 7552  26.033   6.465  32.502  0.0529  0.0050  0.0618
  315BOLB   C1C 7553  25.901   6.954  32.947 -0.2516  0.1813 -0.0590
  315BOLB   C2C 7554  25.558   7.266  32.845  0.3052 -0.0149  0.2601
  315BOLB   C3C 7555  25.019   7.259  32.877  0.2960 -0.1988 -0.0062
  315BOLB   C4C 7556  24.579   7.349  32.778 -0.0933 -0.0973 -0.1778
  315BOLB   C1D 7557  25.586   6.481  32.455  0.3605 -0.0225 -0.1285
  315BOLB   C2D 7558  25.120   6.505  32.489 -0.0700 -0.0617 -0.0188
  315BOLB   C3D 7559  25.023   6.704  32.108 -0.1705 -0.0112 -0.1996
  315BOLB   C4D 7560  24.922   6.639  31.714 -0.0817 -0.4393  0.1301
  316BOLB   NC1 7561  10.383   8.459  34.528 -0.0473 -0.1939 -0.0711
  316BOLB   PO1 7562  10.001   8.426  34.585 -0.2642  0.4189 -0.0828
  316BOLB   GL1 7563   9.520   8.402  34.837 -0.0354 -0.0384  0.2130
  316BOLB   GL2 7564   9.282   8.250  34.643 -0.0389  0.1865  0.1576
  316BOLB   C1A 7565   9.334   7.993  35.090  0.2280 -0.1168 -0.0527
  316BOLB   C2A 7566   8.910   7.801  35.063  0.2583 -0.2648  0.2659
  316BOLB   C3A 7567   8.519   7.702  35.372  0.2728  0.0064 -0.2726
  316BOLB   C4A 7568   8.470   7.436  35.651 -0.2187  0.0705  0.2261
  316BOLB   C1B 7569   8.867   8.335  34.782  0.2574 -0.3763  0.0736
  316BOLB   C2B 7570   8.452   8.408  35.109  0.0825 -0.2322  0.0586
  316BOLB   C3B 7571   8.286   8.333  35.599  0.0080 -0.1718 -0.0857
  316BOLB   C4B 7572   8.553   8.377  36.025  0.0588 -0.1004 -0.1125
  316BOLB   NC2 7573   8.043   5.285  37.044 -0.2552 -0.1651  0.0624
  316BOLB   PO2 7574   7.709   5.620  37.077  0.1102 -0.0852 -0.0221
  316BOLB   GL3 7575   8.032   5.836  37.066  0.2033  0.0460  0.2441
  316BOLB   GL4 7576   8.268   6.122  37.244 -0.1973 -0.3686  0.3382
  316BOLB   C1C 7577   8.150   6.125  36.599  0.1528  0.1154 -0.2016
  316BOLB   C2C 7578   8.099   6.390  36.229  0.1563 -0.0009 -0.1838
  316BOLB   C3C 7579   8.130   6.735  35.907  0.0522 -0.4368  0.3090
  316BOLB   C4C 7580   8.251   7.045  35.776  0.0549 -0.3917 -0.4596
  316BOLB   C1D 7581   8.331   6.428  37.012  0.0789  0.0590 -0.0450
  316BOLB   C2D 7582   8.165   6.646  36.697  0.1705  0.1486 -0.0378
  316BOLB   C3D 7583   8.422   7.053  36.603  0.1388  0.0847 -0.0922
  316BOLB   C4D 7584   8.461   7.497  36.453  0.0551 -0.0293 -0.0829
  317BOLB   NC1 7585  22.110  11.408  24.001 -0.1032 -0.1552  0.0777
  317BOLB   PO1 7586  22.497  11.144  24.087  0.3005  0.1239 -0.0090
  317BOLB   GL1 7587  22.879  11.365  23.900  0.1544  0.0777  0.0534
  317BOLB   GL2 7588  22.971  11.336  24.171  0.2176 -0.0161  0.1858
  317BOLB   C1A 7589  23.363  11.427  23.917 -0.5310  0.2127  0.3828
  317BOLB   C2A 7590  23.808  11.616  24.001 -0.3089 -0.1252 -0.3515
  317BOLB   C3A 7591  24.216  11.565  24.059 -0.3757 -0.1523 -0.1867
  317BOLB   C4A 7592  24.615  11.637  23.900  0.3741  0.1841  0.2558
  317BOLB   C1B 7593  23.406  11.331  24.380  0.2687  0.0793  0.2828
  317BOLB   C2B 7594  23.830  11.393  24.513 -0.1633 -0.0833  0.0129
  317BOLB   C3B 7595  24.157  11.780  24.534 -0.2120  0.0944 -0.0817
  317BOLB   C4B 7596  24.569  11.788  24.546 -0.1320 -0.0330  0.1860
  317BOLB   NC2 7597   0.097  12.237  23.437  0.0796 -0.0811 -0.0211
  317BOLB   PO2 7598  26.828  12.601  23.367  0.2945 -0.2508 -0.0796
  317BOLB   GL3 7599  26.384  12.496  23.630 -0.0644 -0.1887 -0.0032
  317BOLB   GL4 7600  26.433  12.402  23.864  0.1812  0.0088 -0.1691
  317BOLB   C1C 7601  25.968  12.221  23.605 -0.0730 -0.1133 -0.3635
  317BOLB   C2C 7602  25.648  12.155  23.979 -0.1330 -0.1929 -0.0906
  317BOLB   C3C 7603  25.423  11.691  23.955 -0.2791  0.2196  0.0712
  317BOLB   C4C 7604  25.052  11.557  23.826  0.3883 -0.1895  0.2965
  317BOLB   C1D 7605  26.150  12.371  24.104 -0.6477  0.0308  0.1510
  317BOLB   C2D 7606  25.741  12.377  24.384  0.0278  0.0185  0.0240
  317BOLB   C3D 7607  25.324  12.348  24.379  0.0281  0.3596  0.0786
  317BOLB   C4D 7608  25.107  12.269  24.708 -0.0044 -0.2152 -0.1928
  318BOLB   NC1 7609  18.461  11.976  18.972  0.5555 -0.1328  0.1781
  318BOLB   PO1 7610  18.344  12.484  19.021  0.2504  0.0618 -0.1348
  318BOLB   GL1 7611  18.262  12.435  18.579 -0.0874 -0.1324  0.2081
  318BOLB   GL2 7612  18.168  12.754  18.529 -0.1563  0.0977  0.2891
  318BOLB   C1A 7613  18.212  12.264  18.186  0.0263 -0.0368  0.1728
  318BOLB   C2A 7614  18.168  12.373  17.776  0.1709  0.4551  0.0648
  318BOLB   C3A 7615  18.308  12.670  17.540  0.2891  0.0456  0.1964
  318BOLB   C4A 7616  18.274  12.841  17.106 -0.0967  0.5389  0.2285
  318BOLB   C1B 7617  18.302  12.728  18.159  0.3809  0.1141  0.1148
  318BOLB   C2B 7618  18.672  12.882  17.903  0.1310  0.1500 -0.1171
  318BOLB   C3B 7619  18.993  13.123  17.808  0.0221 -0.3577  0.2762
  318BOLB   C4B 7620  19.410  13.024  17.753  0.1576 -0.2139 -0.2149
  318BOLB   NC2 7621  18.775  14.405  15.125  0.1291 -0.4371 -0.2560
  318BOLB   PO2 7622  18.934  14.016  15.041 -0.0675 -0.1558 -0.1595
  318BOLB   GL3 7623  18.876  13.945  15.415 -0.1151 -0.2577  0.4039
  318BOLB   GL4 7624  19.123  13.977  15.616  0.0958 -0.2031 -0.0878
  318BOLB   C1C 7625  18.651  13.660  15.728  0.4019 -0.2387  0.4083
  318BOLB   C2C 7626  18.703  13.332  15.977 -0.2455  0.0982 -0.2207
  318BOLB   C3C 7627  18.378  13.099  16.185 -0.0006  0.2789 -0.0621
  318BOLB   C4C 7628  18.256  12.840  16.650  0.0877  0.0912 -0.2202
  318BOLB   C1D 7629  19.219  14.136  16.029 -0.0568  0.0614 -0.1960
  318BOLB   C2D 7630  19.093  14.043  16.525 -0.0454  0.4509  0.3911
  318BOLB   C3D 7631  19.233  14.057  16.965  0.2276 -0.3029  0.2159
  318BOLB   C4D 7632  19.375  14.501  17.195  0.0714 -0.1804  0.2028
  319BOLB   NC1 7633  12.911  20.815  27.040 -0.3010  0.2391  0.1894
  319BOLB   PO1 7634  12.516  20.865  27.221 -0.2122 -0.1069  0.1781
  319BOLB   GL1 7635  12.279  21.256  27.330  0.3640  0.0326 -0.0401
  319BOLB   GL2 7636  12.468  21.551  27.358  0.1244 -0.1723 -0.3225
  319BOLB   C1A 7637  11.986  21.614  27.169  0.0104 -0.0096 -0.0836
  319BOLB   C2A 7638  11.600  21.763  26.893  0.2159 -0.1817 -0.2287
  319BOLB   C3A 7639  11.488  22.214  26.598 -0.0236 -0.2780  0.1819
  319BOLB   C4A 7640  11.824  22.464  26.384 -0.1235  0.2092 -0.0666
  319BOLB   C1B 7641  12.658  21.926  27.514 -0.1282 -0.0304 -0.1217
  319BOLB   C2B 7642  12.793  22.199  27.490  0.2279 -0.1276  0.0688
  319BOLB   C3B 7643  13.144  22.424  27.616  0.0682  0.2949 -0.2178
  319BOLB   C4B 7644  13.486  22.565  27.800  0.6286 -0.0785 -0.2974
  319BOLB   NC2 7645  12.255  25.239  26.655  0.0575 -0.3155 -0.0184
  319BOLB   PO2 7646  12.255  24.916  26.302 -0.3313 -0.0718 -0.3844
  319BOLB   GL3 7647  12.560  24.503  26.318 -0.0120  0.1538  0.0553
  319BOLB   GL4 7648  12.837  24.447  26.135  0.0402  0.2527 -0.2186
  319BOLB   C1C 7649  12.551  24.026  26.311 -0.1532 -0.2715 -0.2418
  319BOLB   C2C 7650  12.563  23.536  26.340 -0.2291 -0.2368 -0.3997
  319BOLB   C3C 7651  12.398  23.063  26.253  0.2665  0.0721  0.0523
  319BOLB   C4C 7652  12.040  22.852  26.343 -0.2274 -0.1302 -0.0754
  319BOLB   C1D 7653  13.114  24.182  26.383 -0.0800  0.0379 -0.0513
  319BOLB   C2D 7654  13.026  23.777  26.578  0.1393 -0.3292  0.1447
  319BOLB   C3D 7655  12.903  23.419  26.699  0.2858 -0.1497 -0.1047
  319BOLB   C4D 7656  12.402  23.197  26.733  0.1042 -0.0171  0.3424
  320BOLB   NC1 7657  14.380   8.978  20.948 -0.1085 -0.1864  0.1503
  320BOLB   PO1 7658  14.234   9.366  20.820  0.0024  0.0441 -0.0230
  320BOLB   GL1 7659  13.872   9.102  20.617  0.0594  0.0088 -0.0174
  320BOLB   GL2 7660  13.769   9.288  20.397  0.1813 -0.0496 -0.0917
  320BOLB   C1A 7661  13.803   8.741  20.269 -0.2939  0.0587 -0.1059
  320BOLB   C2A 7662  13.536   8.386  20.113 -0.1123 -0.3131  0.0445
  320BOLB   C3A 7663  13.641   8.119  19.747 -0.0180 -0.0252  0.0233
  320BOLB   C4A 7664  13.253   7.972  19.523 -0.3587  0.1470 -0.0245
  320BOLB   C1B 7665  13.519   9.185  20.165  0.3254 -0.1795 -0.0254
  320BOLB   C2B 7666  13.203   9.109  19.933  0.0063 -0.4353  0.0506
  320BOLB   C3B 7667  12.901   8.900  19.691 -0.0105 -0.0355 -0.0695
  320BOLB   C4B 7668  12.543   8.932  19.375 -0.1059 -0.1133 -0.1927
  320BOLB   NC2 7669  12.313   6.619  18.060  0.1267  0.3489  0.0604
  320BOLB   PO2 7670  12.792   6.476  17.859  0.0652  0.0100  0.1488
  320BOLB   GL3 7671  12.843   6.768  18.260 -0.1166  0.0645  0.0626
  320BOLB   GL4 7672  12.988   6.687  18.602 -0.1737 -0.1343  0.1910
  320BOLB   C1C 7673  12.572   6.943  18.682  0.0950 -0.0884  0.1097
  320BOLB   C2C 7674  12.847   7.165  18.960 -0.2658 -0.1318  0.1720
  320BOLB   C3C 7675  13.182   7.268  19.096  0.2065 -0.0115  0.1121
  320BOLB   C4C 7676  13.097   7.640  19.278 -0.0004  0.1059  0.0514
  320BOLB   C1D 7677  13.282   6.844  18.788 -0.0261 -0.2672 -0.1181
  320BOLB   C2D 7678  13.554   6.947  19.049 -0.0834 -0.0705 -0.2162
  320BOLB   C3D 7679  13.636   7.376  19.331 -0.0776  0.1250 -0.2542
  320BOLB   C4D 7680  13.657   7.599  19.690 -0.1367 -0.2164  0.1764
  321BOLB   NC1 7681  26.282  14.126  23.121 -0.0203 -0.2140  0.1864
  321BOLB   PO1 7682  26.016  14.088  22.655 -0.0279  0.0765  0.0332
  321BOLB   GL1 7683  25.614  13.733  22.591  0.0241 -0.0921 -0.0661
  321BOLB   GL2 7684  25.783  13.558  22.460 -0.1728 -0.0290  0.0914
  321BOLB   C1A 7685  25.230  13.596  22.733 -0.2650  0.1830  0.1702
  321BOLB   C2A 7686  25.028  13.325  23.006  0.1239  0.1324 -0.1217
  321BOLB   C3A 7687  24.576  13.406  23.017  0.0654  0.1305 -0.0454
  321BOLB   C4A 7688  24.244  13.708  22.855 -0.0086 -0.1642  0.2731
  321BOLB   C1B 7689  25.525  13.257  22.382 -0.0706 -0.1644 -0.2319
  321BOLB   C2B 7690  25.014  13.244  22.414 -0.1437  0.0146 -0.0405
  321BOLB   C3B 7691  24.510  13.075  22.392  0.0792  0.2009 -0.3325
  321BOLB   C4B 7692  24.347  12.634  22.466 -0.1068 -0.0442 -0.1974
  321BOLB   NC2 7693  25.736  13.660  20.974 -0.1997  0.0757  0.1241
  321BOLB   PO2 7694  26.033  14.022  20.942 -0.0302 -0.0696  0.2399
  321BOLB   GL3 7695  25.564  14.134  21.119  0.1805  0.0067  0.0711
  321BOLB   GL4 7696  25.346  13.966  20.997  0.0298 -0.0218 -0.3648
  321BOLB   C1C 7697  25.161  14.213  21.461  0.2744  0.0339  0.0169
  321BOLB   C2C 7698  25.013  14.093  21.928 -0.2625 -0.2102 -0.1175
  321BOLB   C3C 7699  24.604  14.191  22.180  0.0992 -0.0800 -0.0418
  321BOLB   C4C 7700  24.275  13.911  22.480 -0.0780 -0.0008 -0.3331
  321BOLB   C1D 7701  24.983  13.981  20.807  0.1522 -0.2725  0.0124
  321BOLB   C2D 7702  24.627  13.842  20.716 -0.3145 -0.1409  0.2129
  321BOLB   C3D 7703  24.304  13.700  20.485 -0.0816  0.0685  0.1540
  321BOLB   C4D 7704  23.896  13.542  20.310 -0.1067 -0.1615 -0.1807
  322BOLB   NC1 7705  19.516   5.104  30.104  0.0041 -0.0531 -0.1087
  322BOLB   PO1 7706  19.728   4.973  30.528  0.1772 -0.3156  0.4356
  322BOLB   GL1 7707  19.815   4.538  30.478  0.2203 -0.1718  0.1052
  322BOLB   GL2 7708  19.847   4.346  30.756  0.1634  0.4778 -0.2145
  322BOLB   C1A 7709  20.168   4.215  30.413 -0.0928  0.1370 -0.1193
  322BOLB   C2A 7710  20.287   3.769  30.316 -0.1560 -0.0328 -0.2842
  322BOLB   C3A 7711  20.187   3.403  30.423  0.1501  0.3739 -0.0125
  322BOLB   C4A 7712  20.173   3.125  30.667  0.0153  0.1790 -0.1651
  322BOLB   C1B 7713  20.043   3.856  30.710  0.0435  0.1176 -0.3024
  322BOLB   C2B 7714  20.085   3.634  31.109 -0.1200 -0.1444  0.1882
  322BOLB   C3B 7715  20.108   3.198  31.263 -0.2104 -0.4564  0.3282
  322BOLB   C4B 7716  20.250   2.940  31.501  0.0104 -0.3965 -0.0138
  322BOLB   NC2 7717  20.863   0.958  29.945  0.0115 -0.3011  0.1424
  322BOLB   PO2 7718  21.097   0.839  30.333  0.1775 -0.1030  0.0332
  322BOLB   GL3 7719  21.144   1.255  30.411  0.0178 -0.0446  0.0487
  322BOLB   GL4 7720  20.973   1.340  30.643  0.2700  0.1376 -0.0062
  322BOLB   C1C 7721  20.907   1.601  30.090  0.1306 -0.2117  0.1694
  322BOLB   C2C 7722  20.608   1.942  30.262 -0.0182 -0.0821 -0.1771
  322BOLB   C3C 7723  20.478   2.372  30.283 -0.1801  0.2362 -0.2154
  322BOLB   C4C 7724  20.423   2.771  30.481  0.1174  0.2190  0.0549
  322BOLB   C1D 7725  20.993   1.742  30.562  0.0875  0.2539  0.1943
  322BOLB   C2D 7726  20.776   2.099  30.735  0.2675 -0.1228  0.1747
  322BOLB   C3D 7727  20.885   2.588  30.742 -0.1954  0.3349 -0.2560
  322BOLB   C4D 7728  20.843   3.035  30.766 -0.2161 -0.2614  0.3696
  323BOLB   NC1 7729  11.127  20.875  29.321 -0.1439  0.0260 -0.2446
  323BOLB   PO1 7730  11.338  20.983  29.685 -0.0623  0.0023  0.1273
  323BOLB   GL1 7731  11.091  21.250  29.680  0.2167  0.0134 -0.0479
  323BOLB   GL2 7732  10.956  21.422  29.506 -0.5538 -0.0463  0.3567
  323BOLB   C1A 7733  11.074  21.597  30.020  0.1050  0.1743 -0.2057
  323BOLB   C2A 7734  10.842  22.005  29.967  0.1203  0.1501  0.0593
  323BOLB   C3A 7735  10.644  22.302  30.247 -0.2095 -0.2365 -0.2667
  323BOLB   C4A 7736  10.291  22.506  30.579 -0.1051 -0.0734  0.0213
  323BOLB   C1B 7737  10.605  21.649  29.571  0.1852 -0.0461 -0.2899
  323BOLB   C2B 7738  10.281  21.758  29.295 -0.0562  0.1884  0.0610
  323BOLB   C3B 7739   9.876  21.861  29.310 -0.2491 -0.0973  0.2938
  323BOLB   C4B 7740   9.526  21.918  28.966  0.1609  0.1449 -0.1569
  323BOLB   NC2 7741   9.844  24.740  29.146  0.1051  0.0653 -0.0173
  323BOLB   PO2 7742   9.592  24.471  29.318  0.0363 -0.0982  0.2737
  323BOLB   GL3 7743   9.622  24.015  29.265 -0.0110 -0.0735 -0.0417
  323BOLB   GL4 7744   9.585  23.708  29.025  0.3325 -0.2412 -0.1859
  323BOLB   C1C 7745   9.722  23.704  29.502  0.0033  0.2184 -0.1567
  323BOLB   C2C 7746   9.882  23.599  29.935 -0.0659  0.0851  0.0464
  323BOLB   C3C 7747  10.173  23.271  30.116 -0.1074 -0.0647 -0.0939
  323BOLB   C4C 7748  10.278  22.893  30.387  0.3493  0.0975  0.1643
  323BOLB   C1D 7749   9.717  23.335  29.167 -0.0759 -0.1843 -0.0537
  323BOLB   C2D 7750   9.860  22.913  29.131  0.1196 -0.1024  0.0443
  323BOLB   C3D 7751  10.147  22.577  29.154  0.0506 -0.0029 -0.0763
  323BOLB   C4D 7752  10.188  22.256  29.340  0.1668 -0.0170  0.2365
  324BOLB   NC1 7753  22.616   9.367  34.496  0.1286  0.2783  0.1625
  324BOLB   PO1 7754  22.861   9.326  34.037  0.4143 -0.1091 -0.1605
  324BOLB   GL1 7755  23.102   9.278  34.446 -0.0622  0.0826  0.2241
  324BOLB   GL2 7756  23.389   9.086  34.444  0.0909 -0.1045  0.1644
  324BOLB   C1A 7757  23.102   9.008  34.844 -0.1031  0.1584  0.1721
  324BOLB   C2A 7758  23.462   8.802  35.034 -0.2924 -0.1218 -0.1517
  324BOLB   C3A 7759  23.706   8.742  35.240 -0.0672 -0.2454 -0.0428
  324BOLB   C4A 7760  24.109   8.516  35.101 -0.0847  0.0994  0.0012
  324BOLB   C1B 7761  23.733   8.908  34.642 -0.3571  0.0084  0.0814
  324BOLB   C2B 7762  24.011   8.604  34.627  0.0577 -0.2020 -0.0318
  324BOLB   C3B 7763  24.389   8.513  34.470  0.0299  0.4281  0.0796
  324BOLB   C4B 7764  24.449   8.725  34.146 -0.3057  0.0541  0.0644
  324BOLB   NC2 7765  26.436   8.456  35.724  0.0145 -0.1357 -0.3242
  324BOLB   PO2 7766  26.203   8.098  35.906 -0.5552 -0.1140 -0.2083
  324BOLB   GL3 7767  25.913   8.289  35.683  0.1088  0.1735  0.1004
  324BOLB   GL4 7768  25.658   8.072  35.777 -0.0599 -0.0435  0.1602
  324BOLB   C1C 7769  25.526   8.537  35.519  0.1235 -0.0793 -0.0142
  324BOLB   C2C 7770  25.134   8.552  35.366  0.5054 -0.1422  0.0388
  324BOLB   C3C 7771  24.886   8.600  35.008  0.4376 -0.0567 -0.0944
  324BOLB   C4C 7772  24.528   8.623  34.966  0.0171 -0.0749  0.0395
  324BOLB   C1D 7773  25.438   8.099  35.294 -0.0715 -0.0133  0.1994
  324BOLB   C2D 7774  25.051   8.103  35.012 -0.2483  0.0761 -0.3898
  324BOLB   C3D 7775  24.789   8.226  34.678  0.2664  0.5584  0.0250
  324BOLB   C4D 7776  24.640   8.031  34.293 -0.2139  0.1373 -0.0508
  325BOLB   NC1 7777  15.649   8.597  21.328  0.0228 -0.1576 -0.0001
  325BOLB   PO1 7778  15.587   8.451  20.891 -0.3517  0.2007  0.1820
  325BOLB   GL1 7779  15.219   8.236  20.758 -0.1803  0.0051  0.2496
  325BOLB   GL2 7780  15.030   8.466  20.559  0.1033 -0.1798 -0.1032
  325BOLB   C1A 7781  15.122   8.044  20.295 -0.0470 -0.1759  0.4492
  325BOLB   C2A 7782  15.079   7.898  19.993  0.0773  0.1556  0.4008
  325BOLB   C3A 7783  14.915   7.568  19.691 -0.0513  0.1603  0.1113
  325BOLB   C4A 7784  15.067   7.184  19.403 -0.0861  0.1689  0.1819
  325BOLB   C1B 7785  14.817   8.767  20.241 -0.2595  0.2660  0.2005
  325BOLB   C2B 7786  14.370   8.693  19.907 -0.0993 -0.1918  0.1416
  325BOLB   C3B 7787  13.971   8.535  19.857 -0.3668 -0.0259 -0.2091
  325BOLB   C4B 7788  13.613   8.801  19.828  0.1753 -0.0809 -0.0352
  325BOLB   NC2 7789  14.094   5.787  17.523 -0.4280 -0.0894  0.2983
  325BOLB   PO2 7790  14.318   5.572  17.790  0.1447  0.0843  0.1872
  325BOLB   GL3 7791  14.322   5.764  18.108 -0.1597 -0.2479  0.2288
  325BOLB   GL4 7792  13.929   5.822  18.015 -0.0231  0.2450  0.4498
  325BOLB   C1C 7793  14.579   6.096  18.362  0.2205  0.0751 -0.2301
  325BOLB   C2C 7794  14.646   6.395  18.746 -0.0492  0.2470  0.2968
  325BOLB   C3C 7795  14.904   6.601  18.776  0.0686 -0.0288 -0.1773
  325BOLB   C4C 7796  15.065   7.013  18.982 -0.2201  0.4416  0.2178
  325BOLB   C1D 7797  14.039   6.188  18.266  0.0453  0.3021  0.1520
  325BOLB   C2D 7798  14.186   6.483  18.455 -0.2952 -0.0947 -0.0680
  325BOLB   C3D 7799  14.326   6.783  18.826 -0.5390  0.0349 -0.0354
  325BOLB   C4D 7800  14.550   7.091  19.010 -0.3965 -0.2224  0.3878
  326BOLB   NC1 7801  19.402  19.093  32.308 -0.1759 -0.0884 -0.0388
  326BOLB   PO1 7802  19.732  18.645  32.458  0.3249  0.1059 -0.1153
  326BOLB   GL1 7803  19.887  19.003  32.544  0.1742 -0.0243  0.0991
  326BOLB   GL2 7804  19.801  19.316  32.518 -0.3676  0.0025 -0.1155
  326BOLB   C1A 7805  20.237  19.234  32.680 -0.1036  0.0163 -0.0865
  326BOLB   C2A 7806  20.437  19.626  32.709 -0.1555  0.2819  0.0135
  326BOLB   C3A 7807  20.831  19.954  32.851 -0.0405  0.1267  0.3006
  326BOLB   C4A 7808  21.147  20.197  32.645 -0.1260  0.0409  0.0430
  326BOLB   C1B 7809  19.852  19.626  32.455 -0.1038 -0.0132 -0.0329
  326BOLB   C2B 7810  20.011  19.955  32.578 -0.0410  0.1033 -0.0752
  326BOLB   C3B 7811  20.324  20.228  32.806  0.0907  0.0102 -0.2962
  326BOLB   C4B 7812  20.677  20.463  32.777 -0.1695  0.2201  0.0201
  326BOLB   NC2 7813  23.324  21.813  32.048  0.3868 -0.0625  0.1029
  326BOLB   PO2 7814  22.897  21.766  32.237 -0.0172 -0.1738 -0.0077
  326BOLB   GL3 7815  22.743  21.324  32.269  0.1928 -0.0256  0.2456
  326BOLB   GL4 7816  22.862  21.048  32.311 -0.0180  0.2199  0.0534
  326BOLB   C1C 7817  22.367  21.023  32.367  0.1084  0.1163 -0.0873
  326BOLB   C2C 7818  21.975  20.908  32.603  0.0423 -0.2774  0.2775
  326BOLB   C3C 7819  21.744  20.617  32.817 -0.1904  0.1264  0.0141
  326BOLB   C4C 7820  21.402  20.551  32.722  0.1081 -0.3012 -0.0046
  326BOLB   C1D 7821  22.647  20.653  32.054 -0.1929 -0.0845 -0.1858
  326BOLB   C2D 7822  22.198  20.561  32.156 -0.0263 -0.2835 -0.2345
  326BOLB   C3D 7823  21.883  20.399  32.374 -0.0736 -0.3186  0.0789
  326BOLB   C4D 7824  21.647  20.038  32.581  0.0317  0.2798 -0.1215
  327BOLB   NC1 7825   8.440  14.225  25.976 -0.0697 -0.1549 -0.3017
  327BOLB   PO1 7826   8.447  13.928  26.294  0.1334  0.1574 -0.0070
  327BOLB   GL1 7827   8.017  13.789  26.213  0.0371  0.0107  0.6458
  327BOLB   GL2 7828   7.937  14.032  26.063 -0.1682  0.2554  0.2117
  327BOLB   C1A 7829   7.532  13.776  26.111 -0.2093  0.4954 -0.0135
  327BOLB   C2A 7830   7.122  13.875  25.882  0.0627  0.0896  0.1965
  327BOLB   C3A 7831   6.670  13.747  25.767  0.0072  0.0379 -0.2938
  327BOLB   C4A 7832   6.472  13.633  25.348  0.1823  0.3285 -0.0369
  327BOLB   C1B 7833   7.552  14.285  25.987  0.5567  0.1148 -0.2322
  327BOLB   C2B 7834   7.172  14.349  25.768 -0.2913  0.3223 -0.1196
  327BOLB   C3B 7835   6.797  14.119  25.483 -0.3155 -0.2507  0.1159
  327BOLB   C4B 7836   6.429  14.093  25.182  0.1082 -0.0894 -0.1800
  327BOLB   NC2 7837   4.450  15.360  24.482 -0.0047  0.0476 -0.0595
  327BOLB   PO2 7838   4.872  15.077  24.539  0.0536  0.1330  0.0271
  327BOLB   GL3 7839   5.225  14.786  24.520  0.0963  0.0125  0.1770
  327BOLB   GL4 7840   5.531  14.829  24.297  0.0396  0.0000  0.0602
  327BOLB   C1C 7841   5.486  14.494  24.680  0.2438 -0.1436  0.1799
  327BOLB   C2C 7842   5.531  14.156  24.879 -0.2369  0.0111 -0.0895
  327BOLB   C3C 7843   5.818  13.886  25.084 -0.3307  0.0985 -0.1093
  327BOLB   C4C 7844   6.163  13.620  25.151  0.2005 -0.0826 -0.1990
  327BOLB   C1D 7845   5.665  15.081  24.569  0.0773 -0.0628 -0.2109
  327BOLB   C2D 7846   5.815  15.269  25.023 -0.2414  0.0516  0.2601
  327BOLB   C3D 7847   5.867  15.390  25.491  0.1142  0.0715 -0.0105
  327BOLB   C4D 7848   5.761  15.885  25.614  0.2264 -0.0186  0.2880
  328BOLB   NC1 7849  14.302  10.204  39.279 -0.1507 -0.3530 -0.0021
  328BOLB   PO1 7850  14.199   9.912  39.725  0.3971 -0.1877  0.0749
  328BOLB   GL1 7851  14.179   9.994  40.130 -0.2858 -0.2146  0.0095
  328BOLB   GL2 7852  14.385   9.727  40.203 -0.0134 -0.0172 -0.1993
  328BOLB   C1A 7853  14.084  10.010  40.482 -0.2751 -0.2841  0.0039
  328BOLB   C2A 7854  13.939   9.810  40.856 -0.0889  0.2409 -0.2190
  328BOLB   C3A 7855  13.655   9.637  41.084 -0.3257 -0.0135 -0.2502
  328BOLB   C4A 7856  13.657   9.339  41.380 -0.2083  0.0398 -0.2161
  328BOLB   C1B 7857  14.259   9.540  40.585  0.0432 -0.0658 -0.1253
  328BOLB   C2B 7858  13.960   9.305  40.740  0.3697 -0.1552 -0.1541
  328BOLB   C3B 7859  13.630   9.139  40.854 -0.0349 -0.0041 -0.1711
  328BOLB   C4B 7860  13.615   8.778  40.940 -0.2707  0.2071 -0.1957
  328BOLB   NC2 7861  12.367   8.562  42.478 -0.3060 -0.0752  0.2312
  328BOLB   PO2 7862  12.335   8.857  42.782  0.1095 -0.4045  0.2580
  328BOLB   GL3 7863  12.460   9.160  42.535 -0.1065  0.0427 -0.0839
  328BOLB   GL4 7864  12.267   9.151  42.276  0.1857  0.0944 -0.4186
  328BOLB   C1C 7865  12.807   9.106  42.185 -0.2982 -0.0574 -0.2640
  328BOLB   C2C 7866  13.129   8.931  42.257  0.1471  0.4394 -0.2565
  328BOLB   C3C 7867  13.545   8.963  42.109 -0.2233  0.0069 -0.0680
  328BOLB   C4C 7868  13.654   9.156  41.729 -0.3570  0.3118  0.0273
  328BOLB   C1D 7869  12.367   9.219  41.945 -0.2154  0.0062 -0.1021
  328BOLB   C2D 7870  12.311   9.252  41.504  0.0501 -0.2937 -0.1515
  328BOLB   C3D 7871  12.436   9.026  41.141  0.2339  0.1526  0.1465
  328BOLB   C4D 7872  12.714   8.782  41.196 -0.0135  0.1835 -0.3169
  329BOLB   NC1 7873  18.692   5.869  23.685  0.1274  0.0199 -0.1662
  329BOLB   PO1 7874  18.784   6.011  23.245 -0.1238 -0.2830  0.2401
  329BOLB   GL1 7875  18.861   5.766  22.947 -0.1424 -0.0039  0.2128
  329BOLB   GL2 7876  19.202   5.770  22.955  0.2468  0.2057  0.1336
  329BOLB   C1A 7877  18.902   5.349  22.896 -0.1953 -0.2439 -0.1023
  329BOLB   C2A 7878  18.976   4.881  22.792  0.0618  0.0735 -0.1210
  329BOLB   C3A 7879  19.325   4.502  22.824  0.0667 -0.1933  0.2245
  329BOLB   C4A 7880  19.408   4.215  22.671 -0.0175  0.0613  0.2735
  329BOLB   C1B 7881  19.431   5.341  22.937  0.3240 -0.1438 -0.1024
  329BOLB   C2B 7882  19.514   4.904  22.656  0.1082 -0.0644  0.2081
  329BOLB   C3B 7883  19.731   4.694  22.363 -0.0813 -0.1837  0.0847
  329BOLB   C4B 7884  20.180   4.549  22.350 -0.0097 -0.0399 -0.2926
  329BOLB   NC2 7885  19.670   2.963  20.196 -0.1774  0.0611  0.3811
  329BOLB   PO2 7886  19.872   3.010  20.520  0.1095  0.0132  0.0183
  329BOLB   GL3 7887  19.749   3.292  20.768 -0.0098 -0.0930  0.1041
  329BOLB   GL4 7888  20.014   3.435  20.804  0.0356  0.0366 -0.3284
  329BOLB   C1C 7889  19.591   3.621  21.109  0.0666 -0.3204 -0.1132
  329BOLB   C2C 7890  19.272   3.711  21.432  0.1098 -0.1111  0.0779
  329BOLB   C3C 7891  19.312   3.869  21.774 -0.0151 -0.0641 -0.1245
  329BOLB   C4C 7892  19.496   3.921  22.283 -0.1123 -0.0213 -0.1814
  329BOLB   C1D 7893  19.988   3.900  20.971  0.0267 -0.4574 -0.4906
  329BOLB   C2D 7894  19.654   4.193  21.101  0.1121 -0.1431  0.0035
  329BOLB   C3D 7895  19.442   4.589  21.175 -0.0484  0.2979 -0.0673
  329BOLB   C4D 7896  19.283   5.001  21.287  0.2255  0.3959  0.2076
  330BOLB   NC1 7897  10.731   9.728  36.060  0.1614 -0.1558  0.0605
  330BOLB   PO1 7898  10.410   9.359  36.115 -0.1128  0.3465 -0.1735
  330BOLB   GL1 7899   9.925   9.077  36.189  0.1518 -0.2673 -0.0323
  330BOLB   GL2 7900   9.901   8.811  36.005 -0.0732  0.4497 -0.0311
  330BOLB   C1A 7901   9.528   9.054  36.447  0.0608  0.0139  0.1190
  330BOLB   C2A 7902   9.145   8.959  36.645  0.0872  0.0370 -0.2020
  330BOLB   C3A 7903   8.999   8.815  37.025 -0.0872  0.0606  0.0655
  330BOLB   C4A 7904   8.929   8.526  37.412 -0.2571 -0.0150 -0.1719
  330BOLB   C1B 7905   9.852   8.595  36.393  0.3011 -0.0894  0.1038
  330BOLB   C2B 7906   9.743   8.309  36.506 -0.2439  0.1449 -0.1246
  330BOLB   C3B 7907   9.831   7.894  36.546  0.3391 -0.0976  0.3141
  330BOLB   C4B 7908   9.589   7.616  36.714  0.0431 -0.1849  0.1932
  330BOLB   NC2 7909   7.934   7.090  39.560 -0.0659  0.1364  0.0641
  330BOLB   PO2 7910   8.262   7.296  39.306 -0.1681  0.0489 -0.1674
  330BOLB   GL3 7911   8.523   7.634  39.287 -0.0045 -0.3460 -0.1698
  330BOLB   GL4 7912   8.493   7.820  39.718  0.2730 -0.0944  0.1840
  330BOLB   C1C 7913   8.697   7.949  39.077 -0.2373  0.1069 -0.0303
  330BOLB   C2C 7914   8.704   8.118  38.677 -0.0254  0.0830 -0.1919
  330BOLB   C3C 7915   8.760   8.295  38.270 -0.0253 -0.0928  0.0758
  330BOLB   C4C 7916   8.921   8.418  37.865 -0.0578  0.3220  0.0074
  330BOLB   C1D 7917   9.009   7.913  39.627  0.3262  0.1280  0.1085
  330BOLB   C2D 7918   9.164   8.028  39.263 -0.0444  0.3178 -0.1973
  330BOLB   C3D 7919   9.231   8.189  38.819  0.1113  0.2317  0.1880
  330BOLB   C4D 7920   9.242   8.078  38.414 -0.4348 -0.0332 -0.0986
  331BOLB   NC1 7921  14.666   4.318  28.334  0.0321  0.0163 -0.1321
  331BOLB   PO1 7922  14.306   4.254  28.522  0.0400 -0.2630  0.1524
  331BOLB   GL1 7923  13.948   3.992  28.515  0.1070  0.2938 -0.3681
  331BOLB   GL2 7924  14.079   3.791  28.466  0.3839 -0.1859 -0.0900
  331BOLB   C1A 7925  13.581   3.843  28.777  0.0730  0.1872 -0.0207
  331BOLB   C2A 7926  13.315   3.569  28.931 -0.0992 -0.1880  0.4240
  331BOLB   C3A 7927  13.170   3.207  28.793 -0.0568 -0.2115 -0.2355
  331BOLB   C4A 7928  12.956   2.921  28.595 -0.1697 -0.0010 -0.0596
  331BOLB   C1B 7929  13.907   3.461  28.746  0.2000  0.4663 -0.3243
  331BOLB   C2B 7930  14.001   3.120  29.078 -0.1109 -0.2668 -0.3591
  331BOLB   C3B 7931  14.005   2.719  29.110  0.1903  0.0017 -0.0222
  331BOLB   C4B 7932  14.078   2.182  29.014  0.2249 -0.0280  0.0556
  331BOLB   NC2 7933  11.756   1.076  28.796  0.3037  0.0449  0.2415
  331BOLB   PO2 7934  11.292   1.048  28.935 -0.0820 -0.2308 -0.1725
  331BOLB   GL3 7935  11.434   1.492  28.802 -0.3059 -0.0021  0.1500
  331BOLB   GL4 7936  11.488   1.631  28.487  0.0549 -0.2164  0.0192
  331BOLB   C1C 7937  11.818   1.779  28.858  0.3048  0.1753 -0.0680
  331BOLB   C2C 7938  12.117   1.840  28.691  0.2876  0.0847  0.1479
  331BOLB   C3C 7939  12.431   2.171  28.671 -0.0789  0.3353  0.0031
  331BOLB   C4C 7940  12.639   2.607  28.717 -0.0026 -0.0034 -0.0417
  331BOLB   C1D 7941  11.696   2.009  28.444  0.0489 -0.1221 -0.0501
  331BOLB   C2D 7942  11.753   2.321  28.744 -0.0207 -0.2466  0.0325
  331BOLB   C3D 7943  11.958   2.507  29.006  0.0215  0.0576 -0.1179
  331BOLB   C4D 7944  12.096   2.536  29.438  0.0619 -0.2571 -0.1461
  332BOLB   NC1 7945   8.711  17.823  28.317  0.1498 -0.1497  0.2420
  332BOLB   PO1 7946   8.640  17.721  28.818  0.2234 -0.4561  0.1277
  332BOLB   GL1 7947   8.482  18.133  28.880  0.0322  0.0605  0.0945
  332BOLB   GL2 7948   8.281  18.263  29.159  0.0582  0.0888 -0.1910
  332BOLB   C1A 7949   8.195  18.525  28.700  0.0216 -0.1872 -0.2595
  332BOLB   C2A 7950   7.977  18.789  28.512  0.1010  0.0993 -0.2283
  332BOLB   C3A 7951   7.456  18.892  28.375  0.1271 -0.2501 -0.1978
  332BOLB   C4A 7952   7.010  19.081  28.284  0.2506 -0.0810 -0.0268
  332BOLB   C1B 7953   7.842  18.266  28.957 -0.0094  0.1363  0.0932
  332BOLB   C2B 7954   7.595  18.549  28.825 -0.2229  0.0018 -0.2535
  332BOLB   C3B 7955   7.594  19.003  28.925 -0.0490  0.0470  0.1832
  332BOLB   C4B 7956   7.642  19.520  28.933  0.1919  0.0581 -0.0386
  332BOLB   NC2 7957   5.164  19.550  26.393 -0.1998 -0.2800 -0.1143
  332BOLB   PO2 7958   5.237  19.993  26.645 -0.1577 -0.1769 -0.3618
  332BOLB   GL3 7959   5.464  19.668  26.887 -0.1967  0.2107  0.1566
  332BOLB   GL4 7960   5.303  19.317  26.923  0.2423 -0.1186  0.0463
  332BOLB   C1C 7961   5.784  19.611  27.214  0.2027  0.1206 -0.0781
  332BOLB   C2C 7962   6.111  19.338  27.523  0.4266 -0.1708 -0.0503
  332BOLB   C3C 7963   6.454  19.014  27.681 -0.1174  0.1741 -0.3411
  332BOLB   C4C 7964   6.773  19.038  27.921  0.1988  0.0407 -0.0904
  332BOLB   C1D 7965   5.574  19.113  27.151  0.2061  0.4870 -0.2389
  332BOLB   C2D 7966   6.037  18.984  27.133  0.0414  0.3671 -0.0359
  332BOLB   C3D 7967   6.219  18.732  26.931 -0.4661  0.1135 -0.0700
  332BOLB   C4D 7968   6.400  18.359  26.958 -0.0452 -0.0365  0.1239
  333BOLB   NC1 7969  11.752   5.466  27.148 -0.2611  0.1504 -0.1913
  333BOLB   PO1 7970  11.521   5.773  27.436 -0.1147  0.2372  0.2346
  333BOLB   GL1 7971  11.258   5.390  27.292 -0.0089 -0.1153  0.3258
  333BOLB   GL2 7972  11.103   5.301  27.494 -0.4215 -0.1162 -0.1951
  333BOLB   C1A 7973  11.259   4.995  27.121  0.1854 -0.0806 -0.0225
  333BOLB   C2A 7974  11.304   4.783  26.850 -0.0630  0.1921  0.0967
  333BOLB   C3A 7975  11.084   4.567  26.489  0.0653  0.1382  0.1844
  333BOLB   C4A 7976  10.692   4.486  26.301  0.2382  0.0162  0.1665
  333BOLB   C1B 7977  11.128   4.847  27.556 -0.1785 -0.0516  0.1593
  333BOLB   C2B 7978  10.947   4.445  27.673  0.1160 -0.0538  0.1030
  333BOLB   C3B 7979  10.708   4.228  27.805  0.3419 -0.2994 -0.1219
  333BOLB   C4B 7980  10.619   3.752  28.019 -0.0587 -0.1972  0.1638
  333BOLB   NC2 7981   9.112   3.228  25.267 -0.1344  0.1699 -0.1828
  333BOLB   PO2 7982   8.782   3.168  25.463  0.0280  0.2304  0.0343
  333BOLB   GL3 7983   8.997   3.457  25.660  0.1124 -0.1381 -0.1281
  333BOLB   GL4 7984   9.111   3.345  25.972 -0.2012  0.0577 -0.0572
  333BOLB   C1C 7985   9.390   3.712  25.750  0.0291  0.1598 -0.2771
  333BOLB   C2C 7986   9.760   3.984  25.705  0.0795 -0.1303  0.0721
  333BOLB   C3C 7987  10.018   4.276  25.845 -0.1739 -0.0404 -0.0772
  333BOLB   C4C 7988  10.435   4.384  25.942  0.0093  0.1597 -0.1384
  333BOLB   C1D 7989   9.463   3.414  26.251 -0.0279 -0.0369  0.2154
  333BOLB   C2D 7990   9.762   3.772  26.241 -0.2318  0.0173 -0.2547
  333BOLB   C3D 7991   9.941   4.082  26.360 -0.2574 -0.4046  0.2221
  333BOLB   C4D 7992  10.112   4.350  26.455 -0.3970 -0.2142 -0.1474
  334BOLB   NC1 7993   8.458  16.889  34.058  0.3328 -0.1300  0.0857
  334BOLB   PO1 7994   7.998  17.064  33.974  0.3093  0.0967  0.1774
  334BOLB   GL1 7995   7.594  17.073  33.861 -0.0394  0.0095 -0.3493
  334BOLB   GL2 7996   7.587  17.161  34.250  0.4876  0.1711 -0.0430
  334BOLB   C1A 7997   7.158  17.167  33.828  0.2904 -0.0125 -0.2410
  334BOLB   C2A 7998   6.795  17.433  33.849 -0.1546 -0.1253 -0.1238
  334BOLB   C3A 7999   6.392  17.342  33.725 -0.0306 -0.0405 -0.1321
  334BOLB   C4A 8000   5.954  17.409  33.551  0.2521  0.2211 -0.1827
  334BOLB   C1B 8001   7.662  17.561  34.262 -0.3016 -0.1501  0.0425
  334BOLB   C2B 8002   7.822  17.787  34.562 -0.1175 -0.2754  0.5788
  334BOLB   C3B 8003   7.759  17.916  34.918 -0.0639  0.1764 -0.2445
  334BOLB   C4B 8004   7.586  17.733  35.217 -0.0363  0.3000 -0.0814
  334BOLB   NC2 8005   4.261  18.202  32.548  0.0892 -0.0292  0.0674
  334BOLB   PO2 8006   4.084  18.332  32.867  0.2949 -0.2015  0.0912
  334BOLB   GL3 8007   4.463  18.314  33.053 -0.4186  0.0767 -0.0532
  334BOLB   GL4 8008   4.667  18.085  32.856 -0.1254 -0.1525  0.0374
  334BOLB   C1C 8009   4.812  18.547  33.111  0.0507  0.1255 -0.1423
  334BOLB   C2C 8010   5.221  18.454  33.358  0.2189 -0.1207 -0.0859
  334BOLB   C3C 8011   5.481  18.116  33.230 -0.1046 -0.1696  0.3138
  334BOLB   C4C 8012   5.655  17.683  33.239  0.0459  0.2423  0.0148
  334BOLB   C1D 8013   5.090  18.188  32.818  0.3908  0.0018  0.1655
  334BOLB   C2D 8014   5.587  18.144  32.721 -0.2528 -0.0562 -0.3034
  334BOLB   C3D 8015   5.972  17.945  32.922 -0.5042 -0.2423  0.0209
  334BOLB   C4D 8016   6.383  18.181  33.018 -0.1702  0.0657 -0.0583
  335BOLB   NC1 8017   9.599   8.500  41.360  0.1415 -0.0034 -0.0826
  335BOLB   PO1 8018   9.851   8.513  41.771  0.2492  0.0163 -0.0861
  335BOLB   GL1 8019  10.137   8.525  41.466  0.2709  0.2149  0.0655
  335BOLB   GL2 8020   9.997   8.237  41.360  0.2576  0.0461 -0.2926
  335BOLB   C1A 8021  10.403   8.760  41.227 -0.1024  0.1041  0.0773
  335BOLB   C2A 8022  10.477   9.039  40.902  0.2990 -0.0729 -0.1394
  335BOLB   C3A 8023  10.692   8.982  40.561  0.2995 -0.1716  0.1524
  335BOLB   C4A 8024  11.110   9.259  40.374  0.0157 -0.1425 -0.2002
  335BOLB   C1B 8025  10.147   8.385  41.012 -0.3468  0.2578  0.2444
  335BOLB   C2B 8026  10.380   8.576  40.648 -0.1156  0.1104  0.0461
  335BOLB   C3B 8027  10.196   8.611  40.198  0.0146  0.1723 -0.0471
  335BOLB   C4B 8028   9.985   8.938  39.982  0.0326  0.0575  0.4160
  335BOLB   NC2 8029  10.096   8.153  41.980 -0.2695  0.0914  0.0902
  335BOLB   PO2 8030  10.196   7.909  41.671  0.2481  0.1777 -0.2072
  335BOLB   GL3 8031  10.527   8.088  41.575  0.1549 -0.2395  0.1966
  335BOLB   GL4 8032  10.536   8.375  41.774 -0.0255 -0.4075 -0.2326
  335BOLB   C1C 8033  10.608   8.263  41.186  0.0958  0.0632  0.0777
  335BOLB   C2C 8034  10.852   8.672  41.030  0.3804 -0.1010 -0.0247
  335BOLB   C3C 8035  11.226   8.910  40.949 -0.1364 -0.1367 -0.2734
  335BOLB   C4C 8036  11.415   9.130  40.682  0.0345  0.0955 -0.1423
  335BOLB   C1D 8037  10.819   8.717  41.514 -0.0822  0.3828 -0.0873
  335BOLB   C2D 8038  10.780   9.141  41.419 -0.0670 -0.1204 -0.1140
  335BOLB   C3D 8039  10.510   9.410  41.382 -0.1311 -0.0997  0.1678
  335BOLB   C4D 8040  10.159   9.614  41.154  0.1982  0.1148 -0.0533
  336BOLB   NC1 8041  15.114  20.868  31.318 -0.1097 -0.1346 -0.0700
  336BOLB   PO1 8042  15.552  20.960  31.275  0.1463  0.1835  0.1833
  336BOLB   GL1 8043  15.768  21.271  31.276 -0.0816 -0.3010  0.4309
  336BOLB   GL2 8044  16.024  21.337  30.957 -0.1937  0.2574  0.1709
  336BOLB   C1A 8045  15.577  21.675  31.205 -0.2739 -0.0387 -0.1769
  336BOLB   C2A 8046  15.461  22.007  31.532  0.0674  0.4776  0.0794
  336BOLB   C3A 8047  15.421  22.437  31.572 -0.0010  0.0259 -0.1440
  336BOLB   C4A 8048  15.440  22.842  31.802 -0.0558 -0.1586  0.1179
  336BOLB   C1B 8049  16.015  21.777  30.908  0.0014  0.1843 -0.2004
  336BOLB   C2B 8050  15.782  22.179  31.044 -0.2351  0.2342 -0.0278
  336BOLB   C3B 8051  15.869  22.375  31.362  0.0058  0.0964 -0.1617
  336BOLB   C4B 8052  15.994  22.712  31.624 -0.0016 -0.2249  0.1991
  336BOLB   NC2 8053  15.721  25.030  32.896  0.0613  0.0008 -0.0094
  336BOLB   PO2 8054  16.104  24.888  33.088 -0.2317 -0.0790  0.0886
  336BOLB   GL3 8055  16.035  24.541  33.093 -0.4372  0.0610  0.1313
  336BOLB   GL4 8056  16.240  24.299  33.151  0.0925 -0.0288 -0.1290
  336BOLB   C1C 8057  16.125  24.143  32.727  0.2418 -0.0045  0.2027
  336BOLB   C2C 8058  15.999  23.733  32.470 -0.3099  0.1203  0.3044
  336BOLB   C3C 8059  15.835  23.547  32.172  0.6889 -0.1080  0.1494
  336BOLB   C4C 8060  15.530  23.344  31.848 -0.1592  0.0248 -0.1734
  336BOLB   C1D 8061  16.156  23.778  33.101 -0.0778  0.4723 -0.0934
  336BOLB   C2D 8062  15.784  23.383  33.178 -0.0834  0.1103  0.1384
  336BOLB   C3D 8063  15.870  22.959  33.202  0.3479 -0.1259  0.2020
  336BOLB   C4D 8064  15.966  22.562  33.118 -0.0326  0.4238  0.1517
  337BOLB   NC1 8065  17.649  14.373  39.225 -0.0199  0.2289 -0.0712
  337BOLB   PO1 8066  17.602  13.970  39.209 -0.0982 -0.1945  0.1699
  337BOLB   GL1 8067  17.863  14.077  39.643  0.1678  0.1829  0.0582
  337BOLB   GL2 8068  18.190  13.986  39.733  0.1565  0.0359 -0.1802
  337BOLB   C1A 8069  17.885  13.975  40.092  0.3053 -0.3276  0.1406
  337BOLB   C2A 8070  18.104  14.031  40.458  0.2149 -0.0008  0.1487
  337BOLB   C3A 8071  18.212  13.761  40.749 -0.0024  0.2155  0.4425
  337BOLB   C4A 8072  18.179  13.546  41.116 -0.0795 -0.2816  0.2366
  337BOLB   C1B 8073  18.264  14.286  39.926  0.0108 -0.1033  0.1082
  337BOLB   C2B 8074  18.455  14.536  40.058 -0.1693  0.0499  0.0712
  337BOLB   C3B 8075  18.686  14.592  40.363  0.0860  0.0809 -0.1029
  337BOLB   C4B 8076  19.044  15.016  40.324  0.1675 -0.0355  0.1785
  337BOLB   NC2 8077  18.363  14.138  43.383  0.0925 -0.1416 -0.2760
  337BOLB   PO2 8078  18.080  13.768  43.649 -0.2662 -0.0884 -0.4285
  337BOLB   GL3 8079  17.973  13.701  43.294  0.3005  0.2402  0.0856
  337BOLB   GL4 8080  17.887  14.039  43.094  0.5925 -0.4388  0.0162
  337BOLB   C1C 8081  17.929  13.473  42.877  0.3048  0.0938 -0.2409
  337BOLB   C2C 8082  17.946  13.429  42.327 -0.0142 -0.0817 -0.0777
  337BOLB   C3C 8083  17.984  13.360  41.967 -0.1264  0.1681  0.4053
  337BOLB   C4C 8084  18.008  13.388  41.482 -0.3073  0.0469  0.5418
  337BOLB   C1D 8085  17.733  14.042  42.631  0.2567  0.2043  0.2298
  337BOLB   C2D 8086  17.726  13.956  42.254  0.3966 -0.1753 -0.1049
  337BOLB   C3D 8087  17.638  13.842  41.803  0.0698 -0.2739 -0.0450
  337BOLB   C4D 8088  17.499  13.857  41.368 -0.2729 -0.2205  0.0444
  338BOLB   NC1 8089  18.659   3.838  19.026  0.0374 -0.3448  0.3836
  338BOLB   PO1 8090  18.299   4.018  18.836  0.3265  0.3020 -0.0409
  338BOLB   GL1 8091  18.273   4.157  19.216 -0.0091 -0.0902  0.0566
  338BOLB   GL2 8092  18.229   3.964  19.517 -0.0790 -0.1910  0.1086
  338BOLB   C1A 8093  18.417   4.462  19.499  0.3343  0.1731  0.2909
  338BOLB   C2A 8094  18.492   4.899  19.637  0.0858  0.0620 -0.2292
  338BOLB   C3A 8095  18.408   5.133  19.208  0.4509 -0.0230  0.0685
  338BOLB   C4A 8096  18.528   5.163  18.827 -0.0325 -0.3602 -0.6106
  338BOLB   C1B 8097  17.772   3.883  19.862  0.0723  0.0872  0.0095
  338BOLB   C2B 8098  17.638   4.065  20.272  0.1843 -0.1618 -0.1776
  338BOLB   C3B 8099  17.751   4.372  20.552  0.2207  0.0760 -0.2665
  338BOLB   C4B 8100  17.427   4.703  20.632 -0.0452 -0.4513 -0.3818
  338BOLB   NC2 8101  16.479   4.203  18.114  0.0712  0.0757  0.3912
  338BOLB   PO2 8102  16.613   4.700  17.893 -0.0478 -0.0862  0.2075
  338BOLB   GL3 8103  16.771   4.674  18.354  0.3778 -0.0577 -0.1411
  338BOLB   GL4 8104  16.428   4.674  18.556 -0.1068  0.1161  0.1154
  338BOLB   C1C 8105  16.966   4.991  18.543  0.1998  0.1301  0.1119
  338BOLB   C2C 8106  17.359   5.227  18.492 -0.1709 -0.0871 -0.1160
  338BOLB   C3C 8107  17.752   5.205  18.463  0.1850 -0.0543  0.1756
  338BOLB   C4C 8108  18.236   5.265  18.498 -0.2546  0.1373  0.3441
  338BOLB   C1D 8109  16.374   5.132  18.748  0.3376  0.0857 -0.0455
  338BOLB   C2D 8110  16.420   5.472  18.935 -0.1136 -0.3876 -0.0472
  338BOLB   C3D 8111  16.548   5.867  18.926 -0.0057  0.3180  0.0515
  338BOLB   C4D 8112  16.509   6.276  18.914  0.0869 -0.2392 -0.2852
  339BOLB   NC1 8113  15.663   7.747  21.461 -0.0284  0.0040 -0.0992
  339BOLB   PO1 8114  15.526   8.052  21.281  0.1046  0.1769 -0.1877
  339BOLB   GL1 8115  15.581   7.922  20.906  0.1113  0.0988 -0.0161
  339BOLB   GL2 8116  15.839   7.986  20.801 -0.0019  0.5355  0.3933
  339BOLB   C1A 8117  15.358   7.726  20.576  0.0716  0.0180  0.0957
  339BOLB   C2A 8118  15.224   7.438  20.181  0.3691 -0.1907 -0.1676
  339BOLB   C3A 8119  15.378   7.399  19.779 -0.2021 -0.0598  0.1014
  339BOLB   C4A 8120  15.574   7.178  19.499 -0.0724  0.3556 -0.2566
  339BOLB   C1B 8121  15.838   7.603  20.472 -0.1180  0.2412  0.1871
  339BOLB   C2B 8122  15.750   7.327  20.092 -0.1790  0.3943  0.0730
  339BOLB   C3B 8123  15.926   7.003  19.814  0.2141 -0.0352  0.0725
  339BOLB   C4B 8124  16.049   6.934  19.425  0.2568 -0.1464 -0.1703
  339BOLB   NC2 8125  14.662   5.196  18.196  0.1204 -0.1369 -0.0699
  339BOLB   PO2 8126  14.798   5.412  17.885  0.2652  0.1357 -0.0193
  339BOLB   GL3 8127  14.869   5.755  18.161 -0.0229  0.1365 -0.1176
  339BOLB   GL4 8128  14.810   5.663  18.493 -0.0670 -0.1161 -0.1522
  339BOLB   C1C 8129  15.200   5.914  18.370 -0.1474 -0.0617  0.2274
  339BOLB   C2C 8130  15.267   6.273  18.558  0.1340  0.2346 -0.4390
  339BOLB   C3C 8131  15.443   6.565  18.899  0.1213  0.1145  0.2771
  339BOLB   C4C 8132  15.576   7.020  19.046  0.2294 -0.0781 -0.0546
  339BOLB   C1D 8133  14.413   5.721  18.724 -0.0958 -0.2315 -0.0433
  339BOLB   C2D 8134  14.220   6.052  18.807 -0.0646 -0.1193  0.2515
  339BOLB   C3D 8135  14.179   6.334  19.178  0.0230 -0.0950 -0.0839
  339BOLB   C4D 8136  14.326   6.788  19.333 -0.1099  0.1202  0.3670
  340BOLB   NC1 8137  17.848   4.585  30.886 -0.1402 -0.0029  0.1823
  340BOLB   PO1 8138  17.695   4.423  31.207 -0.3301  0.0936 -0.0610
  340BOLB   GL1 8139  17.880   3.957  31.434  0.2185 -0.0012 -0.4538
  340BOLB   GL2 8140  17.915   3.774  31.188  0.3763  0.2184  0.0344
  340BOLB   C1A 8141  18.061   3.622  31.655 -0.4767 -0.1512 -0.0360
  340BOLB   C2A 8142  18.010   3.280  31.817 -0.0992 -0.1327 -0.1199
  340BOLB   C3A 8143  17.968   3.008  32.203  0.0528  0.0331  0.1897
  340BOLB   C4A 8144  17.898   2.680  32.509 -0.1088 -0.1190  0.1626
  340BOLB   C1B 8145  18.058   3.307  31.289 -0.1453  0.0215 -0.0661
  340BOLB   C2B 8146  17.933   2.911  31.501 -0.0470 -0.0844 -0.0381
  340BOLB   C3B 8147  17.895   2.637  31.872 -0.1189 -0.0526 -0.2085
  340BOLB   C4B 8148  18.203   2.415  32.086  0.2802 -0.2704  0.1693
  340BOLB   NC2 8149  17.815  27.020  32.929 -0.0872 -0.2491 -0.2415
  340BOLB   PO2 8150  17.755   0.311  33.180  0.0446  0.2525  0.0077
  340BOLB   GL3 8151  17.697   0.689  33.150  0.0860 -0.0784 -0.0936
  340BOLB   GL4 8152  17.476   0.814  32.840  0.1921  0.1298 -0.1903
  340BOLB   C1C 8153  17.850   1.133  33.250  0.1596 -0.1787  0.1728
  340BOLB   C2C 8154  17.739   1.612  33.204 -0.1416  0.0861  0.0069
  340BOLB   C3C 8155  17.890   2.013  32.899  0.0295 -0.0523 -0.2044
  340BOLB   C4C 8156  17.917   2.421  32.824  0.0552 -0.2551 -0.3452
  340BOLB   C1D 8157  17.426   1.313  32.921 -0.1626  0.0506 -0.0191
  340BOLB   C2D 8158  17.423   1.760  32.819  0.0003  0.2693  0.1021
  340BOLB   C3D 8159  17.321   2.133  32.688 -0.3119  0.0628  0.4733
  340BOLB   C4D 8160  17.414   2.576  32.656 -0.2546 -0.0607 -0.2763
  341BOLB   NC1 8161  11.353  19.552  34.860 -0.1769  0.0996 -0.1665
  341BOLB   PO1 8162  11.825  19.336  34.984  0.3900 -0.0319  0.1793
  341BOLB   GL1 8163  11.845  19.781  35.163 -0.0580 -0.0814  0.2097
  341BOLB   GL2 8164  11.555  19.936  35.053  0.0930 -0.1846  0.3214
  341BOLB   C1A 8165  11.929  20.130  35.357 -0.1411  0.3725  0.0317
  341BOLB   C2A 8166  11.869  20.507  35.496 -0.0936 -0.2382 -0.2519
  341BOLB   C3A 8167  11.573  20.810  35.459  0.1938 -0.0466  0.0934
  341BOLB   C4A 8168  11.244  20.930  35.629  0.0281  0.0143 -0.2228
  341BOLB   C1B 8169  11.613  20.349  35.106 -0.2796 -0.0039  0.0762
  341BOLB   C2B 8170  11.642  20.736  34.950  0.0441 -0.2074 -0.3256
  341BOLB   C3B 8171  11.714  21.174  35.027 -0.0846 -0.0581 -0.0727
  341BOLB   C4B 8172  11.683  21.548  34.834  0.1970  0.1789 -0.0004
  341BOLB   NC2 8173  10.193  22.896  37.145 -0.0437  0.1744  0.0269
  341BOLB   PO2 8174   9.824  22.834  36.766  0.0691 -0.2396  0.1191
  341BOLB   GL3 8175   9.928  22.327  36.574  0.3567 -0.1653 -0.1210
  341BOLB   GL4 8176   9.757  22.185  36.711 -0.1510 -0.0705 -0.0135
  341BOLB   C1C 8177  10.147  22.123  36.151  0.2041  0.0932 -0.0378
  341BOLB   C2C 8178  10.320  21.619  36.150  0.2909 -0.3194 -0.0140
  341BOLB   C3C 8179  10.703  21.384  36.102  0.1693  0.2608  0.2937
  341BOLB   C4C 8180  10.922  21.277  35.722 -0.1938 -0.1227 -0.0968
  341BOLB   C1D 8181  10.299  21.989  36.579 -0.2149 -0.0719  0.0889
  341BOLB   C2D 8182  10.663  22.035  36.346 -0.1783 -0.1602  0.0063
  341BOLB   C3D 8183  10.847  21.940  36.006  0.1717  0.1007  0.2553
  341BOLB   C4D 8184  10.985  21.794  35.617 -0.0436  0.0153  0.1669
  342BOLB   NC1 8185  17.554   7.788  37.705 -0.0133  0.0756 -0.2537
  342BOLB   PO1 8186  17.595   7.753  38.212  0.1087 -0.0260 -0.2558
  342BOLB   GL1 8187  17.677   7.403  38.394 -0.3413 -0.0415 -0.2192
  342BOLB   GL2 8188  17.728   7.574  38.637 -0.1530 -0.0511  0.0679
  342BOLB   C1A 8189  17.952   7.128  38.679  0.0452  0.0824  0.1170
  342BOLB   C2A 8190  17.982   6.959  39.048  0.2979 -0.0860  0.0096
  342BOLB   C3A 8191  17.998   6.728  39.342  0.0155 -0.0887 -0.3683
  342BOLB   C4A 8192  18.000   6.306  39.497  0.1985  0.4166 -0.1010
  342BOLB   C1B 8193  18.031   7.535  39.059 -0.1133  0.0289 -0.2435
  342BOLB   C2B 8194  18.142   7.309  39.450 -0.2715  0.2159  0.1868
  342BOLB   C3B 8195  18.027   7.032  39.772 -0.0274 -0.0137 -0.0287
  342BOLB   C4B 8196  18.295   6.559  39.950  0.0658 -0.1222 -0.2127
  342BOLB   NC2 8197  19.201   4.821  41.192  0.1906 -0.2044  0.2246
  342BOLB   PO2 8198  19.313   4.579  40.972 -0.0552  0.0702  0.0248
  342BOLB   GL3 8199  18.877   4.889  40.858  0.2052  0.1288 -0.1695
  342BOLB   GL4 8200  18.543   4.718  40.963  0.1302  0.0275 -0.1729
  342BOLB   C1C 8201  18.812   4.930  40.429  0.0275 -0.1287  0.1839
  342BOLB   C2C 8202  18.654   5.353  40.272 -0.0591  0.1612  0.2735
  342BOLB   C3C 8203  18.416   5.681  40.056  0.0187  0.2153 -0.0217
  342BOLB   C4C 8204  18.269   6.067  39.712  0.2149  0.3949 -0.2833
  342BOLB   C1D 8205  18.326   5.116  40.728  0.0119 -0.1177  0.2841
  342BOLB   C2D 8206  18.149   5.462  40.483  0.1167  0.0841  0.3636
  342BOLB   C3D 8207  18.107   5.857  40.360 -0.1948  0.0713  0.2297
  342BOLB   C4D 8208  18.028   6.209  40.134  0.1472  0.1648  0.0262
  343BOLB   NC1 8209  17.839  19.852  33.836  0.3413  0.1372  0.1353
  343BOLB   PO1 8210  17.955  19.789  33.430  0.0259  0.0578  0.3092
  343BOLB   GL1 8211  18.214  20.064  33.339  0.2276 -0.0884 -0.0242
  343BOLB   GL2 8212  18.070  20.309  33.526 -0.0889 -0.0372  0.1505
  343BOLB   C1A 8213  18.522  20.255  33.310  0.0995 -0.2565 -0.0722
  343BOLB   C2A 8214  18.968  20.459  33.401 -0.1596  0.0176 -0.1469
  343BOLB   C3A 8215  19.219  20.780  33.520  0.0499 -0.2797 -0.1835
  343BOLB   C4A 8216  19.593  20.986  33.258  0.3833  0.0230 -0.1329
  343BOLB   C1B 8217  18.366  20.555  33.686 -0.1839 -0.0644  0.2179
  343BOLB   C2B 8218  18.698  20.853  33.531  0.1529  0.1194  0.0146
  343BOLB   C3B 8219  18.927  21.286  33.620  0.0110 -0.0805  0.1637
  343BOLB   C4B 8220  19.158  21.692  33.550 -0.1177  0.1171  0.2309
  343BOLB   NC2 8221  21.649  22.745  32.931  0.1072 -0.1131  0.2235
  343BOLB   PO2 8222  21.478  22.715  33.341  0.2917 -0.1622  0.0372
  343BOLB   GL3 8223  21.211  22.430  33.296 -0.1347 -0.3092  0.1698
  343BOLB   GL4 8224  21.033  22.451  33.010  0.1017  0.1894  0.1968
  343BOLB   C1C 8225  20.917  22.111  33.415 -0.2476 -0.0536  0.3934
  343BOLB   C2C 8226  20.613  21.787  33.446  0.1444  0.2185 -0.2576
  343BOLB   C3C 8227  20.419  21.342  33.438  0.0009  0.0658  0.3842
  343BOLB   C4C 8228  20.008  21.179  33.207  0.0567 -0.1070  0.0063
  343BOLB   C1D 8229  20.805  22.168  32.633  0.5426  0.0608  0.2211
  343BOLB   C2D 8230  20.550  21.713  32.583 -0.0216 -0.0212  0.0961
  343BOLB   C3D 8231  20.289  21.398  32.429  0.2034  0.0730  0.3490
  343BOLB   C4D 8232  20.005  21.153  32.676  0.0826 -0.1467  0.1403
  344BOLB   NC1 8233  21.813   6.035  26.586 -0.1181  0.0799  0.0593
  344BOLB   PO1 8234  21.611   6.164  26.259  0.4101  0.4177  0.4428
  344BOLB   GL1 8235  21.734   5.873  25.947  0.1774 -0.2460  0.1829
  344BOLB   GL2 8236  21.531   5.895  25.647 -0.1380 -0.1289 -0.4372
  344BOLB   C1A 8237  22.128   5.732  25.777  0.3621 -0.1527 -0.1515
  344BOLB   C2A 8238  22.379   5.638  25.942 -0.2714  0.0259 -0.0620
  344BOLB   C3A 8239  22.801   5.336  25.846  0.1855 -0.1157 -0.0615
  344BOLB   C4A 8240  23.179   5.306  25.536 -0.0451  0.0481  0.2102
  344BOLB   C1B 8241  21.857   5.812  25.357  0.2910 -0.1080 -0.1443
  344BOLB   C2B 8242  22.095   5.462  25.398  0.1493  0.4852 -0.1479
  344BOLB   C3B 8243  22.377   5.257  25.659 -0.2470 -0.1853  0.0238
  344BOLB   C4B 8244  22.751   4.862  25.626  0.1115 -0.1371 -0.3205
  344BOLB   NC2 8245  23.700   3.241  24.802 -0.0831  0.1881  0.2296
  344BOLB   PO2 8246  23.430   2.841  24.799  0.0537 -0.0134 -0.0638
  344BOLB   GL3 8247  23.253   3.191  25.000 -0.1230  0.2590 -0.2085
  344BOLB   GL4 8248  23.081   3.453  24.928  0.1023 -0.0760  0.2803
  344BOLB   C1C 8249  23.311   3.557  25.384 -0.2026  0.1187 -0.0287
  344BOLB   C2C 8250  23.382   3.987  25.240  0.0246  0.0571 -0.1503
  344BOLB   C3C 8251  23.223   4.421  25.206  0.1106 -0.0174 -0.1136
  344BOLB   C4C 8252  23.015   4.902  25.190 -0.1115  0.0435 -0.0006
  344BOLB   C1D 8253  22.608   3.531  24.904  0.1462 -0.1356 -0.1121
  344BOLB   C2D 8254  22.170   3.894  24.949  0.2529 -0.0577 -0.0999
  344BOLB   C3D 8255  21.787   4.093  24.788  0.0072  0.0331  0.0163
  344BOLB   C4D 8256  21.608   4.510  24.806  0.1329  0.1052 -0.1832
  345BOLB   NC1 8257  13.525   5.995  35.797  0.1732  0.5007 -0.1070
  345BOLB   PO1 8258  13.813   5.789  36.009  0.0248  0.0372  0.3427
  345BOLB   GL1 8259  13.995   5.476  36.278  0.1199  0.2189 -0.2231
  345BOLB   GL2 8260  13.694   5.363  36.370  0.1121  0.0489 -0.0160
  345BOLB   C1A 8261  14.178   5.183  36.393  0.0446 -0.0852 -0.0439
  345BOLB   C2A 8262  14.294   4.794  36.615  0.5635  0.0795 -0.1741
  345BOLB   C3A 8263  14.021   4.524  36.866 -0.1575 -0.0805 -0.1058
  345BOLB   C4A 8264  13.612   4.478  36.957  0.0514 -0.5806  0.1058
  345BOLB   C1B 8265  13.581   5.082  36.132 -0.1070  0.0149 -0.2043
  345BOLB   C2B 8266  13.110   4.819  35.976 -0.1018  0.0179 -0.3453
  345BOLB   C3B 8267  12.731   4.907  36.050 -0.1425  0.2157  0.0111
  345BOLB   C4B 8268  12.265   4.875  36.352 -0.1416  0.0291  0.0788
  345BOLB   NC2 8269  12.700   2.760  37.937 -0.2774 -0.0768 -0.2154
  345BOLB   PO2 8270  12.372   2.730  37.599 -0.0654 -0.1338 -0.1081
  345BOLB   GL3 8271  12.683   3.077  37.353 -0.2179 -0.1803 -0.4531
  345BOLB   GL4 8272  12.887   3.245  37.453  0.0311  0.0994  0.0788
  345BOLB   C1C 8273  12.677   3.311  37.016 -0.3853 -0.2849 -0.1435
  345BOLB   C2C 8274  12.808   3.680  36.795 -0.1569 -0.3073 -0.3062
  345BOLB   C3C 8275  12.806   4.082  36.667  0.0285 -0.1907  0.0992
  345BOLB   C4C 8276  13.228   4.180  36.802 -0.1993 -0.0664  0.1966
  345BOLB   C1D 8277  12.957   3.676  37.312  0.0053 -0.0034 -0.0435
  345BOLB   C2D 8278  12.915   3.984  37.164  0.0677 -0.2428  0.0933
  345BOLB   C3D 8279  12.725   4.405  37.036 -0.1660  0.1470 -0.3270
  345BOLB   C4D 8280  12.671   4.734  36.690  0.2432 -0.1271 -0.1094
  346BOLB   NC1 8281  17.004  19.982  24.741  0.0545 -0.0176  0.1940
  346BOLB   PO1 8282  16.657  20.073  25.091  0.0526  0.3310  0.1110
  346BOLB   GL1 8283  16.756  20.483  24.908  0.1490  0.0571  0.2830
  346BOLB   GL2 8284  16.780  20.597  24.660 -0.1311 -0.0102 -0.2706
  346BOLB   C1A 8285  17.061  20.893  24.997 -0.0689  0.0842 -0.1585
  346BOLB   C2A 8286  17.183  21.287  25.093 -0.0679 -0.1104 -0.1756
  346BOLB   C3A 8287  17.121  21.742  25.178  0.1322  0.0320  0.2937
  346BOLB   C4A 8288  16.811  22.081  25.211 -0.2091  0.0252 -0.0253
  346BOLB   C1B 8289  17.095  20.752  24.366  0.3708  0.0802 -0.0654
  346BOLB   C2B 8290  17.183  21.128  24.089  0.0777  0.1467 -0.1284
  346BOLB   C3B 8291  17.456  21.416  23.941  0.0585 -0.5373  0.2482
  346BOLB   C4B 8292  17.830  21.576  24.043  0.2312  0.3107 -0.0489
  346BOLB   NC2 8293  16.405  24.473  24.559 -0.0030 -0.1164 -0.0579
  346BOLB   PO2 8294  16.856  24.301  24.564  0.2645 -0.0360 -0.2849
  346BOLB   GL3 8295  16.987  23.976  24.552  0.2903  0.1154  0.0602
  346BOLB   GL4 8296  17.084  23.842  24.712  0.0807  0.1505 -0.1758
  346BOLB   C1C 8297  16.719  23.613  24.498  0.1051 -0.1040  0.1973
  346BOLB   C2C 8298  16.547  23.267  24.568 -0.0972 -0.0399 -0.3997
  346BOLB   C3C 8299  16.703  22.819  24.765 -0.1836  0.2202 -0.0646
  346BOLB   C4C 8300  16.720  22.567  25.144 -0.0534  0.0421 -0.1118
  346BOLB   C1D 8301  16.918  23.758  25.052 -0.1169  0.0800 -0.0352
  346BOLB   C2D 8302  16.870  23.341  25.286 -0.0052  0.1821 -0.0028
  346BOLB   C3D 8303  16.727  22.992  25.560  0.0296 -0.1423 -0.0136
  346BOLB   C4D 8304  16.833  22.617  25.607  0.0854  0.0586  0.1202
  347BOLB   NC1 8305  11.735   5.995  31.095 -0.1911  0.0247  0.0344
  347BOLB   PO1 8306  11.516   5.643  30.959 -0.1093  0.3222  0.1349
  347BOLB   GL1 8307  11.254   5.273  30.976 -0.2388  0.1993 -0.1018
  347BOLB   GL2 8308  10.909   5.256  31.189 -0.0153 -0.1682  0.1548
  347BOLB   C1A 8309  11.041   4.881  30.912  0.1378 -0.1177 -0.0190
  347BOLB   C2A 8310  10.938   4.462  31.018  0.0646  0.3316 -0.0291
  347BOLB   C3A 8311  10.631   4.196  31.163 -0.1030  0.0087 -0.0902
  347BOLB   C4A 8312  10.695   3.738  31.190 -0.0125 -0.3223 -0.2761
  347BOLB   C1B 8313  10.610   4.998  31.297 -0.1057 -0.0064 -0.1026
  347BOLB   C2B 8314  10.592   4.631  31.408 -0.1849 -0.0921 -0.0189
  347BOLB   C3B 8315  10.261   4.331  31.388 -0.2608  0.4410  0.3257
  347BOLB   C4B 8316   9.854   4.262  31.531  0.0185  0.0560  0.0659
  347BOLB   NC2 8317   9.354   2.072  31.716  0.0491 -0.0202  0.2393
  347BOLB   PO2 8318   9.017   2.298  31.680  0.0466 -0.0454 -0.1980
  347BOLB   GL3 8319   9.341   2.572  31.740  0.3255 -0.0957  0.1178
  347BOLB   GL4 8320   9.631   2.517  31.794  0.1296  0.0886  0.0113
  347BOLB   C1C 8321   9.574   2.960  31.900 -0.2081  0.1215 -0.1953
  347BOLB   C2C 8322   9.930   3.070  31.801  0.2367 -0.0437  0.1694
  347BOLB   C3C 8323  10.250   3.292  31.660  0.0366  0.0856 -0.1803
  347BOLB   C4C 8324  10.388   3.461  31.385 -0.0540  0.2429 -0.2226
  347BOLB   C1D 8325   9.957   2.690  31.524  0.0587 -0.0278  0.0261
  347BOLB   C2D 8326   9.972   3.094  31.272 -0.1210  0.0056 -0.0955
  347BOLB   C3D 8327  10.049   3.249  30.975  0.0710  0.0388  0.1497
  347BOLB   C4D 8328   9.951   3.388  30.643  0.0759 -0.1678 -0.0613
  348BOLB   NC1 8329  22.803   9.964  28.080 -0.1187 -0.0176  0.0878
  348BOLB   PO1 8330  23.172   9.669  28.133  0.2747 -0.1874 -0.0479
  348BOLB   GL1 8331  23.552   9.744  27.976  0.0283  0.1508  0.0225
  348BOLB   GL2 8332  23.755   9.901  28.148  0.1134  0.0856  0.1652
  348BOLB   C1A 8333  23.864   9.411  28.009 -0.2473 -0.1355  0.0432
  348BOLB   C2A 8334  24.212   9.310  27.962  0.0165 -0.2061 -0.0617
  348BOLB   C3A 8335  24.628   9.354  28.056 -0.2467  0.0350 -0.1256
  348BOLB   C4A 8336  25.076   9.399  28.219 -0.0758  0.0559  0.2148
  348BOLB   C1B 8337  24.142   9.814  28.064 -0.0643  0.0960  0.2075
  348BOLB   C2B 8338  24.402   9.681  28.488  0.0709 -0.1028 -0.0712
  348BOLB   C3B 8339  24.409   9.297  28.598 -0.4001  0.0104 -0.4864
  348BOLB   C4B 8340  23.985   9.162  28.736 -0.1433  0.2792  0.1047
  348BOLB   NC2 8341   0.361   9.998  28.469 -0.0369 -0.2314  0.0837
  348BOLB   PO2 8342   0.176   9.592  28.296 -0.0578  0.2851  0.2207
  348BOLB   GL3 8343  26.886   9.507  28.537 -0.0480  0.2943  0.2843
  348BOLB   GL4 8344  26.820   9.593  28.843  0.0136 -0.0625 -0.4137
  348BOLB   C1C 8345  26.571   9.671  28.409 -0.1760 -0.3824  0.0443
  348BOLB   C2C 8346  26.148   9.730  28.210  0.2131 -0.1218  0.1731
  348BOLB   C3C 8347  25.782   9.669  28.282 -0.0357  0.3385  0.1094
  348BOLB   C4C 8348  25.378   9.604  28.210  0.0904 -0.1731 -0.0688
  348BOLB   C1D 8349  26.412   9.563  29.015  0.0931 -0.0055  0.2485
  348BOLB   C2D 8350  26.078   9.664  29.228 -0.0143 -0.0521  0.1595
  348BOLB   C3D 8351  25.710   9.645  29.153  0.2087  0.0854  0.0359
  348BOLB   C4D 8352  25.353   9.834  29.474  0.0348 -0.0588 -0.1587
  349BOLB   NC1 8353  10.316  19.692  29.561  0.0345 -0.0967 -0.0546
  349BOLB   PO1 8354  10.258  19.836  29.135  0.2023 -0.1770 -0.3284
  349BOLB   GL1 8355  10.173  20.178  28.894 -0.1023 -0.1882 -0.1505
  349BOLB   GL2 8356   9.964  20.090  28.635  0.2950  0.1592  0.1147
  349BOLB   C1A 8357   9.924  20.576  28.928 -0.0295 -0.1377  0.1855
  349BOLB   C2A 8358   9.469  20.588  28.921  0.0108  0.2472 -0.1920
  349BOLB   C3A 8359   9.068  20.747  29.005  0.0471  0.3578 -0.0406
  349BOLB   C4A 8360   8.687  20.803  28.893 -0.0284  0.3164 -0.0544
  349BOLB   C1B 8361   9.579  20.230  28.615 -0.0242 -0.1283 -0.0460
  349BOLB   C2B 8362   9.052  20.322  28.668 -0.0940 -0.2452 -0.4466
  349BOLB   C3B 8363   8.670  20.385  28.544 -0.1318 -0.1398  0.2577
  349BOLB   C4B 8364   8.342  20.735  28.472  0.0035 -0.4204 -0.0827
  349BOLB   NC2 8365   7.082  22.593  28.776  0.0646 -0.3553 -0.0155
  349BOLB   PO2 8366   6.951  22.318  28.404  0.1990  0.0586  0.0268
  349BOLB   GL3 8367   7.078  21.820  28.266 -0.0107 -0.0312  0.0720
  349BOLB   GL4 8368   6.830  21.527  28.392 -0.1774 -0.0495  0.1619
  349BOLB   C1C 8369   7.396  21.452  28.267  0.3455 -0.0059 -0.1358
  349BOLB   C2C 8370   7.716  21.241  28.369 -0.1177  0.2154 -0.0205
  349BOLB   C3C 8371   7.912  20.929  28.604  0.0851  0.2523 -0.2898
  349BOLB   C4C 8372   8.295  20.982  28.910 -0.0497 -0.3741  0.0928
  349BOLB   C1D 8373   6.965  21.254  28.516 -0.0979 -0.0252 -0.0472
  349BOLB   C2D 8374   7.296  21.052  28.551 -0.1969  0.2795 -0.0889
  349BOLB   C3D 8375   7.477  20.825  28.930 -0.0184  0.5045 -0.1848
  349BOLB   C4D 8376   7.353  20.481  29.175  0.3146  0.0564 -0.0267
  350BOLB   NC1 8377  14.048   9.524  39.464 -0.1432  0.0285  0.2632
  350BOLB   PO1 8378  14.359   9.268  39.578  0.1274 -0.2311 -0.0476
  350BOLB   GL1 8379  14.170   9.260  39.892  0.0121  0.1275  0.3655
  350BOLB   GL2 8380  14.028   9.491  39.931 -0.1195  0.0447  0.0154
  350BOLB   C1A 8381  13.928   8.915  40.172  0.1756  0.0650 -0.0352
  350BOLB   C2A 8382  13.671   8.653  40.468 -0.0630 -0.2487 -0.0851
  350BOLB   C3A 8383  13.715   8.240  40.796 -0.3000  0.0531 -0.0999
  350BOLB   C4A 8384  13.888   8.021  41.069  0.1309 -0.1076 -0.2237
  350BOLB   C1B 8385  13.882   9.540  40.281 -0.0666 -0.1122 -0.0443
  350BOLB   C2B 8386  13.597   9.696  40.487  0.0359 -0.2413  0.3948
  350BOLB   C3B 8387  13.459   9.995  40.801  0.0853 -0.5489 -0.2076
  350BOLB   C4B 8388  13.079  10.214  41.024 -0.2789 -0.2848  0.0127
  350BOLB   NC2 8389  13.854   6.884  42.798  0.2084  0.0771  0.0673
  350BOLB   PO2 8390  13.741   7.229  42.973  0.1007  0.1749  0.0117
  350BOLB   GL3 8391  13.702   7.516  42.661 -0.0062 -0.0449  0.1256
  350BOLB   GL4 8392  14.102   7.611  42.528 -0.1305  0.0949  0.1841
  350BOLB   C1C 8393  13.584   7.471  42.239  0.1405  0.1849 -0.0748
  350BOLB   C2C 8394  13.607   7.333  41.780  0.1337  0.1050 -0.4208
  350BOLB   C3C 8395  13.589   7.280  41.327 -0.3398  0.1541  0.0786
  350BOLB   C4C 8396  13.805   7.630  41.075  0.2142  0.0906 -0.1188
  350BOLB   C1D 8397  14.480   7.870  42.415  0.2330 -0.2711  0.1421
  350BOLB   C2D 8398  14.784   7.980  42.106 -0.3897  0.0153  0.1411
  350BOLB   C3D 8399  14.852   8.136  41.639 -0.0774  0.1212  0.0442
  350BOLB   C4D 8400  15.134   8.114  41.260 -0.0190  0.1683  0.0998
  351BOLB   NC1 8401  15.527   4.055  27.924  0.3141  0.1537  0.0226
  351BOLB   PO1 8402  15.817   3.981  27.649 -0.0337  0.0530  0.3779
  351BOLB   GL1 8403  15.575   3.626  27.703  0.0902  0.1711 -0.1720
  351BOLB   GL2 8404  15.236   3.654  27.703 -0.1204  0.0103  0.0262
  351BOLB   C1A 8405  15.607   3.156  27.819  0.1449 -0.3043 -0.1791
  351BOLB   C2A 8406  15.721   2.685  27.672  0.3384  0.3870 -0.0178
  351BOLB   C3A 8407  16.020   2.428  27.753  0.1508 -0.2957  0.0417
  351BOLB   C4A 8408  16.324   2.222  27.544  0.1788 -0.2156  0.0572
  351BOLB   C1B 8409  15.013   3.413  27.443  0.5315  0.2392 -0.0208
  351BOLB   C2B 8410  14.809   3.003  27.483 -0.0039  0.1943 -0.0042
  351BOLB   C3B 8411  14.510   2.532  27.633 -0.4497  0.0489 -0.3047
  351BOLB   C4B 8412  14.498   2.029  27.620  0.0790 -0.0624  0.1281
  351BOLB   NC2 8413  16.719   0.439  25.510  0.0942 -0.1424  0.0446
  351BOLB   PO2 8414  16.632   0.089  25.869  0.0766 -0.1143 -0.0186
  351BOLB   GL3 8415  16.529   0.517  26.091  0.1823 -0.1159  0.3022
  351BOLB   GL4 8416  16.343   0.800  25.854 -0.0163 -0.3213  0.2192
  351BOLB   C1C 8417  16.833   0.897  26.372  0.3972  0.4651  0.0981
  351BOLB   C2C 8418  16.846   1.297  26.615 -0.2360 -0.4044 -0.3229
  351BOLB   C3C 8419  16.606   1.599  26.873 -0.2982 -0.0611 -0.1483
  351BOLB   C4C 8420  16.324   1.799  27.266  0.0505 -0.0116 -0.1906
  351BOLB   C1D 8421  16.172   1.196  26.064  0.0143  0.0238  0.0988
  351BOLB   C2D 8422  16.012   1.537  26.057 -0.2585 -0.2130 -0.1190
  351BOLB   C3D 8423  15.835   1.853  25.758 -0.1150  0.1351  0.1096
  351BOLB   C4D 8424  15.889   1.764  25.418 -0.0877  0.1826 -0.1976
  352BOLB   NC1 8425  16.922  18.782  36.559  0.1607 -0.1885 -0.2957
  352BOLB   PO1 8426  17.221  19.141  36.237  0.0223 -0.0402 -0.2352
  352BOLB   GL1 8427  17.312  19.382  36.533 -0.0784 -0.4011 -0.1548
  352BOLB   GL2 8428  17.369  19.220  36.883  0.1398  0.0622  0.1324
  352BOLB   C1A 8429  17.395  19.729  36.850  0.2072 -0.1010 -0.2272
  352BOLB   C2A 8430  17.511  20.102  37.039 -0.1748  0.2757 -0.0909
  352BOLB   C3A 8431  17.797  20.425  37.101  0.3599  0.0074 -0.2644
  352BOLB   C4A 8432  18.019  20.844  37.285  0.2590 -0.0380  0.1243
  352BOLB   C1B 8433  17.674  19.446  37.224  0.0764 -0.2178  0.2230
  352BOLB   C2B 8434  17.820  19.784  37.396  0.1835  0.1019 -0.1150
  352BOLB   C3B 8435  17.544  20.067  37.518 -0.1821 -0.1414  0.1328
  352BOLB   C4B 8436  17.310  20.399  37.662  0.3089  0.1952  0.2496
  352BOLB   NC2 8437  20.018  21.023  38.979  0.0539  0.2636  0.1234
  352BOLB   PO2 8438  19.924  21.451  38.950  0.0747  0.0092 -0.0324
  352BOLB   GL3 8439  19.780  21.314  38.491  0.0509  0.4234  0.1277
  352BOLB   GL4 8440  19.423  21.102  38.617  0.1307 -0.1776  0.0373
  352BOLB   C1C 8441  19.300  21.276  38.182  0.0619  0.2123 -0.1233
  352BOLB   C2C 8442  18.979  21.246  37.798 -0.4459  0.0904  0.0029
  352BOLB   C3C 8443  18.674  21.191  37.566  0.0540  0.1006  0.1132
  352BOLB   C4C 8444  18.452  20.956  37.324  0.0470  0.2539  0.0239
  352BOLB   C1D 8445  19.218  20.580  38.323 -0.1533 -0.2790 -0.0313
  352BOLB   C2D 8446  19.087  20.303  37.959  0.3905  0.2698  0.0206
  352BOLB   C3D 8447  18.642  20.090  37.734 -0.1628  0.0673 -0.1463
  352BOLB   C4D 8448  18.580  19.841  37.389 -0.0756  0.2528 -0.0481
  353BOLB   NC1 8449   8.758  15.833  34.639  0.3095  0.0802 -0.3538
  353BOLB   PO1 8450   9.002  16.254  34.654  0.0406  0.0852  0.1254
  353BOLB   GL1 8451   8.685  16.500  34.878 -0.1568 -0.0895  0.4818
  353BOLB   GL2 8452   8.528  16.356  35.128 -0.2618 -0.2772 -0.0040
  353BOLB   C1A 8453   8.451  16.831  34.924 -0.0436  0.2059 -0.2346
  353BOLB   C2A 8454   8.110  17.015  35.219  0.1532 -0.2975 -0.1302
  353BOLB   C3A 8455   7.783  17.286  35.466 -0.1275 -0.2317 -0.0301
  353BOLB   C4A 8456   7.247  17.229  35.503 -0.2004 -0.0407  0.2101
  353BOLB   C1B 8457   8.382  16.650  35.374  0.1211  0.1308 -0.0324
  353BOLB   C2B 8458   8.232  16.765  35.756  0.3932  0.1008 -0.3025
  353BOLB   C3B 8459   8.128  16.983  36.137 -0.0924  0.2263 -0.2123
  353BOLB   C4B 8460   7.667  17.051  36.394 -0.2843 -0.0583  0.0475
  353BOLB   NC2 8461   5.594  16.552  37.312  0.0687 -0.0381 -0.1185
  353BOLB   PO2 8462   5.439  16.846  37.062 -0.3542 -0.3880  0.2380
  353BOLB   GL3 8463   5.697  16.980  36.731  0.0462  0.0391  0.1551
  353BOLB   GL4 8464   5.628  17.243  36.729 -0.1413  0.0791 -0.0189
  353BOLB   C1C 8465   6.059  16.834  36.379  0.0802  0.0395  0.0261
  353BOLB   C2C 8466   6.234  16.866  36.025 -0.0988  0.0371  0.0144
  353BOLB   C3C 8467   6.540  17.114  35.853 -0.0940  0.3654 -0.0766
  353BOLB   C4C 8468   6.874  17.169  35.626  0.0238 -0.0240 -0.2507
  353BOLB   C1D 8469   5.381  17.198  36.347  0.3039 -0.1945 -0.0660
  353BOLB   C2D 8470   5.704  16.980  36.004 -0.2657  0.1046 -0.3503
  353BOLB   C3D 8471   5.641  16.815  35.563 -0.1164 -0.3872  0.0496
  353BOLB   C4D 8472   5.452  16.489  35.355  0.1194  0.1440 -0.1759
  354BOLB   NC1 8473  12.920  20.547  30.806 -0.1991 -0.1535  0.1410
  354BOLB   PO1 8474  12.800  20.923  30.963 -0.2539  0.2541  0.2085
  354BOLB   GL1 8475  12.826  21.305  31.189 -0.0330 -0.0400  0.2243
  354BOLB   GL2 8476  12.715  21.491  30.995  0.1515 -0.0043  0.2028
  354BOLB   C1A 8477  12.727  21.630  31.507  0.0063  0.0376 -0.1476
  354BOLB   C2A 8478  12.766  22.048  31.529  0.0533 -0.0445 -0.0264
  354BOLB   C3A 8479  12.722  22.412  31.523  0.0542  0.1346  0.0827
  354BOLB   C4A 8480  12.618  22.765  31.269  0.2542 -0.1490 -0.4240
  354BOLB   C1B 8481  12.570  21.939  31.049  0.0046  0.0782  0.1461
  354BOLB   C2B 8482  12.548  22.327  31.059  0.0242  0.0866  0.3193
  354BOLB   C3B 8483  12.270  22.433  31.096 -0.1089 -0.2172 -0.3767
  354BOLB   C4B 8484  11.850  22.682  31.139  0.1235 -0.0962  0.3521
  354BOLB   NC2 8485  12.955  24.989  31.479 -0.0954  0.0962 -0.0372
  354BOLB   PO2 8486  13.447  25.099  31.440 -0.2142 -0.2563 -0.1172
  354BOLB   GL3 8487  13.489  24.729  31.379 -0.3734 -0.2803 -0.1345
  354BOLB   GL4 8488  13.747  24.752  31.173 -0.2029 -0.0425 -0.0097
  354BOLB   C1C 8489  13.410  24.329  31.227 -0.3410  0.1045 -0.3110
  354BOLB   C2C 8490  13.035  24.039  31.219 -0.0807  0.0844  0.1071
  354BOLB   C3C 8491  12.861  23.584  31.292  0.1832 -0.0137  0.0164
  354BOLB   C4C 8492  12.651  23.173  31.369 -0.1097  0.1010 -0.1077
  354BOLB   C1D 8493  13.920  24.273  31.039  0.3161  0.3726  0.2953
  354BOLB   C2D 8494  13.902  23.871  30.873 -0.1476 -0.1029  0.5949
  354BOLB   C3D 8495  14.117  23.510  30.922 -0.1225 -0.0153 -0.0905
  354BOLB   C4D 8496  13.835  23.291  31.270 -0.3149 -0.0651 -0.3288
  355BOLB   NC1 8497  11.963   5.400  31.165  0.0547 -0.0128 -0.0894
  355BOLB   PO1 8498  12.173   5.436  31.488 -0.4587  0.1775  0.0273
  355BOLB   GL1 8499  11.800   5.276  31.636  0.1094  0.2521 -0.0641
  355BOLB   GL2 8500  11.658   5.012  31.307  0.0534  0.1394  0.0984
  355BOLB   C1A 8501  11.544   4.890  31.772 -0.0484  0.0946  0.2293
  355BOLB   C2A 8502  11.529   4.493  31.615  0.0238  0.1863 -0.0851
  355BOLB   C3A 8503  11.276   4.131  31.487  0.0426  0.1711 -0.0671
  355BOLB   C4A 8504  11.040   3.845  31.597 -0.1502  0.0095  0.2317
  355BOLB   C1B 8505  11.426   4.534  31.113  0.3023 -0.0452 -0.4087
  355BOLB   C2B 8506  11.374   4.216  30.966  0.2112  0.0646 -0.1169
  355BOLB   C3B 8507  11.057   4.013  30.750 -0.2588  0.1732  0.1157
  355BOLB   C4B 8508  10.694   3.875  30.709 -0.0240  0.0368 -0.0059
  355BOLB   NC2 8509   9.651   1.482  32.262 -0.2728  0.0403  0.1175
  355BOLB   PO2 8510   9.701   1.905  32.059 -0.0674  0.1314  0.0953
  355BOLB   GL3 8511  10.043   2.196  31.997 -0.0940 -0.0566 -0.0636
  355BOLB   GL4 8512  10.300   1.994  31.763 -0.0227 -0.1404 -0.1330
  355BOLB   C1C 8513  10.146   2.621  32.026  0.1338  0.1969  0.1147
  355BOLB   C2C 8514  10.313   3.103  32.125 -0.3856 -0.2532 -0.1276
  355BOLB   C3C 8515  10.577   3.475  32.167  0.2972 -0.3666 -0.1458
  355BOLB   C4C 8516  10.810   3.486  31.731  0.0394  0.2501  0.0196
  355BOLB   C1D 8517  10.550   2.430  31.789  0.0189  0.0678 -0.2015
  355BOLB   C2D 8518  10.996   2.418  31.780  0.3714 -0.2965  0.0865
  355BOLB   C3D 8519  11.334   2.574  31.635 -0.2148 -0.1074  0.0823
  355BOLB   C4D 8520  11.570   2.897  31.484  0.1328  0.0797  0.0072
  356BOLB   NC1 8521  14.786   4.122  26.931 -0.4155 -0.2854  0.0859
  356BOLB   PO1 8522  15.173   4.306  26.958  0.0435 -0.2240  0.1519
  356BOLB   GL1 8523  15.071   3.995  26.576 -0.2149 -0.3085  0.0670
  356BOLB   GL2 8524  15.195   3.965  26.220 -0.2235  0.2409 -0.0619
  356BOLB   C1A 8525  14.947   3.586  26.434  0.0500 -0.1777  0.1459
  356BOLB   C2A 8526  15.073   3.152  26.339  0.0123  0.0951 -0.0559
  356BOLB   C3A 8527  15.361   2.941  26.245 -0.0388 -0.5115  0.2410
  356BOLB   C4A 8528  15.441   2.438  26.217 -0.3237 -0.3319 -0.1834
  356BOLB   C1B 8529  14.929   3.598  25.914  0.0055 -0.1563 -0.0102
  356BOLB   C2B 8530  14.846   3.195  25.671  0.2009 -0.2346  0.4195
  356BOLB   C3B 8531  14.893   2.877  25.913 -0.0339 -0.0716 -0.1083
  356BOLB   C4B 8532  15.322   2.740  25.760 -0.0062 -0.1375 -0.2342
  356BOLB   NC2 8533  14.904   0.577  25.368 -0.2146  0.0590 -0.1455
  356BOLB   PO2 8534  15.304   0.478  25.321 -0.0548  0.1960  0.0910
  356BOLB   GL3 8535  15.281   0.868  25.195  0.1889  0.0018 -0.0500
  356BOLB   GL4 8536  15.002   1.066  25.105  0.0078 -0.2577 -0.0327
  356BOLB   C1C 8537  15.328   1.155  25.503  0.2524  0.1551  0.0002
  356BOLB   C2C 8538  15.507   1.372  25.904 -0.4224 -0.2619 -0.2517
  356BOLB   C3C 8539  15.494   1.741  26.112  0.3235  0.1357  0.1026
  356BOLB   C4C 8540  15.579   2.074  26.180  0.2525 -0.2599  0.3394
  356BOLB   C1D 8541  14.936   1.428  25.355 -0.2641  0.2322 -0.3532
  356BOLB   C2D 8542  14.841   1.812  25.657 -0.1440 -0.2166  0.1655
  356BOLB   C3D 8543  14.823   2.112  25.753  0.2571 -0.1090 -0.0605
  356BOLB   C4D 8544  14.966   2.325  26.039 -0.2958 -0.1046  0.2290
  357BOLB   NC1 8545   8.745  13.492  35.590 -0.0340 -0.0573  0.0928
  357BOLB   PO1 8546   8.660  13.399  35.122 -0.1692  0.1028 -0.0914
  357BOLB   GL1 8547   8.344  13.750  35.298 -0.0133  0.0723 -0.2953
  357BOLB   GL2 8548   8.016  13.828  35.111 -0.0009 -0.1073 -0.1127
  357BOLB   C1A 8549   7.961  13.780  35.565 -0.3448  0.1550  0.2686
  357BOLB   C2A 8550   7.474  13.826  35.699 -0.3024  0.0161 -0.0483
  357BOLB   C3A 8551   7.144  13.533  35.903 -0.1394  0.1335  0.0683
  357BOLB   C4A 8552   6.738  13.156  35.856  0.1107 -0.3747  0.2886
  357BOLB   C1B 8553   7.606  13.667  35.295 -0.0383 -0.3577 -0.1549
  357BOLB   C2B 8554   7.312  13.352  35.506 -0.3485 -0.0014  0.2601
  357BOLB   C3B 8555   6.997  12.997  35.362 -0.0783  0.1142 -0.0656
  357BOLB   C4B 8556   6.790  13.067  34.969 -0.3820 -0.0299  0.0058
  357BOLB   NC2 8557   4.165  12.836  37.067 -0.1614  0.0256  0.0188
  357BOLB   PO2 8558   4.593  12.800  36.762  0.2155  0.0768 -0.0663
  357BOLB   GL3 8559   4.981  12.714  36.439  0.1054 -0.2236 -0.0783
  357BOLB   GL4 8560   4.951  12.805  36.163 -0.0444 -0.2442 -0.0972
  357BOLB   C1C 8561   5.428  12.772  36.555 -0.0988  0.1871  0.0364
  357BOLB   C2C 8562   5.754  13.051  36.398  0.3314  0.1439  0.2274
  357BOLB   C3C 8563   6.122  13.041  36.291 -0.2161  0.1160  0.1182
  357BOLB   C4C 8564   6.319  13.141  35.920 -0.0315 -0.2921 -0.0474
  357BOLB   C1D 8565   5.345  12.973  35.949  0.0145  0.4395 -0.2289
  357BOLB   C2D 8566   5.836  13.048  35.847  0.3442  0.0382 -0.0804
  357BOLB   C3D 8567   6.170  12.792  35.587 -0.2038  0.0715  0.0468
  357BOLB   C4D 8568   6.419  12.813  35.300 -0.0726  0.0334  0.2309
  358BOLB   NC1 8569  20.825   6.266  32.719  0.0038  0.2972 -0.0546
  358BOLB   PO1 8570  20.855   5.880  32.491 -0.3582  0.1043 -0.2219
  358BOLB   GL1 8571  21.302   5.629  32.590 -0.0209  0.0310  0.1802
  358BOLB   GL2 8572  21.424   5.696  32.889  0.0463 -0.0813 -0.0442
  358BOLB   C1A 8573  21.821   5.553  32.499 -0.1826  0.0504 -0.5430
  358BOLB   C2A 8574  22.292   5.406  32.543 -0.3232 -0.0793 -0.0553
  358BOLB   C3A 8575  22.513   5.070  32.535  0.1249  0.3071  0.0022
  358BOLB   C4A 8576  22.850   5.057  32.692  0.2202  0.1624  0.3307
  358BOLB   C1B 8577  21.802   5.910  33.010 -0.2520 -0.1361 -0.1361
  358BOLB   C2B 8578  21.957   5.562  33.113  0.0647  0.0238 -0.1053
  358BOLB   C3B 8579  22.263   5.362  33.348  0.0672  0.3180 -0.1586
  358BOLB   C4B 8580  22.517   5.256  33.698  0.0075 -0.1540  0.0858
  358BOLB   NC2 8581  24.604   4.292  33.951 -0.2803  0.0110 -0.1971
  358BOLB   PO2 8582  24.746   3.829  33.792 -0.1319  0.0056 -0.2903
  358BOLB   GL3 8583  24.348   3.864  33.787 -0.1111 -0.3419 -0.2689
  358BOLB   GL4 8584  24.196   3.828  34.053 -0.3694  0.2057 -0.1089
  358BOLB   C1C 8585  24.087   4.073  33.491 -0.3981 -0.2752  0.0006
  358BOLB   C2C 8586  23.712   4.265  33.346  0.0755  0.0258  0.0825
  358BOLB   C3C 8587  23.300   4.486  33.165 -0.4017 -0.1533  0.3638
  358BOLB   C4C 8588  22.986   4.805  33.045 -0.0346  0.0621 -0.0275
  358BOLB   C1D 8589  24.038   4.105  34.157  0.3333 -0.1490 -0.0960
  358BOLB   C2D 8590  23.911   4.481  33.950  0.0663  0.0967 -0.2176
  358BOLB   C3D 8591  24.053   4.596  33.564  0.3817 -0.1070  0.0585
  358BOLB   C4D 8592  24.192   4.452  33.169  0.0882  0.0384 -0.0995
  359BOLB   NC1 8593  21.928  10.032  36.508 -0.0591  0.0669 -0.2642
  359BOLB   PO1 8594  21.703  10.267  36.722 -0.1337  0.0553  0.4177
  359BOLB   GL1 8595  21.992   9.913  36.962 -0.0385  0.1126  0.2508
  359BOLB   GL2 8596  22.030   9.589  36.776 -0.1979  0.1235  0.0354
  359BOLB   C1A 8597  22.399   9.797  37.226  0.1018  0.1779 -0.0619
  359BOLB   C2A 8598  22.748   9.682  37.174  0.2331  0.3820  0.0187
  359BOLB   C3A 8599  23.004   9.345  37.294  0.2464  0.0530 -0.0364
  359BOLB   C4A 8600  23.087   9.080  37.674 -0.0640  0.2656 -0.3782
  359BOLB   C1B 8601  22.444   9.428  36.839  0.2698 -0.1020 -0.2160
  359BOLB   C2B 8602  22.716   9.062  36.921  0.2037 -0.0119 -0.3663
  359BOLB   C3B 8603  22.855   8.880  37.070 -0.3288 -0.2188 -0.0207
  359BOLB   C4B 8604  23.204   8.667  36.893  0.0799 -0.4487  0.1379
  359BOLB   NC2 8605  24.432   8.303  39.193 -0.0807 -0.0325 -0.1513
  359BOLB   PO2 8606  24.909   8.198  39.013 -0.0449 -0.0610 -0.2948
  359BOLB   GL3 8607  24.659   8.418  38.746 -0.1643 -0.2733  0.0389
  359BOLB   GL4 8608  24.684   8.751  38.876 -0.1980  0.0839 -0.5133
  359BOLB   C1C 8609  24.338   8.560  38.465 -0.1215  0.1397 -0.0863
  359BOLB   C2C 8610  24.029   8.497  38.183  0.1584  0.0452  0.1932
  359BOLB   C3C 8611  23.607   8.538  38.156  0.0866  0.1882  0.1317
  359BOLB   C4C 8612  23.369   8.757  37.993  0.3116  0.0171  0.1547
  359BOLB   C1D 8613  24.640   9.218  38.659 -0.0639 -0.1457 -0.1363
  359BOLB   C2D 8614  24.182   9.415  38.647  0.1927  0.0633  0.0825
  359BOLB   C3D 8615  23.962   9.840  38.714  0.1801  0.4415  0.2176
  359BOLB   C4D 8616  23.656  10.046  39.009  0.3279 -0.0384  0.0447
  360BOLB   NC1 8617  17.158  15.824  39.110 -0.0990 -0.1445  0.0075
  360BOLB   PO1 8618  16.817  15.932  38.805  0.3706  0.1265  0.0798
  360BOLB   GL1 8619  16.855  16.270  39.141  0.2427  0.0195  0.1340
  360BOLB   GL2 8620  16.572  16.294  39.215 -0.0903 -0.3055  0.1006
  360BOLB   C1A 8621  16.963  16.357  39.571 -0.2558  0.0461  0.0308
  360BOLB   C2A 8622  17.069  16.719  39.905  0.1752  0.2996  0.1361
  360BOLB   C3A 8623  17.077  17.033  40.179  0.1170  0.1981 -0.0790
  360BOLB   C4A 8624  17.318  17.515  40.285 -0.1233 -0.0624  0.0479
  360BOLB   C1B 8625  16.480  16.348  39.723  0.0456  0.0182 -0.2198
  360BOLB   C2B 8626  16.784  16.373  40.114 -0.0120  0.0415  0.1837
  360BOLB   C3B 8627  16.742  16.526  40.428 -0.2701  0.0496  0.1355
  360BOLB   C4B 8628  16.827  16.635  40.825 -0.3231  0.3043 -0.2221
  360BOLB   NC2 8629  17.924  19.008  42.358 -0.3553  0.2572  0.3218
  360BOLB   PO2 8630  17.758  19.084  42.038  0.0463  0.0514 -0.0173
  360BOLB   GL3 8631  17.554  18.917  41.597  0.3692 -0.1541  0.0130
  360BOLB   GL4 8632  17.230  19.040  41.490 -0.4755  0.1370  0.1095
  360BOLB   C1C 8633  17.740  18.607  41.261  0.0779  0.3078  0.3852
  360BOLB   C2C 8634  17.513  18.409  40.898  0.0243  0.2081 -0.0377
  360BOLB   C3C 8635  17.484  18.294  40.457  0.0570  0.3535  0.0338
  360BOLB   C4C 8636  17.500  17.947  40.210 -0.0760 -0.0531 -0.2792
  360BOLB   C1D 8637  17.246  18.871  41.163  0.1022 -0.1061 -0.3266
  360BOLB   C2D 8638  17.511  18.867  40.836  0.1095  0.2114  0.1217
  360BOLB   C3D 8639  17.798  19.187  40.676 -0.0469 -0.0923 -0.2189
  360BOLB   C4D 8640  17.966  19.582  40.528  0.0691  0.1245  0.0216
  361BOLB   NC1 8641  12.056   5.922  34.256 -0.4136 -0.2850 -0.1994
  361BOLB   PO1 8642  11.986   6.208  34.729 -0.0661 -0.1111  0.0042
  361BOLB   GL1 8643  11.812   6.000  35.055  0.2113  0.1473  0.1497
  361BOLB   GL2 8644  11.773   5.749  34.768  0.1370  0.0260  0.0634
  361BOLB   C1A 8645  11.667   5.602  35.208  0.0951 -0.0702 -0.1372
  361BOLB   C2A 8646  11.370   5.285  35.425 -0.0007  0.0600  0.0190
  361BOLB   C3A 8647  11.400   4.950  35.721 -0.1248 -0.3865 -0.0607
  361BOLB   C4A 8648  11.256   4.765  36.053 -0.1484 -0.1093  0.1711
  361BOLB   C1B 8649  11.842   5.372  34.597  0.3092  0.1691 -0.0032
  361BOLB   C2B 8650  12.065   4.921  34.669 -0.1369  0.1355  0.1345
  361BOLB   C3B 8651  12.103   4.706  35.047 -0.1443  0.0491  0.2184
  361BOLB   C4B 8652  12.488   4.445  35.192 -0.0798  0.0049  0.3864
  361BOLB   NC2 8653  10.050   3.791  38.069 -0.1538 -0.0713 -0.0574
  361BOLB   PO2 8654  10.143   3.555  37.683 -0.0729  0.0035  0.0421
  361BOLB   GL3 8655  10.452   3.861  37.663 -0.2222  0.2627 -0.1813
  361BOLB   GL4 8656  10.238   3.991  37.310  0.0209 -0.3717  0.0775
  361BOLB   C1C 8657  10.671   4.210  37.596  0.1156  0.1411  0.1095
  361BOLB   C2C 8658  10.797   4.490  37.213 -0.3379  0.1765  0.0903
  361BOLB   C3C 8659  10.867   4.469  36.792  0.1571 -0.2812 -0.2390
  361BOLB   C4C 8660  11.110   4.665  36.432 -0.3513  0.4676  0.4184
  361BOLB   C1D 8661  10.618   3.991  37.191 -0.0031  0.0360 -0.0975
  361BOLB   C2D 8662  11.000   4.022  36.930  0.0192 -0.5297  0.1276
  361BOLB   C3D 8663  11.310   4.192  36.658  0.0212 -0.0631 -0.0503
  361BOLB   C4D 8664  11.693   4.439  36.631  0.1460 -0.1068 -0.0531
  362BOLB   NC1 8665  17.100   4.486  29.465 -0.0493  0.0233 -0.0352
  362BOLB   PO1 8666  16.706   4.192  29.440  0.1452  0.1118  0.0022
  362BOLB   GL1 8667  16.651   3.876  29.714  0.0473 -0.0242 -0.1389
  362BOLB   GL2 8668  16.352   3.761  29.560  0.1552  0.1101  0.1203
  362BOLB   C1A 8669  16.630   3.422  29.818 -0.0048 -0.1080 -0.0612
  362BOLB   C2A 8670  16.599   2.938  29.780 -0.1379  0.0992  0.0807
  362BOLB   C3A 8671  16.759   2.523  29.676 -0.0066  0.0981  0.0415
  362BOLB   C4A 8672  16.463   2.151  29.847  0.0909  0.0537  0.1227
  362BOLB   C1B 8673  16.414   3.295  29.398  0.1051  0.2875  0.0669
  362BOLB   C2B 8674  16.690   2.973  29.207  0.1862  0.0187 -0.2366
  362BOLB   C3B 8675  16.451   2.706  28.941 -0.0962  0.0297 -0.0848
  362BOLB   C4B 8676  16.391   2.249  28.944  0.3568  0.3626 -0.0117
  362BOLB   NC2 8677  15.313  26.915  29.130  0.0508 -0.3391 -0.0151
  362BOLB   PO2 8678  15.331   0.212  29.320  0.0831 -0.1964  0.0654
  362BOLB   GL3 8679  15.683   0.507  29.489  0.3632  0.0609 -0.2422
  362BOLB   GL4 8680  15.935   0.440  29.754  0.3746 -0.0122 -0.1984
  362BOLB   C1C 8681  15.768   0.911  29.566  0.2688 -0.0249 -0.1004
  362BOLB   C2C 8682  15.673   1.357  29.681 -0.1608  0.0602  0.0324
  362BOLB   C3C 8683  15.802   1.814  29.839  0.0045  0.2603  0.1254
  362BOLB   C4C 8684  16.078   2.127  29.980 -0.2061 -0.1324 -0.3639
  362BOLB   C1D 8685  16.170   0.681  30.018 -0.1864  0.3818 -0.1086
  362BOLB   C2D 8686  16.235   1.063  30.139  0.2790 -0.2104  0.0952
  362BOLB   C3D 8687  16.372   1.467  30.170  0.1368  0.4150 -0.0021
  362BOLB   C4D 8688  16.679   1.695  30.111 -0.0287 -0.0375 -0.0689
  363BOLB   NC1 8689  23.524  11.192  41.459  0.3792 -0.2415 -0.0162
  363BOLB   PO1 8690  23.598  11.610  41.129 -0.0843 -0.1711 -0.4193
  363BOLB   GL1 8691  23.575  11.860  40.821 -0.0189 -0.0535  0.4599
  363BOLB   GL2 8692  23.332  12.147  40.710  0.1999  0.0536  0.3644
  363BOLB   C1A 8693  23.688  11.911  40.441  0.3762  0.0977  0.1037
  363BOLB   C2A 8694  23.798  11.578  40.117 -0.0523 -0.1954  0.0761
  363BOLB   C3A 8695  23.931  11.277  39.753 -0.1762 -0.1353  0.0186
  363BOLB   C4A 8696  23.804  10.927  39.527 -0.0690 -0.1331 -0.4368
  363BOLB   C1B 8697  23.201  12.151  40.306 -0.1981  0.1742 -0.1378
  363BOLB   C2B 8698  22.981  12.000  39.974 -0.0116 -0.0373  0.3196
  363BOLB   C3B 8699  23.093  11.882  39.557  0.3124 -0.2598  0.1914
  363BOLB   C4B 8700  23.040  11.944  39.180  0.0464 -0.0583  0.1636
  363BOLB   NC2 8701  25.330   9.148  39.016 -0.2882  0.1224 -0.1424
  363BOLB   PO2 8702  24.975   9.073  39.177 -0.0427 -0.0342  0.1874
  363BOLB   GL3 8703  24.573   9.171  39.165 -0.0451 -0.0310  0.0722
  363BOLB   GL4 8704  24.407   8.940  39.285 -0.2031 -0.2048 -0.0890
  363BOLB   C1C 8705  24.245   9.487  39.165  0.0217  0.1227  0.0795
  363BOLB   C2C 8706  24.037   9.995  39.262 -0.0128  0.0213 -0.0140
  363BOLB   C3C 8707  23.758  10.221  39.514 -0.1192  0.0311  0.1320
  363BOLB   C4C 8708  23.547  10.607  39.618  0.1293  0.0696 -0.1721
  363BOLB   C1D 8709  24.221   8.940  38.767  0.2904 -0.1273  0.4226
  363BOLB   C2D 8710  23.778   9.139  38.553 -0.0420  0.2247 -0.0490
  363BOLB   C3D 8711  23.439   8.841  38.547  0.0529  0.2483  0.0439
  363BOLB   C4D 8712  22.986   8.705  38.541  0.0911 -0.1494  0.1362
  364BOLB   NC1 8713  23.441   9.988  33.255  0.0223  0.1532 -0.2289
  364BOLB   PO1 8714  23.263  10.141  33.673 -0.1979 -0.2026  0.1237
  364BOLB   GL1 8715  23.764  10.133  33.652 -0.1854 -0.1631  0.0060
  364BOLB   GL2 8716  23.938  10.358  33.376 -0.0131 -0.0669 -0.0324
  364BOLB   C1A 8717  24.256  10.009  33.669  0.1024  0.1070  0.0983
  364BOLB   C2A 8718  24.571   9.787  33.695  0.1870 -0.3085  0.2828
  364BOLB   C3A 8719  24.980   9.676  33.876  0.1188  0.0069  0.0758
  364BOLB   C4A 8720  25.467   9.663  33.805 -0.0623  0.0593 -0.0686
  364BOLB   C1B 8721  24.410  10.238  33.294 -0.3096  0.1451 -0.1739
  364BOLB   C2B 8722  24.864  10.182  33.301  0.0067  0.0528  0.2842
  364BOLB   C3B 8723  24.729  10.318  33.763 -0.0446 -0.0466  0.2910
  364BOLB   C4B 8724  25.048  10.295  34.121 -0.0495 -0.0894 -0.1300
  364BOLB   NC2 8725  26.790   9.203  35.591 -0.0409 -0.0004  0.1713
  364BOLB   PO2 8726   0.003   9.126  35.362 -0.2924 -0.1909  0.0405
  364BOLB   GL3 8727  26.780   9.177  35.064  0.2238 -0.0912  0.2918
  364BOLB   GL4 8728  26.503   9.338  35.251 -0.2437 -0.1461  0.0967
  364BOLB   C1C 8729  26.650   9.441  34.747  0.2467 -0.0728  0.2133
  364BOLB   C2C 8730  26.458   9.720  34.507  0.2894  0.0220  0.1381
  364BOLB   C3C 8731  26.059   9.579  34.400  0.3895  0.1184  0.0238
  364BOLB   C4C 8732  25.695   9.516  34.071 -0.0626  0.0568 -0.3851
  364BOLB   C1D 8733  25.980   9.384  35.285 -0.0449 -0.0239 -0.1233
  364BOLB   C2D 8734  25.612   9.561  35.186 -0.1169  0.2861  0.2421
  364BOLB   C3D 8735  25.186   9.682  34.880  0.0775 -0.0933 -0.0230
  364BOLB   C4D 8736  24.903   9.764  34.776 -0.2495 -0.3214  0.0887
  365BOLB   NC1 8737  22.454  13.895  32.184 -0.1035 -0.2792 -0.1238
  365BOLB   PO1 8738  22.919  13.959  32.185  0.3070 -0.3061  0.1031
  365BOLB   GL1 8739  23.353  13.921  32.205 -0.1213  0.2735 -0.2391
  365BOLB   GL2 8740  23.366  14.003  32.564 -0.0613  0.1309 -0.2106
  365BOLB   C1A 8741  23.665  14.161  31.915 -0.2853  0.0504  0.0159
  365BOLB   C2A 8742  24.118  14.259  31.964  0.0938 -0.0952 -0.0732
  365BOLB   C3A 8743  24.551  14.473  31.849  0.0714 -0.0276  0.1849
  365BOLB   C4A 8744  24.972  14.374  31.746 -0.3119 -0.1290 -0.0898
  365BOLB   C1B 8745  23.710  14.108  32.665  0.0458  0.1138 -0.1526
  365BOLB   C2B 8746  24.183  14.197  32.689 -0.0950 -0.0507  0.2108
  365BOLB   C3B 8747  24.506  14.572  32.654  0.2299 -0.0124 -0.0651
  365BOLB   C4B 8748  24.784  14.904  32.608 -0.1669 -0.1634  0.0895
  365BOLB   NC2 8749   0.314  14.806  31.865  0.0199  0.1813 -0.0225
  365BOLB   PO2 8750   0.231  15.139  31.654  0.1326  0.2333  0.0313
  365BOLB   GL3 8751  26.853  15.091  31.575  0.1803  0.0882  0.1932
  365BOLB   GL4 8752  26.633  14.791  31.373 -0.0512 -0.3342 -0.0108
  365BOLB   C1C 8753  26.524  14.903  31.854 -0.1060 -0.3596 -0.0832
  365BOLB   C2C 8754  26.231  14.593  31.931  0.2086  0.0497  0.1415
  365BOLB   C3C 8755  25.805  14.394  31.816  0.2108  0.0499 -0.0255
  365BOLB   C4C 8756  25.440  14.222  31.745 -0.3760 -0.1526  0.0638
  365BOLB   C1D 8757  26.178  14.718  31.487  0.3331 -0.1118 -0.0191
  365BOLB   C2D 8758  25.832  14.738  31.368 -0.0202  0.2575 -0.1898
  365BOLB   C3D 8759  25.540  14.472  31.311  0.2704  0.1859 -0.0311
  365BOLB   C4D 8760  25.242  14.155  31.230 -0.1076 -0.1312 -0.2220
  366BOLB   NC1 8761  12.685   6.225  24.860  0.1424  0.1508  0.0145
  366BOLB   PO1 8762  12.834   6.286  24.476  0.2136  0.1221  0.0078
  366BOLB   GL1 8763  12.655   6.079  24.138  0.1323  0.0378  0.0149
  366BOLB   GL2 8764  12.333   5.792  24.250  0.1521  0.0264 -0.0545
  366BOLB   C1A 8765  12.768   5.723  23.866  0.0772 -0.0671  0.3851
  366BOLB   C2A 8766  12.724   5.459  23.472  0.3581 -0.1985  0.1924
  366BOLB   C3A 8767  12.564   5.367  23.053 -0.2120 -0.3322 -0.0329
  366BOLB   C4A 8768  12.349   5.415  22.705 -0.1894 -0.2701 -0.1721
  366BOLB   C1B 8769  12.060   5.410  24.309 -0.1112  0.0686  0.0297
  366BOLB   C2B 8770  11.565   5.302  24.158 -0.0913  0.0658 -0.1280
  366BOLB   C3B 8771  11.307   5.144  24.201 -0.0885 -0.0173  0.0358
  366BOLB   C4B 8772  11.097   5.087  24.476 -0.2362 -0.0248  0.0189
  366BOLB   NC2 8773  10.797   3.734  21.313  0.1125 -0.1305 -0.1291
  366BOLB   PO2 8774  10.963   4.113  21.460 -0.2165  0.1860 -0.0477
  366BOLB   GL3 8775  10.996   4.391  21.768  0.0185  0.1301 -0.1334
  366BOLB   GL4 8776  10.881   4.277  22.078 -0.0440 -0.0867  0.1738
  366BOLB   C1C 8777  11.303   4.836  21.842  0.1250  0.0376  0.0689
  366BOLB   C2C 8778  11.685   4.970  21.921 -0.0077 -0.0929 -0.0973
  366BOLB   C3C 8779  11.873   5.283  22.129 -0.2823 -0.1934 -0.1349
  366BOLB   C4C 8780  12.047   5.178  22.473  0.0790  0.0117 -0.0300
  366BOLB   C1D 8781  11.036   4.614  22.430  0.1564 -0.0264  0.2936
  366BOLB   C2D 8782  11.317   4.765  22.657  0.0743  0.2155  0.1803
  366BOLB   C3D 8783  11.649   5.070  22.711 -0.3002 -0.0427 -0.0128
  366BOLB   C4D 8784  11.870   5.362  22.986  0.2367  0.1425 -0.0029
  367BOLB   NC1 8785  19.566   9.057  19.569  0.1628 -0.2798  0.0272
  367BOLB   PO1 8786  19.879   9.003  19.866 -0.2813  0.0792 -0.0208
  367BOLB   GL1 8787  20.120   8.823  19.483 -0.2002 -0.2436  0.5261
  367BOLB   GL2 8788  20.078   9.126  19.353  0.0026 -0.0422 -0.1727
  367BOLB   C1A 8789  20.168   8.331  19.351 -0.1177  0.0209 -0.1969
  367BOLB   C2A 8790  20.328   7.864  19.390 -0.0930 -0.0255  0.1385
  367BOLB   C3A 8791  20.677   7.735  19.387 -0.1253 -0.0787  0.2471
  367BOLB   C4A 8792  21.104   7.541  19.214  0.1550 -0.2507  0.0463
  367BOLB   C1B 8793  20.129   9.211  18.918 -0.0097 -0.1303 -0.4753
  367BOLB   C2B 8794  20.290   9.016  18.552  0.2840  0.3937 -0.2356
  367BOLB   C3B 8795  20.629   8.926  18.293 -0.4111 -0.1310  0.2225
  367BOLB   C4B 8796  21.087   8.917  18.335  0.0197 -0.1157  0.1924
  367BOLB   NC2 8797  22.305   5.753  18.291 -0.0688  0.0122  0.0843
  367BOLB   PO2 8798  22.628   6.094  18.438  0.0068 -0.2771 -0.3977
  367BOLB   GL3 8799  22.419   6.463  18.548  0.3532  0.1821  0.1801
  367BOLB   GL4 8800  22.418   6.621  18.849 -0.1260  0.0279  0.2087
  367BOLB   C1C 8801  22.039   6.512  18.402  0.3366 -0.0752 -0.1870
  367BOLB   C2C 8802  21.648   6.701  18.569 -0.1113 -0.0913 -0.0070
  367BOLB   C3C 8803  21.414   7.073  18.601 -0.0619 -0.2328  0.0225
  367BOLB   C4C 8804  21.335   7.302  18.929 -0.1403  0.3235  0.2214
  367BOLB   C1D 8805  22.464   6.897  19.168  0.1266 -0.2407 -0.1793
  367BOLB   C2D 8806  22.866   7.000  19.445 -0.0268 -0.2165 -0.0959
  367BOLB   C3D 8807  22.843   7.253  19.730  0.2069  0.1361  0.0377
  367BOLB   C4D 8808  22.615   7.206  20.178  0.1818  0.1793 -0.0231
  368BOLB   NC1 8809  18.836   5.023  25.086  0.3018 -0.1616  0.1077
  368BOLB   PO1 8810  18.472   5.011  25.347 -0.1801 -0.5766  0.1152
  368BOLB   GL1 8811  18.579   4.534  25.363 -0.0636  0.0873 -0.2185
  368BOLB   GL2 8812  18.269   4.294  25.493 -0.2276 -0.1587  0.2752
  368BOLB   C1A 8813  18.645   4.088  25.221  0.1581  0.2820 -0.0169
  368BOLB   C2A 8814  18.995   3.867  24.986  0.1136  0.0663 -0.1162
  368BOLB   C3A 8815  19.188   3.605  24.671  0.2746  0.1756  0.1840
  368BOLB   C4A 8816  19.230   3.244  24.328 -0.0185 -0.1773  0.1820
  368BOLB   C1B 8817  18.248   4.008  25.644 -0.0765 -0.1031 -0.0722
  368BOLB   C2B 8818  18.104   3.569  25.868 -0.0312 -0.2809  0.0130
  368BOLB   C3B 8819  17.920   3.117  25.946 -0.0670 -0.2364  0.0065
  368BOLB   C4B 8820  18.058   2.789  25.852 -0.0970 -0.1867 -0.0751
  368BOLB   NC2 8821  19.721   1.091  23.497 -0.0150 -0.0213 -0.0216
  368BOLB   PO2 8822  19.927   1.459  23.631  0.1516 -0.1451 -0.2465
  368BOLB   GL3 8823  19.815   1.726  23.972  0.0143 -0.2220 -0.1855
  368BOLB   GL4 8824  20.141   1.905  23.975  0.1851 -0.6414 -0.0259
  368BOLB   C1C 8825  19.589   2.026  24.165 -0.0346 -0.1899  0.1802
  368BOLB   C2C 8826  19.615   2.395  24.085 -0.0985 -0.2095 -0.1759
  368BOLB   C3C 8827  19.494   2.728  24.178  0.0503  0.1716 -0.1600
  368BOLB   C4C 8828  19.247   2.991  24.394 -0.0913  0.0541 -0.0245
  368BOLB   C1D 8829  20.159   2.120  24.331  0.0663 -0.1115  0.0248
  368BOLB   C2D 8830  19.901   2.508  24.545 -0.1885 -0.0714  0.0862
  368BOLB   C3D 8831  19.917   2.811  24.774  0.1612 -0.2019  0.1861
  368BOLB   C4D 8832  20.227   3.034  25.008 -0.1546  0.0369  0.0827
  369BOLB   NC1 8833   7.951  11.610  30.404  0.0594 -0.0805  0.0858
  369BOLB   PO1 8834   7.685  12.023  30.503  0.0465  0.0328 -0.4338
  369BOLB   GL1 8835   7.230  11.981  30.516  0.1054  0.0367 -0.0733
  369BOLB   GL2 8836   7.119  11.703  30.450 -0.0065  0.2024  0.3125
  369BOLB   C1A 8837   6.862  12.282  30.678 -0.1196  0.3985  0.1370
  369BOLB   C2A 8838   6.501  12.315  30.951  0.0006  0.2193  0.0374
  369BOLB   C3A 8839   6.118  12.113  31.099 -0.0268 -0.0863  0.0184
  369BOLB   C4A 8840   5.753  11.901  30.778  0.2329 -0.2237 -0.3037
  369BOLB   C1B 8841   6.730  11.844  30.366  0.0748 -0.2015  0.0112
  369BOLB   C2B 8842   6.369  11.749  30.148  0.1054 -0.2010 -0.1421
  369BOLB   C3B 8843   6.003  11.653  29.961  0.4898  0.2462  0.1800
  369BOLB   C4B 8844   5.660  11.544  29.833  0.0322  0.1913  0.3404
  369BOLB   NC2 8845   3.267  12.053  29.864 -0.1088 -0.0010  0.0227
  369BOLB   PO2 8846   3.461  11.980  30.272  0.0434  0.1012 -0.0312
  369BOLB   GL3 8847   3.883  11.933  30.355 -0.0601 -0.1132 -0.1651
  369BOLB   GL4 8848   3.992  12.216  30.549 -0.0943  0.1852  0.2465
  369BOLB   C1C 8849   4.253  11.769  30.455 -0.2127 -0.0568 -0.0837
  369BOLB   C2C 8850   4.661  11.593  30.582  0.3589  0.4092 -0.2231
  369BOLB   C3C 8851   5.039  11.535  30.547 -0.2522  0.1866 -0.0614
  369BOLB   C4C 8852   5.314  11.687  30.786 -0.0884  0.1832 -0.0357
  369BOLB   C1D 8853   4.351  12.343  30.505  0.2202  0.0227 -0.2455
  369BOLB   C2D 8854   4.635  12.602  30.224 -0.0371  0.1895  0.0159
  369BOLB   C3D 8855   5.042  12.590  30.342  0.1716 -0.1734  0.1512
  369BOLB   C4D 8856   5.463  12.749  30.247 -0.0524 -0.0818  0.3165
  370BOLB   NC1 8857  23.688  13.391  33.316  0.1926 -0.1148  0.2355
  370BOLB   PO1 8858  23.506  13.042  33.479 -0.1317 -0.1653 -0.1456
  370BOLB   GL1 8859  23.883  13.042  33.573 -0.0393  0.1986  0.3118
  370BOLB   GL2 8860  23.839  13.194  33.846  0.1648  0.0422  0.1464
  370BOLB   C1A 8861  24.263  13.123  33.462 -0.1463  0.0570 -0.1067
  370BOLB   C2A 8862  24.639  13.201  33.391  0.1545 -0.2004  0.1632
  370BOLB   C3A 8863  25.074  13.197  33.329  0.0524 -0.0161  0.0131
  370BOLB   C4A 8864  25.466  13.225  33.498  0.2321 -0.2688  0.0076
  370BOLB   C1B 8865  24.259  13.223  33.992 -0.0817 -0.5005 -0.4431
  370BOLB   C2B 8866  24.626  13.362  33.952  0.1740  0.1349  0.0878
  370BOLB   C3B 8867  24.868  13.492  34.309 -0.0115 -0.2234  0.1219
  370BOLB   C4B 8868  24.869  13.314  34.737  0.1308 -0.0763 -0.0167
  370BOLB   NC2 8869   0.422  14.304  33.603  0.1041  0.2256  0.1987
  370BOLB   PO2 8870   0.241  14.709  33.837  0.1817 -0.2210 -0.0167
  370BOLB   GL3 8871  27.017  14.575  33.493  0.1699  0.0306  0.1910
  370BOLB   GL4 8872  26.790  14.728  33.794  0.0947 -0.0869  0.1162
  370BOLB   C1C 8873  26.729  14.354  33.460  0.0514 -0.1432 -0.0203
  370BOLB   C2C 8874  26.328  14.097  33.450  0.1450  0.0123 -0.2142
  370BOLB   C3C 8875  26.144  13.698  33.444 -0.1092 -0.2121 -0.0514
  370BOLB   C4C 8876  25.767  13.572  33.599  0.1551 -0.2278  0.2374
  370BOLB   C1D 8877  26.367  14.543  33.831  0.0122  0.1932 -0.0853
  370BOLB   C2D 8878  25.892  14.503  34.044 -0.3272  0.1278  0.2203
  370BOLB   C3D 8879  25.418  14.620  34.092 -0.4458  0.1507  0.0998
  370BOLB   C4D 8880  25.065  14.895  33.959  0.2304 -0.0918  0.0176
  371BOLB   NC1 8881  19.885  18.007  33.550 -0.2849 -0.3119 -0.2233
  371BOLB   PO1 8882  19.929  18.290  33.221  0.0472 -0.0315 -0.0094
  371BOLB   GL1 8883  20.298  18.581  33.174 -0.1508  0.0055 -0.1642
  371BOLB   GL2 8884  20.400  18.705  33.357  0.3438 -0.0000  0.1631
  371BOLB   C1A 8885  20.577  18.887  32.902 -0.1387 -0.1834  0.1120
  371BOLB   C2A 8886  20.889  19.217  32.677  0.2231  0.1479 -0.1312
  371BOLB   C3A 8887  21.126  19.566  32.631 -0.0732 -0.0023 -0.0616
  371BOLB   C4A 8888  21.327  19.869  32.933 -0.0354  0.2452 -0.2693
  371BOLB   C1B 8889  20.742  18.933  33.339  0.1919 -0.3567 -0.2321
  371BOLB   C2B 8890  20.894  19.061  33.586  0.0868 -0.1980  0.4873
  371BOLB   C3B 8891  21.122  19.392  33.464  0.0770  0.2610  0.0012
  371BOLB   C4B 8892  21.411  19.577  33.309 -0.0203 -0.0887 -0.0960
  371BOLB   NC2 8893  23.373  21.026  32.350 -0.1045 -0.1389 -0.0284
  371BOLB   PO2 8894  23.201  21.249  32.559  0.4198 -0.0372 -0.1322
  371BOLB   GL3 8895  23.071  20.871  32.685  0.1903  0.0558 -0.1967
  371BOLB   GL4 8896  23.179  20.692  32.963  0.0233 -0.3418  0.1698
  371BOLB   C1C 8897  22.713  20.636  32.560  0.0029  0.0497 -0.1363
  371BOLB   C2C 8898  22.332  20.442  32.635 -0.1783 -0.2316  0.3211
  371BOLB   C3C 8899  22.039  20.241  32.867 -0.1660  0.0910 -0.3607
  371BOLB   C4C 8900  21.652  20.167  33.050 -0.2986 -0.1232  0.0187
  371BOLB   C1D 8901  23.075  20.385  32.786 -0.3419 -0.1540 -0.0692
  371BOLB   C2D 8902  22.670  20.086  32.690 -0.0846  0.1291 -0.1892
  371BOLB   C3D 8903  22.381  19.936  32.954  0.0244  0.2430  0.3122
  371BOLB   C4D 8904  22.386  19.651  33.322  0.3419  0.0775  0.1214
  372BOLB   NC1 8905  17.841   9.691  19.369  0.1649 -0.4531  0.2063
  372BOLB   PO1 8906  18.171   9.594  19.653  0.2129  0.1211 -0.0339
  372BOLB   GL1 8907  18.206   9.387  19.209  0.0681  0.0483 -0.1399
  372BOLB   GL2 8908  18.001   9.190  19.276  0.2171 -0.0626 -0.0959
  372BOLB   C1A 8909  18.412   9.346  18.854  0.0455  0.2932 -0.0991
  372BOLB   C2A 8910  18.362   9.520  18.441 -0.4882 -0.2307  0.2195
  372BOLB   C3A 8911  18.262   9.523  17.959 -0.2329  0.4334 -0.2024
  372BOLB   C4A 8912  18.057   9.265  17.586  0.0617 -0.0664 -0.0581
  372BOLB   C1B 8913  17.922   8.825  19.119  0.0693  0.0663 -0.2719
  372BOLB   C2B 8914  17.878   8.708  18.715  0.1746 -0.0815  0.2129
  372BOLB   C3B 8915  17.775   8.616  18.211 -0.2300  0.1025  0.0842
  372BOLB   C4B 8916  17.894   8.404  17.794  0.1400  0.0125  0.3436
  372BOLB   NC2 8917  17.647   8.520  15.221 -0.2564  0.0419 -0.0611
  372BOLB   PO2 8918  17.867   8.711  15.388 -0.2012  0.1352  0.3023
  372BOLB   GL3 8919  17.875   8.887  15.827  0.2377  0.1440  0.0524
  372BOLB   GL4 8920  18.029   9.274  15.721  0.2427 -0.0874  0.0309
  372BOLB   C1C 8921  18.047   8.714  16.172 -0.0498 -0.3097 -0.0788
  372BOLB   C2C 8922  18.160   8.739  16.618  0.0475  0.0893  0.0771
  372BOLB   C3C 8923  17.839   8.857  16.810 -0.1260  0.2847 -0.0943
  372BOLB   C4C 8924  17.964   9.105  17.180 -0.1929 -0.1367  0.2408
  372BOLB   C1D 8925  18.032   9.659  15.847 -0.1298  0.0805 -0.0991
  372BOLB   C2D 8926  17.971   9.809  16.083  0.0379 -0.3131 -0.3090
  372BOLB   C3D 8927  17.642  10.007  16.270 -0.2275 -0.1869 -0.0826
  372BOLB   C4D 8928  17.523  10.307  16.647  0.0948  0.0275 -0.1728
  373BOLB   NC1 8929  22.609  14.665  28.841  0.1695  0.1558  0.2344
  373BOLB   PO1 8930  22.800  14.392  28.579 -0.2754 -0.2489 -0.0076
  373BOLB   GL1 8931  23.105  14.457  28.501  0.1505  0.1275  0.0373
  373BOLB   GL2 8932  23.087  14.537  28.201 -0.0584 -0.1179 -0.0977
  373BOLB   C1A 8933  23.388  14.805  28.499 -0.0808  0.0297 -0.1695
  373BOLB   C2A 8934  23.701  15.007  28.349  0.0013 -0.1134 -0.0464
  373BOLB   C3A 8935  24.009  15.128  28.352 -0.3129 -0.0338  0.0675
  373BOLB   C4A 8936  24.374  15.409  28.233  0.1407  0.0211 -0.2051
  373BOLB   C1B 8937  23.181  14.978  28.123 -0.1761 -0.1588 -0.1191
  373BOLB   C2B 8938  23.312  15.405  28.262 -0.0274  0.0091 -0.2560
  373BOLB   C3B 8939  23.526  15.701  28.317  0.1064  0.1073  0.0397
  373BOLB   C4B 8940  23.569  16.055  28.055 -0.0143 -0.0546 -0.0809
  373BOLB   NC2 8941  26.721  16.784  28.750 -0.0676  0.0179 -0.0612
  373BOLB   PO2 8942  26.459  16.482  28.463 -0.2343  0.0291 -0.0492
  373BOLB   GL3 8943  26.061  16.190  28.569 -0.2952  0.1198 -0.0185
  373BOLB   GL4 8944  25.978  16.234  28.878  0.0282  0.0729  0.0591
  373BOLB   C1C 8945  25.583  15.998  28.552  0.3356 -0.1739 -0.0214
  373BOLB   C2C 8946  25.231  16.000  28.513 -0.4391 -0.2808  0.3437
  373BOLB   C3C 8947  24.855  16.033  28.395  0.0535  0.2522  0.1106
  373BOLB   C4C 8948  24.626  15.701  28.123 -0.1563 -0.0404  0.0739
  373BOLB   C1D 8949  25.875  16.507  29.294  0.2032 -0.2749  0.0249
  373BOLB   C2D 8950  25.525  16.437  29.491 -0.1991 -0.1814  0.0243
  373BOLB   C3D 8951  25.160  16.275  29.499  0.1003  0.4915  0.1840
  373BOLB   C4D 8952  24.851  16.200  29.654 -0.2142 -0.1382 -0.1373
  374BOLB   NC1 8953  15.270  20.474  28.152  0.0708 -0.1510 -0.5376
  374BOLB   PO1 8954  15.669  20.648  28.167  0.2615  0.0210  0.0876
  374BOLB   GL1 8955  15.888  21.083  28.257  0.0055  0.2085  0.1286
  374BOLB   GL2 8956  15.628  21.258  28.385  0.1662  0.2498  0.3578
  374BOLB   C1A 8957  16.222  21.358  28.311  0.1828 -0.0764 -0.1024
  374BOLB   C2A 8958  16.220  21.767  28.324 -0.0462 -0.3931 -0.0883
  374BOLB   C3A 8959  16.174  22.233  28.377  0.0019  0.0429  0.0967
  374BOLB   C4A 8960  16.233  22.601  28.575 -0.0815  0.0652 -0.1992
  374BOLB   C1B 8961  15.736  21.602  28.216  0.2660 -0.1396  0.0229
  374BOLB   C2B 8962  15.763  22.009  28.171  0.0414  0.0703 -0.1390
  374BOLB   C3B 8963  15.823  22.398  28.033 -0.0766 -0.0389  0.0232
  374BOLB   C4B 8964  16.088  22.567  27.905 -0.6799  0.2347 -0.0714
  374BOLB   NC2 8965  16.557  25.060  28.459 -0.0789  0.0646 -0.0433
  374BOLB   PO2 8966  16.391  24.885  28.080 -0.0556  0.1280  0.0125
  374BOLB   GL3 8967  16.278  24.527  28.175 -0.1547 -0.2574  0.4652
  374BOLB   GL4 8968  15.878  24.432  28.127  0.2426 -0.0841  0.1813
  374BOLB   C1C 8969  16.194  24.106  28.307 -0.0777  0.0642  0.5029
  374BOLB   C2C 8970  16.071  23.640  28.289  0.0458 -0.3358  0.4958
  374BOLB   C3C 8971  15.969  23.245  28.205  0.2419  0.0201  0.1334
  374BOLB   C4C 8972  16.079  22.888  28.327 -0.0348  0.2107  0.1087
  374BOLB   C1D 8973  15.798  24.054  27.994 -0.1439  0.2593 -0.1020
  374BOLB   C2D 8974  16.068  23.894  27.806 -0.2189 -0.0752 -0.0345
  374BOLB   C3D 8975  16.410  23.809  27.697 -0.0407  0.2447 -0.1727
  374BOLB   C4D 8976  16.454  23.343  27.666 -0.0563 -0.0954 -0.0920
  375BOLB   NC1 8977  22.826  15.081  31.479 -0.2053  0.0715 -0.3660
  375BOLB   PO1 8978  22.664  15.144  31.105 -0.0218 -0.2119 -0.0496
  375BOLB   GL1 8979  23.049  15.223  30.925  0.0258  0.0757  0.1648
  375BOLB   GL2 8980  22.964  15.186  30.566 -0.0731 -0.2337 -0.1406
  375BOLB   C1A 8981  23.522  15.394  31.005 -0.0461 -0.3575 -0.0146
  375BOLB   C2A 8982  23.857  15.763  31.201 -0.1987 -0.0466  0.0100
  375BOLB   C3A 8983  24.298  16.021  31.104 -0.1583  0.0195 -0.1065
  375BOLB   C4A 8984  24.425  16.326  30.845  0.1668  0.1898  0.3830
  375BOLB   C1B 8985  23.305  15.414  30.557 -0.1540  0.4810  0.0213
  375BOLB   C2B 8986  23.666  15.424  30.419 -0.0310  0.0976  0.2080
  375BOLB   C3B 8987  24.005  15.569  30.364  0.1445  0.0500  0.1660
  375BOLB   C4B 8988  24.316  15.586  30.272 -0.2594  0.0283 -0.0040
  375BOLB   NC2 8989  25.850  18.142  30.056  0.1094  0.0058  0.0498
  375BOLB   PO2 8990  25.506  18.298  30.367  0.1150 -0.0631  0.0632
  375BOLB   GL3 8991  25.083  18.151  30.383  0.0168  0.2117 -0.1051
  375BOLB   GL4 8992  25.052  18.221  30.043 -0.2851  0.0707  0.1049
  375BOLB   C1C 8993  24.764  17.920  30.477 -0.0754  0.0882  0.0237
  375BOLB   C2C 8994  24.490  17.571  30.574  0.1489  0.6025 -0.0210
  375BOLB   C3C 8995  24.271  17.123  30.603  0.0063 -0.0271 -0.0947
  375BOLB   C4C 8996  24.406  16.754  30.866 -0.2992 -0.3782  0.4323
  375BOLB   C1D 8997  24.949  17.794  29.891 -0.1725 -0.1526  0.1454
  375BOLB   C2D 8998  24.670  17.595  30.092 -0.2897  0.1436  0.1449
  375BOLB   C3D 8999  24.387  17.295  30.030 -0.1069  0.1039 -0.0109
  375BOLB   C4D 9000  23.983  17.232  30.162 -0.2894  0.3320  0.0992
  376BOLB   NC1 9001  10.051   9.810  25.642 -0.0995  0.3667  0.3171
  376BOLB   PO1 9002   9.588   9.985  25.793  0.1604 -0.1615  0.2347
  376BOLB   GL1 9003   9.225   9.864  25.483  0.2364  0.0529 -0.5215
  376BOLB   GL2 9004   8.946  10.049  25.567  0.1884  0.0792 -0.0395
  376BOLB   C1A 9005   9.002   9.466  25.401 -0.1213 -0.1153 -0.0128
  376BOLB   C2A 9006   8.615   9.242  25.386  0.0420 -0.1343 -0.2312
  376BOLB   C3A 9007   8.367   9.036  25.229 -0.1254 -0.2140  0.1721
  376BOLB   C4A 9008   7.917   8.838  25.020 -0.0001  0.0382  0.1943
  376BOLB   C1B 9009   8.684   9.861  25.275 -0.0617  0.2508  0.1944
  376BOLB   C2B 9010   8.334   9.860  24.860 -0.0329  0.1254  0.1196
  376BOLB   C3B 9011   7.950   9.801  24.669 -0.2802  0.0691  0.0765
  376BOLB   C4B 9012   7.535  10.055  24.705 -0.3883  0.3790  0.0371
  376BOLB   NC2 9013   6.128   7.453  23.964 -0.0152  0.1684  0.2855
  376BOLB   PO2 9014   6.082   7.193  24.448  0.0011 -0.3357  0.0900
  376BOLB   GL3 9015   6.516   7.331  24.517  0.1859 -0.1079 -0.0378
  376BOLB   GL4 9016   6.652   7.218  24.791  0.0081  0.0068 -0.0949
  376BOLB   C1C 9017   6.865   7.575  24.465  0.1389  0.0942 -0.3341
  376BOLB   C2C 9018   7.170   7.994  24.571 -0.2255 -0.0677  0.1651
  376BOLB   C3C 9019   7.282   8.393  24.651  0.2670 -0.0799 -0.1507
  376BOLB   C4C 9020   7.650   8.716  24.709 -0.0600  0.0458  0.0969
  376BOLB   C1D 9021   7.129   7.357  24.910 -0.3385  0.2942 -0.1532
  376BOLB   C2D 9022   7.413   7.602  24.788 -0.0999 -0.0539  0.1047
  376BOLB   C3D 9023   7.580   8.035  24.816 -0.0610 -0.2699 -0.0184
  376BOLB   C4D 9024   7.630   8.374  25.085 -0.1932  0.2055  0.0692
  377BOLB   NC1 9025  16.916   7.077  21.666  0.3958 -0.0092  0.1190
  377BOLB   PO1 9026  16.478   7.094  21.533 -0.3354 -0.0367  0.2769
  377BOLB   GL1 9027  16.666   6.770  21.322  0.1725  0.3517  0.0948
  377BOLB   GL2 9028  16.401   6.577  21.504 -0.0500  0.0317  0.1104
  377BOLB   C1A 9029  16.646   6.414  21.028 -0.0551 -0.1750  0.2952
  377BOLB   C2A 9030  16.470   6.035  20.879  0.1873 -0.1704  0.1205
  377BOLB   C3A 9031  16.658   5.683  20.604 -0.0870  0.2578  0.0599
  377BOLB   C4A 9032  16.717   5.343  20.357  0.1682 -0.2500 -0.0898
  377BOLB   C1B 9033  16.395   6.179  21.382 -0.1358 -0.1892  0.3476
  377BOLB   C2B 9034  16.325   5.707  21.266 -0.0253  0.0531  0.1273
  377BOLB   C3B 9035  16.311   5.489  20.883  0.1195 -0.0715  0.0743
  377BOLB   C4B 9036  16.352   5.159  20.588 -0.0950 -0.3018 -0.2842
  377BOLB   NC2 9037  15.429   4.435  18.352 -0.1551  0.2533  0.1208
  377BOLB   PO2 9038  15.866   4.293  18.395 -0.0613  0.0389 -0.0746
  377BOLB   GL3 9039  15.967   4.478  18.652  0.2088 -0.2136  0.1650
  377BOLB   GL4 9040  15.534   4.557  18.816  0.0879 -0.0236  0.1569
  377BOLB   C1C 9041  16.165   4.673  19.048 -0.2045 -0.2800  0.0280
  377BOLB   C2C 9042  16.352   5.007  19.321  0.2289 -0.3823 -0.1978
  377BOLB   C3C 9043  16.620   5.114  19.645 -0.1388 -0.2128 -0.3336
  377BOLB   C4C 9044  16.519   5.219  20.037 -0.0328 -0.0489 -0.2567
  377BOLB   C1D 9045  15.430   4.991  19.092 -0.0584  0.0410  0.1280
  377BOLB   C2D 9046  15.490   5.395  19.244 -0.2471 -0.0027 -0.0386
  377BOLB   C3D 9047  15.549   5.748  19.266 -0.1779 -0.0968 -0.1916
  377BOLB   C4D 9048  15.685   6.088  19.536 -0.2618  0.0723  0.1588
  378BOLB   NC1 9049  10.532   6.484  29.363 -0.0057  0.4901  0.1970
  378BOLB   PO1 9050  10.571   6.547  28.894  0.0472  0.1478 -0.4012
  378BOLB   GL1 9051  10.177   6.366  28.985  0.3312  0.2870  0.2407
  378BOLB   GL2 9052  10.216   6.052  29.237  0.1844 -0.0222 -0.0677
  378BOLB   C1A 9053   9.744   6.240  29.215 -0.0455  0.0253 -0.1939
  378BOLB   C2A 9054   9.465   5.876  29.298  0.0447 -0.3868  0.1337
  378BOLB   C3A 9055   9.467   5.517  29.647  0.1134  0.3551  0.4963
  378BOLB   C4A 9056   9.277   5.135  29.692  0.2259  0.2561 -0.1216
  378BOLB   C1B 9057   9.986   5.696  29.164  0.0968  0.0954  0.0233
  378BOLB   C2B 9058   9.685   5.463  29.184  0.2213  0.0338  0.2258
  378BOLB   C3B 9059   9.313   5.299  29.101 -0.1503 -0.1566 -0.1908
  378BOLB   C4B 9060   8.939   5.125  29.209  0.0613 -0.1361  0.1046
  378BOLB   NC2 9061   7.803   3.256  29.137 -0.0189  0.1740 -0.0657
  378BOLB   PO2 9062   8.061   3.338  28.841 -0.0897  0.1343  0.2221
  378BOLB   GL3 9063   8.181   3.753  28.936 -0.0129 -0.0130  0.2637
  378BOLB   GL4 9064   7.992   4.074  28.964 -0.3123  0.0368  0.1467
  378BOLB   C1C 9065   8.522   3.942  29.158  0.1209 -0.0624 -0.3309
  378BOLB   C2C 9066   8.893   4.185  29.202  0.2481 -0.1918  0.0650
  378BOLB   C3C 9067   8.986   4.413  29.560  0.1057  0.5509 -0.0514
  378BOLB   C4C 9068   9.168   4.697  29.769 -0.0404 -0.2736 -0.3301
  378BOLB   C1D 9069   8.397   4.096  28.641  0.2870 -0.0353 -0.1762
  378BOLB   C2D 9070   8.459   4.551  28.403 -0.0167 -0.2650 -0.0567
  378BOLB   C3D 9071   8.493   4.983  28.198  0.0778  0.4964  0.0576
  378BOLB   C4D 9072   8.109   5.357  28.151  0.1031  0.3790 -0.1950
  379BOLB   NC1 9073  25.020  11.758  18.778  0.0018 -0.2724 -0.0348
  379BOLB   PO1 9074  25.240  11.905  19.130  0.0053 -0.0708  0.2364
  379BOLB   GL1 9075  24.897  11.710  19.235  0.1173 -0.3526 -0.2269
  379BOLB   GL2 9076  24.653  11.447  19.149 -0.0155 -0.3870 -0.0847
  379BOLB   C1A 9077  24.583  11.881  19.383 -0.0012  0.0757  0.0749
  379BOLB   C2A 9078  24.153  12.035  19.464  0.0960  0.1088  0.3556
  379BOLB   C3A 9079  23.765  11.756  19.418  0.1032 -0.0121 -0.3585
  379BOLB   C4A 9080  23.365  11.639  19.197 -0.1010  0.0869 -0.0386
  379BOLB   C1B 9081  24.288  11.483  19.327  0.0408 -0.2001 -0.3552
  379BOLB   C2B 9082  23.960  11.268  19.440  0.0360  0.1673 -0.3221
  379BOLB   C3B 9083  23.523  11.260  19.580 -0.4844 -0.1118  0.0852
  379BOLB   C4B 9084  23.219  11.543  19.792 -0.3423 -0.4938  0.3334
  379BOLB   NC2 9085  23.672  11.212  16.925 -0.1784 -0.1714  0.0030
  379BOLB   PO2 9086  23.808  11.606  17.196 -0.0066 -0.0485  0.0186
  379BOLB   GL3 9087  23.608  11.280  17.447  0.1574 -0.4164  0.0823
  379BOLB   GL4 9088  23.347  11.123  17.383  0.1487  0.2267  0.1219
  379BOLB   C1C 9089  23.619  11.301  17.930 -0.2736  0.2626 -0.0958
  379BOLB   C2C 9090  23.358  11.214  18.171 -0.3172  0.0624 -0.1714
  379BOLB   C3C 9091  23.305  11.204  18.562  0.3084  0.0599  0.0204
  379BOLB   C4C 9092  23.247  11.442  18.847  0.3736  0.0096 -0.1231
  379BOLB   C1D 9093  23.095  11.137  17.786 -0.1568  0.1909  0.2293
  379BOLB   C2D 9094  22.892  11.391  18.173  0.1755 -0.0130  0.3085
  379BOLB   C3D 9095  22.838  11.526  18.568 -0.0871  0.0189 -0.3928
  379BOLB   C4D 9096  22.757  11.923  18.710  0.0839 -0.0030  0.1706
  380BOLB   NC1 9097  22.464  15.795  33.960 -0.1800 -0.2095  0.0699
  380BOLB   PO1 9098  22.141  16.199  33.998 -0.1942  0.0069 -0.2535
  380BOLB   GL1 9099  22.703  16.228  34.129 -0.0088  0.0862  0.0261
  380BOLB   GL2 9100  22.912  16.073  33.924 -0.1368  0.1783  0.0656
  380BOLB   C1A 9101  22.899  16.656  34.189 -0.2554  0.0417  0.0362
  380BOLB   C2A 9102  22.906  16.960  34.412  0.1560 -0.2103  0.3692
  380BOLB   C3A 9103  23.238  17.056  34.680 -0.1085 -0.0694 -0.1564
  380BOLB   C4A 9104  23.609  17.042  34.892 -0.0295 -0.0686 -0.2941
  380BOLB   C1B 9105  23.295  16.378  34.021 -0.1638  0.1127  0.0475
  380BOLB   C2B 9106  23.764  16.543  33.969  0.1791 -0.2246  0.1154
  380BOLB   C3B 9107  24.110  16.711  33.733 -0.0539 -0.2516 -0.2156
  380BOLB   C4B 9108  24.490  16.623  33.953  0.0688 -0.1630  0.1074
  380BOLB   NC2 9109  25.480  18.297  36.256  0.0939 -0.2983  0.2385
  380BOLB   PO2 9110  25.068  18.231  36.468  0.0378 -0.2476 -0.4729
  380BOLB   GL3 9111  24.847  18.388  36.115  0.0981  0.0292  0.2110
  380BOLB   GL4 9112  24.670  18.632  36.031 -0.0080 -0.0295  0.4675
  380BOLB   C1C 9113  24.510  18.227  35.745 -0.2446  0.5364 -0.3936
  380BOLB   C2C 9114  24.332  17.922  35.341 -0.0306 -0.3031 -0.1022
  380BOLB   C3C 9115  24.217  17.648  35.057  0.0813 -0.0870  0.2162
  380BOLB   C4C 9116  24.110  17.255  34.971 -0.0310 -0.1597 -0.0580
  380BOLB   C1D 9117  24.241  18.452  36.166 -0.3843 -0.2782 -0.0535
  380BOLB   C2D 9118  23.924  18.391  36.117  0.0065 -0.1253 -0.0065
  380BOLB   C3D 9119  23.530  18.129  35.967  0.0244  0.3610 -0.0599
  380BOLB   C4D 9120  23.086  18.150  35.912  0.0894 -0.0712 -0.0887
  381BOLB   NC1 9121  23.017  10.954  34.754 -0.1247  0.1735 -0.1594
  381BOLB   PO1 9122  22.758  10.629  34.986 -0.0031 -0.0769 -0.3931
  381BOLB   GL1 9123  23.101  10.482  35.137  0.1391  0.0345 -0.1185
  381BOLB   GL2 9124  23.389  10.669  35.059 -0.2500  0.2132 -0.0021
  381BOLB   C1A 9125  23.403  10.156  35.212 -0.2101 -0.1359 -0.0018
  381BOLB   C2A 9126  23.717  10.045  35.370  0.1970 -0.1777  0.0414
  381BOLB   C3A 9127  24.193   9.928  35.497 -0.2496  0.3894  0.1827
  381BOLB   C4A 9128  24.560   9.943  35.633 -0.0353 -0.3004  0.0152
  381BOLB   C1B 9129  23.814  10.506  35.192 -0.0889  0.2609 -0.1293
  381BOLB   C2B 9130  24.214  10.448  35.398  0.0079 -0.2684 -0.3271
  381BOLB   C3B 9131  24.668  10.445  35.453  0.1389  0.0049 -0.1339
  381BOLB   C4B 9132  25.098  10.674  35.516 -0.3752  0.2234  0.0447
  381BOLB   NC2 9133  26.139   8.364  36.953  0.2159 -0.1993  0.3299
  381BOLB   PO2 9134  26.343   8.549  36.663  0.0007 -0.4773 -0.0512
  381BOLB   GL3 9135  26.021   8.664  36.397  0.3354  0.1362  0.7287
  381BOLB   GL4 9136  26.073   8.560  36.078 -0.2835  0.1327  0.3266
  381BOLB   C1C 9137  25.560   8.806  36.484 -0.1216  0.2528 -0.1426
  381BOLB   C2C 9138  25.414   9.168  36.375 -0.1912 -0.0718  0.1971
  381BOLB   C3C 9139  25.221   9.465  36.023 -0.0167 -0.1436  0.0544
  381BOLB   C4C 9140  24.925   9.724  35.862 -0.1307  0.0908 -0.0741
  381BOLB   C1D 9141  25.629   8.480  36.081 -0.1134  0.0322 -0.0465
  381BOLB   C2D 9142  25.211   8.543  36.079 -0.0056 -0.1111  0.2414
  381BOLB   C3D 9143  24.916   8.606  35.845  0.1097  0.0635 -0.3255
  381BOLB   C4D 9144  24.690   8.776  35.460  0.1067  0.2519 -0.2424
  382BOLB   NC1 9145  10.452   7.250  29.134  0.0056  0.0728 -0.2147
  382BOLB   PO1 9146  10.170   6.925  29.091 -0.1061 -0.3999 -0.0520
  382BOLB   GL1 9147   9.777   6.743  28.986 -0.0338  0.0727 -0.5744
  382BOLB   GL2 9148   9.636   7.018  29.149  0.3952 -0.1173  0.2535
  382BOLB   C1A 9149   9.373   6.553  29.164 -0.2219 -0.0252  0.3198
  382BOLB   C2A 9150   9.154   6.299  29.467 -0.1162 -0.0753 -0.1916
  382BOLB   C3A 9151   8.854   6.077  29.514  0.2562  0.0596 -0.3370
  382BOLB   C4A 9152   8.780   5.611  29.561  0.3243 -0.2285  0.0352
  382BOLB   C1B 9153   9.617   6.816  29.479  0.1656  0.1446  0.0027
  382BOLB   C2B 9154   9.580   6.503  29.687  0.2665  0.0085  0.0002
  382BOLB   C3B 9155   9.441   6.096  29.909  0.1420 -0.0664 -0.1333
  382BOLB   C4B 9156   9.142   5.760  29.954 -0.2801  0.0420  0.0385
  382BOLB   NC2 9157   6.376   4.372  29.725 -0.1502 -0.1997  0.1916
  382BOLB   PO2 9158   6.844   4.218  29.742  0.1454  0.1656 -0.0288
  382BOLB   GL3 9159   7.172   4.544  29.927  0.1150  0.4022 -0.1079
  382BOLB   GL4 9160   7.198   4.606  29.647  0.2801 -0.2579 -0.2340
  382BOLB   C1C 9161   7.265   4.971  30.037  0.2277  0.0937 -0.3852
  382BOLB   C2C 9162   7.775   4.909  30.096 -0.2174  0.4162  0.1170
  382BOLB   C3C 9163   8.157   5.174  29.934  0.3167  0.0579  0.0302
  382BOLB   C4C 9164   8.381   5.319  29.569 -0.0809  0.1919  0.0236
  382BOLB   C1D 9165   7.537   4.942  29.646 -0.2066 -0.1205 -0.3207
  382BOLB   C2D 9166   7.763   5.350  29.811 -0.2754 -0.3348  0.3132
  382BOLB   C3D 9167   8.098   5.685  29.781 -0.0488 -0.0183  0.0280
  382BOLB   C4D 9168   8.417   5.925  29.581 -0.0966 -0.0508 -0.3140
  383BOLB   NC1 9169  12.118  18.905  35.133 -0.0262  0.1116 -0.1349
  383BOLB   PO1 9170  11.721  18.975  35.341  0.1241  0.2847  0.1818
  383BOLB   GL1 9171  11.534  19.450  35.446 -0.2350  0.1007  0.1107
  383BOLB   GL2 9172  11.220  19.336  35.402  0.2368 -0.3889  0.1499
  383BOLB   C1A 9173  11.306  19.778  35.698  0.0044  0.0916 -0.1541
  383BOLB   C2A 9174  11.158  20.171  35.993 -0.1465  0.1633  0.1020
  383BOLB   C3A 9175  10.870  20.415  36.290 -0.1325 -0.2032  0.2367
  383BOLB   C4A 9176  10.791  20.736  36.583  0.1745  0.1836  0.1403
  383BOLB   C1B 9177  10.901  19.454  35.636 -0.1961  0.0293 -0.0544
  383BOLB   C2B 9178  10.905  19.733  35.980 -0.0491  0.0204  0.1481
  383BOLB   C3B 9179  10.802  19.964  36.425 -0.3019  0.0097  0.0691
  383BOLB   C4B 9180  10.725  20.200  36.817  0.0000  0.4515  0.1599
  383BOLB   NC2 9181   9.795  21.703  38.314  0.1391  0.3337  0.2848
  383BOLB   PO2 9182   9.372  21.690  38.112  0.0186  0.2176  0.1611
  383BOLB   GL3 9183   9.741  21.719  37.840  0.0122 -0.1463  0.1211
  383BOLB   GL4 9184   9.949  21.479  37.868 -0.0895 -0.2817  0.0590
  383BOLB   C1C 9185  10.095  21.704  37.434 -0.1617  0.3116  0.2313
  383BOLB   C2C 9186  10.253  21.712  37.015 -0.0803  0.0708  0.0778
  383BOLB   C3C 9187  10.383  21.471  36.718  0.3602  0.1134 -0.0951
  383BOLB   C4C 9188  10.509  21.106  36.552 -0.2930 -0.5512 -0.0918
  383BOLB   C1D 9189  10.058  21.233  37.603  0.1655  0.1268  0.1027
  383BOLB   C2D 9190  10.303  20.801  37.443 -0.0761  0.0181  0.0833
  383BOLB   C3D 9191  10.414  20.509  37.054  0.1191 -0.0744 -0.1058
  383BOLB   C4D 9192  10.339  20.622  36.595 -0.2186 -0.0039  0.1439
  384BOLB   NC1 9193  20.185   5.943  25.981  0.0441  0.1143 -0.0843
  384BOLB   PO1 9194  20.398   5.547  26.142 -0.2310 -0.2028  0.0910
  384BOLB   GL1 9195  20.660   5.161  26.182 -0.1412  0.0874 -0.0981
  384BOLB   GL2 9196  20.556   4.835  26.320  0.0812 -0.2073  0.1585
  384BOLB   C1A 9197  21.032   4.862  26.130  0.2249  0.4472 -0.0782
  384BOLB   C2A 9198  20.977   4.424  26.264  0.0570 -0.0819 -0.0818
  384BOLB   C3A 9199  21.207   4.076  26.223  0.0170 -0.0609 -0.1458
  384BOLB   C4A 9200  21.190   3.722  25.978  0.0709  0.1114  0.3052
  384BOLB   C1B 9201  20.805   4.711  26.670 -0.0342 -0.1423  0.1572
  384BOLB   C2B 9202  21.138   4.542  26.826 -0.2236 -0.0283  0.1493
  384BOLB   C3B 9203  21.479   4.243  26.980 -0.0183 -0.1136  0.1121
  384BOLB   C4B 9204  21.590   3.958  26.611 -0.2783  0.2224  0.1290
  384BOLB   NC2 9205  22.039   1.486  25.342 -0.1022  0.2150 -0.1348
  384BOLB   PO2 9206  21.747   1.273  25.648 -0.0567  0.0743  0.0569
  384BOLB   GL3 9207  21.789   1.604  25.848  0.1173 -0.0569  0.0213
  384BOLB   GL4 9208  21.925   1.794  26.206 -0.0171 -0.1122 -0.0458
  384BOLB   C1C 9209  21.497   2.064  25.942  0.0282 -0.5440  0.0117
  384BOLB   C2C 9210  21.267   2.442  26.062  0.1775 -0.0485  0.0002
  384BOLB   C3C 9211  21.270   2.892  26.081  0.3439 -0.0288 -0.0053
  384BOLB   C4C 9212  21.219   3.233  26.098  0.0396 -0.1661 -0.1607
  384BOLB   C1D 9213  21.644   2.102  26.402  0.2605 -0.0081 -0.0547
  384BOLB   C2D 9214  21.568   2.338  26.774 -0.1257 -0.0840 -0.0311
  384BOLB   C3D 9215  21.461   2.656  26.939 -0.0031 -0.1253  0.2031
  384BOLB   C4D 9216  21.454   3.099  27.081  0.0465 -0.4382 -0.3505
  385BOLB   NC1 9217   8.330   9.641  32.079 -0.0113 -0.0718 -0.2327
  385BOLB   PO1 9218   8.091   9.487  31.806 -0.0696  0.0427 -0.1719
  385BOLB   GL1 9219   7.742   9.576  31.623  0.2306 -0.0436  0.2219
  385BOLB   GL2 9220   7.549   9.286  31.465 -0.1443  0.1540  0.0374
  385BOLB   C1A 9221   7.252   9.628  31.606  0.1241  0.0567  0.3058
  385BOLB   C2A 9222   6.934   9.521  31.419 -0.0250 -0.2386  0.0769
  385BOLB   C3A 9223   6.570   9.665  31.468 -0.0093 -0.2793  0.0707
  385BOLB   C4A 9224   6.136   9.762  31.426  0.1517  0.2482 -0.0365
  385BOLB   C1B 9225   7.174   9.069  31.190 -0.2612  0.1592 -0.1218
  385BOLB   C2B 9226   6.798   9.068  31.231  0.1560 -0.1879  0.2476
  385BOLB   C3B 9227   6.451   9.123  31.419  0.0861 -0.0103 -0.2795
  385BOLB   C4B 9228   6.255   9.409  31.757 -0.0101  0.0067  0.0302
  385BOLB   NC2 9229   3.884   9.999  31.130 -0.1946 -0.0223  0.3927
  385BOLB   PO2 9230   3.933   9.588  31.168 -0.1131 -0.2361  0.0642
  385BOLB   GL3 9231   4.275   9.332  31.320 -0.0511  0.2110  0.0054
  385BOLB   GL4 9232   4.495   9.140  31.407  0.0201 -0.5079 -0.0109
  385BOLB   C1C 9233   4.745   9.585  31.541  0.1771 -0.0316  0.1824
  385BOLB   C2C 9234   5.060   9.717  31.785 -0.0238 -0.0151 -0.3084
  385BOLB   C3C 9235   5.369   9.882  31.935  0.4786 -0.1005 -0.0275
  385BOLB   C4C 9236   5.838   9.749  31.740  0.0585 -0.3050  0.1242
  385BOLB   C1D 9237   4.896   9.174  31.435  0.1020  0.1569 -0.1897
  385BOLB   C2D 9238   5.237   9.371  31.538  0.0172 -0.0769  0.1890
  385BOLB   C3D 9239   5.630   9.370  31.409 -0.3917  0.1533 -0.1585
  385BOLB   C4D 9240   5.953   9.339  31.165 -0.4197  0.2549  0.3363
  386BOLB   NC1 9241  12.696   5.724  28.153  0.0227  0.1190  0.0662
  386BOLB   PO1 9242  12.307   5.713  28.385  0.3544  0.2796  0.0911
  386BOLB   GL1 9243  12.165   5.236  28.310 -0.1150 -0.1813  0.1227
  386BOLB   GL2 9244  12.029   5.226  28.070  0.3873 -0.0346  0.1506
  386BOLB   C1A 9245  12.104   4.756  28.227  0.0851 -0.2925  0.0551
  386BOLB   C2A 9246  12.318   4.386  28.277  0.0537 -0.1971 -0.0804
  386BOLB   C3A 9247  12.283   3.929  28.263 -0.1017 -0.0261 -0.0831
  386BOLB   C4A 9248  12.108   3.585  28.300  0.1646  0.1099 -0.2432
  386BOLB   C1B 9249  11.693   5.031  28.400 -0.1577 -0.3427  0.0049
  386BOLB   C2B 9250  11.307   5.128  28.508  0.1565  0.1550 -0.1776
  386BOLB   C3B 9251  10.855   4.887  28.325 -0.1083 -0.1260 -0.1246
  386BOLB   C4B 9252  10.555   4.690  28.113  0.0152  0.2087 -0.3745
  386BOLB   NC2 9253  11.583   1.459  27.102  0.2816 -0.0018 -0.1453
  386BOLB   PO2 9254  11.319   1.489  27.410 -0.1007  0.0397 -0.0486
  386BOLB   GL3 9255  11.490   1.770  27.793 -0.0132  0.0596 -0.3402
  386BOLB   GL4 9256  11.304   1.908  28.108 -0.1730  0.1203 -0.1696
  386BOLB   C1C 9257  11.711   2.206  27.987 -0.0173 -0.2503  0.0301
  386BOLB   C2C 9258  11.710   2.550  28.259  0.0423 -0.0782 -0.0218
  386BOLB   C3C 9259  11.647   2.908  28.169  0.0204 -0.0427 -0.3897
  386BOLB   C4C 9260  11.796   3.236  28.349  0.2231  0.1443 -0.1601
  386BOLB   C1D 9261  11.243   2.261  28.124 -0.1743  0.1349  0.3397
  386BOLB   C2D 9262  11.341   2.600  27.981 -0.0578  0.0080  0.0241
  386BOLB   C3D 9263  10.958   2.880  27.828 -0.2775 -0.2187 -0.1935
  386BOLB   C4D 9264  10.850   3.340  27.777 -0.0494  0.0637 -0.2634
  387BOLB   NC1 9265  16.840   9.764  19.916 -0.1450 -0.1973  0.1430
  387BOLB   PO1 9266  17.016   9.445  19.720  0.0353 -0.0039 -0.2740
  387BOLB   GL1 9267  17.117   9.226  19.362  0.0777  0.0564 -0.1005
  387BOLB   GL2 9268  17.381   9.388  19.264  0.0092 -0.0758  0.2029
  387BOLB   C1A 9269  17.063   9.080  18.929  0.3398 -0.0989  0.4797
  387BOLB   C2A 9270  16.765   8.791  18.750  0.2158  0.2411 -0.2355
  387BOLB   C3A 9271  16.861   8.478  18.504 -0.1575 -0.0016  0.0853
  387BOLB   C4A 9272  17.035   8.058  18.489  0.0339  0.1071  0.2543
  387BOLB   C1B 9273  17.562   9.137  19.062  0.1946 -0.2383 -0.1278
  387BOLB   C2B 9274  17.453   8.926  18.707 -0.1355  0.0951  0.1235
  387BOLB   C3B 9275  17.184   8.878  18.376 -0.0605 -0.2773  0.1075
  387BOLB   C4B 9276  17.235   9.213  18.065  0.1575 -0.2661  0.0686
  387BOLB   NC2 9277  15.958   6.042  17.089 -0.0151  0.1218 -0.3835
  387BOLB   PO2 9278  16.361   6.208  17.011 -0.0263  0.1301  0.0477
  387BOLB   GL3 9279  16.557   6.439  17.359  0.0711 -0.0233  0.0897
  387BOLB   GL4 9280  16.708   6.320  17.591  0.1853  0.0253  0.1143
  387BOLB   C1C 9281  16.810   6.773  17.306  0.0868  0.1674  0.0483
  387BOLB   C2C 9282  17.022   7.146  17.463  0.2977 -0.0951  0.1848
  387BOLB   C3C 9283  17.098   7.508  17.792  0.0312  0.2092 -0.0860
  387BOLB   C4C 9284  17.060   7.752  18.057 -0.0973  0.5247 -0.0810
  387BOLB   C1D 9285  16.841   6.586  17.963  0.1806 -0.1233 -0.0940
  387BOLB   C2D 9286  17.151   6.802  18.145  0.3730 -0.3233 -0.1068
  387BOLB   C3D 9287  17.487   7.126  18.254  0.1236  0.0507  0.3816
  387BOLB   C4D 9288  17.846   7.199  18.558  0.0528 -0.3075  0.1375
  388BOLB   NC1 9289  11.189   8.473  25.060  0.0649  0.1730  0.2143
  388BOLB   PO1 9290  10.741   8.347  24.980  0.3683 -0.1360 -0.1256
  388BOLB   GL1 9291  10.566   7.894  24.936 -0.0561 -0.0471 -0.2367
  388BOLB   GL2 9292  10.763   7.827  24.789  0.0708 -0.0744  0.1917
  388BOLB   C1A 9293  10.385   7.532  24.628 -0.2048 -0.2735  0.0601
  388BOLB   C2A 9294  10.264   7.866  24.238  0.1558  0.1240  0.0060
  388BOLB   C3A 9295   9.754   7.931  24.066  0.1565 -0.1162  0.1355
  388BOLB   C4A 9296   9.376   7.802  23.731 -0.0243  0.0359 -0.4183
  388BOLB   C1B 9297  10.755   7.738  24.405  0.0112  0.1085  0.2723
  388BOLB   C2B 9298  10.559   7.464  24.137 -0.2874  0.1046  0.2619
  388BOLB   C3B 9299  10.183   7.371  23.982 -0.3500  0.4463 -0.0465
  388BOLB   C4B 9300   9.968   6.964  23.942  0.0265 -0.0349  0.1651
  388BOLB   NC2 9301   7.839   7.550  21.414  0.1512 -0.1723 -0.2268
  388BOLB   PO2 9302   8.076   7.884  21.769 -0.0447  0.1579  0.0561
  388BOLB   GL3 9303   8.411   8.143  21.966  0.3144  0.0597 -0.0807
  388BOLB   GL4 9304   8.367   8.474  21.897  0.2819 -0.1346  0.1686
  388BOLB   C1C 9305   8.637   8.057  22.352  0.0387 -0.0222 -0.2736
  388BOLB   C2C 9306   8.625   8.010  22.787  0.1589 -0.2169  0.0473
  388BOLB   C3C 9307   8.778   8.108  23.252  0.0785 -0.3118 -0.0299
  388BOLB   C4C 9308   9.107   7.957  23.588  0.1661  0.1578 -0.1083
  388BOLB   C1D 9309   8.665   8.542  22.198 -0.0884  0.3139 -0.0354
  388BOLB   C2D 9310   8.742   8.606  22.603 -0.2494 -0.1196  0.0550
  388BOLB   C3D 9311   9.135   8.662  22.894  0.0131 -0.1341 -0.1580
  388BOLB   C4D 9312   9.318   9.016  23.203  0.1395 -0.0076  0.0882
  389BOLB   NC1 9313  21.715  16.057  41.895  0.0331  0.0916  0.1162
  389BOLB   PO1 9314  21.675  15.624  42.034 -0.3409  0.0520  0.3593
  389BOLB   GL1 9315  21.345  15.539  41.798  0.0795  0.1070 -0.1840
  389BOLB   GL2 9316  21.578  15.182  41.667 -0.0006 -0.0542 -0.3381
  389BOLB   C1A 9317  21.041  15.440  41.530  0.2565 -0.2913 -0.1949
  389BOLB   C2A 9318  20.673  15.220  41.475 -0.4277 -0.1871  0.2924
  389BOLB   C3A 9319  20.611  15.142  41.031  0.0159 -0.1246  0.2963
  389BOLB   C4A 9320  20.420  15.043  40.697  0.3067  0.1816  0.3203
  389BOLB   C1B 9321  21.274  15.049  41.411  0.1645 -0.2997  0.0664
  389BOLB   C2B 9322  21.133  15.070  41.064 -0.0333 -0.1248  0.0139
  389BOLB   C3B 9323  20.964  14.877  40.722  0.2161 -0.2146 -0.0001
  389BOLB   C4B 9324  20.867  15.137  40.303 -0.2127  0.0535 -0.3314
  389BOLB   NC2 9325  19.561  14.637  38.599  0.2175  0.2150 -0.3681
  389BOLB   PO2 9326  19.524  14.155  38.531  0.0724  0.0457  0.2091
  389BOLB   GL3 9327  19.673  14.268  38.949 -0.0666 -0.1350 -0.0246
  389BOLB   GL4 9328  19.390  14.545  39.092  0.3070  0.0037 -0.1655
  389BOLB   C1C 9329  19.799  14.236  39.320  0.1829  0.0048  0.0552
  389BOLB   C2C 9330  20.001  14.416  39.724 -0.0791  0.1734 -0.1014
  389BOLB   C3C 9331  20.250  14.472  40.138 -0.0201 -0.1188  0.1532
  389BOLB   C4C 9332  20.219  14.717  40.468  0.0220  0.1552  0.2006
  389BOLB   C1D 9333  19.801  14.730  39.206  0.0957 -0.0800 -0.3548
  389BOLB   C2D 9334  19.959  15.005  39.552 -0.4657 -0.1974 -0.1332
  389BOLB   C3D 9335  20.192  15.283  39.889 -0.2642 -0.2628 -0.0905
  389BOLB   C4D 9336  20.483  15.434  40.296  0.1267 -0.1049  0.0194
  390BOLB   NC1 9337  17.922   8.722  20.437 -0.1604  0.3752 -0.4058
  390BOLB   PO1 9338  17.503   8.799  20.386  0.3435  0.0196  0.0357
  390BOLB   GL1 9339  17.537   8.594  19.988 -0.0506  0.0481  0.1615
  390BOLB   GL2 9340  17.817   8.452  20.042  0.3055  0.1075 -0.1199
  390BOLB   C1A 9341  17.466   8.311  19.677  0.2284 -0.0447 -0.1087
  390BOLB   C2A 9342  17.307   8.100  19.355 -0.0908  0.0170 -0.1933
  390BOLB   C3A 9343  17.186   7.815  18.947  0.0549 -0.4031 -0.3046
  390BOLB   C4A 9344  17.363   7.638  18.611 -0.0646 -0.1024  0.2536
  390BOLB   C1B 9345  17.915   8.158  19.766  0.0517 -0.0139 -0.2344
  390BOLB   C2B 9346  17.925   8.010  19.389  0.0038 -0.1187  0.0258
  390BOLB   C3B 9347  17.766   7.817  19.075 -0.2354 -0.0613  0.1059
  390BOLB   C4B 9348  17.881   7.629  18.748  0.2099  0.3868  0.0550
  390BOLB   NC2 9349  17.154   6.778  16.107 -0.1099  0.1594  0.0088
  390BOLB   PO2 9350  17.004   6.665  16.610  0.1667 -0.0237 -0.1210
  390BOLB   GL3 9351  17.246   6.585  17.041  0.1452  0.3275  0.0364
  390BOLB   GL4 9352  17.255   6.342  17.238 -0.2190 -0.2000  0.0191
  390BOLB   C1C 9353  17.445   6.797  17.417  0.0248 -0.0873 -0.0725
  390BOLB   C2C 9354  17.475   7.016  17.767  0.2722  0.0885  0.0939
  390BOLB   C3C 9355  17.551   7.525  17.970 -0.0003 -0.0997 -0.0132
  390BOLB   C4C 9356  17.517   7.675  18.295  0.0143 -0.0205  0.3495
  390BOLB   C1D 9357  17.189   6.377  17.604  0.3015 -0.1223  0.0882
  390BOLB   C2D 9358  17.191   6.296  18.098 -0.1416  0.1526 -0.3874
  390BOLB   C3D 9359  17.076   6.368  18.445  0.0053 -0.0796  0.1014
  390BOLB   C4D 9360  16.971   6.474  18.920 -0.2015  0.2771 -0.0267
  391BOLB   NC1 9361  11.132   6.555  29.950  0.0176 -0.0987  0.2025
  391BOLB   PO1 9362  10.698   6.356  29.827 -0.3304 -0.2449  0.4372
  391BOLB   GL1 9363  10.206   6.186  29.765 -0.0031 -0.0002  0.1436
  391BOLB   GL2 9364   9.990   6.172  29.996 -0.0295  0.0395 -0.0574
  391BOLB   C1A 9365   9.887   5.822  29.638  0.0569  0.2255  0.0216
  391BOLB   C2A 9366   9.940   5.351  29.819 -0.0280  0.3712 -0.1118
  391BOLB   C3A 9367   9.686   4.982  29.935 -0.3008 -0.0788  0.2816
  391BOLB   C4A 9368   9.687   4.627  30.182  0.1404 -0.0347  0.2771
  391BOLB   C1B 9369   9.784   5.785  30.114  0.2637  0.1717 -0.1776
  391BOLB   C2B 9370   9.396   5.444  30.161 -0.2138  0.3689  0.1247
  391BOLB   C3B 9371   8.858   5.346  30.173 -0.1145  0.1458 -0.0285
  391BOLB   C4B 9372   8.516   5.640  29.989  0.0750 -0.1326  0.0329
  391BOLB   NC2 9373   7.500   3.813  31.199 -0.3393  0.0119  0.1794
  391BOLB   PO2 9374   7.734   3.565  31.356  0.3021 -0.0847 -0.3098
  391BOLB   GL3 9375   8.130   3.499  31.173  0.3293 -0.1058 -0.3108
  391BOLB   GL4 9376   8.370   3.437  31.315 -0.1309  0.0579  0.1028
  391BOLB   C1C 9377   8.366   3.745  30.791 -0.0719  0.1815 -0.1345
  391BOLB   C2C 9378   8.641   3.967  30.515 -0.3588  0.2109  0.2123
  391BOLB   C3C 9379   9.025   4.224  30.576 -0.0466  0.0746 -0.1014
  391BOLB   C4C 9380   9.415   4.422  30.475 -0.0894  0.0307  0.0914
  391BOLB   C1D 9381   8.640   3.368  31.039  0.0958  0.2269 -0.1297
  391BOLB   C2D 9382   9.112   3.434  30.973 -0.2448  0.0263 -0.2385
  391BOLB   C3D 9383   9.258   3.632  31.345 -0.3310  0.3468  0.1446
  391BOLB   C4D 9384   9.458   3.974  31.325 -0.0976 -0.0382  0.1205
  392BOLB   NC1 9385  17.870  19.566  24.969 -0.0491 -0.0545 -0.2077
  392BOLB   PO1 9386  18.184  19.241  24.992 -0.1681 -0.1235  0.2795
  392BOLB   GL1 9387  18.618  19.278  25.074 -0.3221 -0.1754 -0.0545
  392BOLB   GL2 9388  18.720  19.245  24.801  0.0111 -0.2372 -0.0232
  392BOLB   C1A 9389  18.848  19.618  25.231  0.0161  0.2318 -0.0612
  392BOLB   C2A 9390  19.073  19.890  25.308  0.2661 -0.1875 -0.0140
  392BOLB   C3A 9391  19.172  20.372  25.241  0.0700  0.3389 -0.0166
  392BOLB   C4A 9392  19.412  20.589  25.077 -0.1553  0.1027 -0.0087
  392BOLB   C1B 9393  19.151  19.470  24.870 -0.1913 -0.1248  0.0564
  392BOLB   C2B 9394  19.426  19.681  25.051  0.0670 -0.0998  0.0063
  392BOLB   C3B 9395  19.775  19.810  24.916 -0.2026  0.1187 -0.1501
  392BOLB   C4B 9396  19.822  19.919  24.521  0.0484 -0.0918  0.2442
  392BOLB   NC2 9397  21.794  20.795  23.971 -0.2957  0.1848  0.1604
  392BOLB   PO2 9398  22.001  20.962  24.387 -0.0196  0.2492  0.2886
  392BOLB   GL3 9399  21.559  20.798  24.610 -0.2663 -0.1828  0.0269
  392BOLB   GL4 9400  21.608  20.548  24.812  0.1024 -0.2419 -0.0381
  392BOLB   C1C 9401  21.125  20.708  24.733 -0.1483  0.0230 -0.0631
  392BOLB   C2C 9402  20.637  20.851  24.704 -0.0656 -0.4970  0.3701
  392BOLB   C3C 9403  20.199  20.803  24.941  0.5332 -0.0569  0.0428
  392BOLB   C4C 9404  19.805  20.808  25.052 -0.0486 -0.0674 -0.0427
  392BOLB   C1D 9405  21.328  20.277  25.045 -0.4703 -0.1611 -0.1639
  392BOLB   C2D 9406  21.028  20.102  25.325 -0.2888 -0.0243 -0.1343
  392BOLB   C3D 9407  20.918  19.845  25.700  0.1007  0.0591 -0.0710
  392BOLB   C4D 9408  20.970  19.525  25.982 -0.0902  0.0134 -0.0170
  393BOLB   NC1 9409   9.775  17.421  24.906 -0.1400  0.0250  0.1047
  393BOLB   PO1 9410   9.718  17.200  25.341  0.0581  0.1889 -0.2483
  393BOLB   GL1 9411   9.258  17.384  25.097  0.3537  0.1317 -0.2189
  393BOLB   GL2 9412   9.043  17.638  25.221 -0.2364  0.2866  0.2284
  393BOLB   C1A 9413   9.177  17.709  24.763 -0.0919 -0.1294 -0.2306
  393BOLB   C2A 9414   8.924  17.618  24.437 -0.1285  0.0986  0.2300
  393BOLB   C3A 9415   8.699  17.760  24.153 -0.0818 -0.2484  0.0462
  393BOLB   C4A 9416   8.523  17.888  23.754 -0.0026 -0.3526  0.3058
  393BOLB   C1B 9417   8.665  17.785  25.086 -0.3853 -0.1307  0.4004
  393BOLB   C2B 9418   8.639  18.064  24.753  0.0453 -0.1039  0.1817
  393BOLB   C3B 9419   8.573  18.574  24.830  0.1735 -0.2932  0.1010
  393BOLB   C4B 9420   8.499  19.007  24.697 -0.1780 -0.1764 -0.2152
  393BOLB   NC2 9421   7.443  18.930  21.537 -0.0885  0.1674  0.0912
  393BOLB   PO2 9422   7.163  18.477  21.695 -0.3580  0.3038  0.0058
  393BOLB   GL3 9423   7.333  18.185  21.987  0.1727 -0.1308  0.0836
  393BOLB   GL4 9424   7.339  18.333  22.192  0.1640 -0.2857 -0.1871
  393BOLB   C1C 9425   7.369  17.934  22.443 -0.2299  0.0452 -0.1268
  393BOLB   C2C 9426   7.660  17.849  22.714  0.2541 -0.0376 -0.3525
  393BOLB   C3C 9427   7.926  17.938  23.101  0.0161  0.0454  0.2853
  393BOLB   C4C 9428   8.228  17.774  23.424 -0.0876  0.0950  0.2181
  393BOLB   C1D 9429   7.780  18.139  22.232 -0.3092 -0.0689 -0.1588
  393BOLB   C2D 9430   8.044  18.181  22.588  0.2551  0.0068  0.0942
  393BOLB   C3D 9431   8.325  18.358  22.873 -0.1572  0.0294  0.0010
  393BOLB   C4D 9432   8.673  18.169  22.981 -0.4115 -0.1357 -0.2116
  394BOLB   NC1 9433   7.439  12.478  32.619  0.2434 -0.1102 -0.0145
  394BOLB   PO1 9434   7.606  12.736  32.869 -0.3525 -0.2377 -0.3459
  394BOLB   GL1 9435   7.271  12.739  33.154  0.0122  0.0612  0.1126
  394BOLB   GL2 9436   7.093  12.556  33.037  0.1272 -0.0956 -0.0249
  394BOLB   C1A 9437   6.998  12.947  33.323 -0.2740 -0.0561 -0.1722
  394BOLB   C2A 9438   6.666  13.329  33.495  0.0304  0.3838  0.0939
  394BOLB   C3A 9439   6.467  13.568  33.765  0.0910 -0.3900  0.2090
  394BOLB   C4A 9440   6.072  13.681  33.703  0.1139 -0.4295 -0.1113
  394BOLB   C1B 9441   6.804  12.244  33.254  0.2508  0.2397 -0.2483
  394BOLB   C2B 9442   6.510  11.959  33.381  0.0231 -0.0894 -0.0790
  394BOLB   C3B 9443   6.274  11.645  33.331 -0.1795 -0.1601  0.0821
  394BOLB   C4B 9444   6.007  11.310  33.533  0.4296  0.0082 -0.4718
  394BOLB   NC2 9445   3.949  13.297  34.582  0.0713 -0.0646  0.2757
  394BOLB   PO2 9446   3.708  13.484  34.083  0.0344  0.1978 -0.0961
  394BOLB   GL3 9447   4.195  13.457  34.164  0.1077  0.2738  0.3958
  394BOLB   GL4 9448   4.463  13.359  34.371 -0.1173  0.0699 -0.2617
  394BOLB   C1C 9449   4.535  13.547  33.853  0.2149  0.1538  0.0291
  394BOLB   C2C 9450   4.787  13.487  33.551 -0.1343  0.2174  0.3838
  394BOLB   C3C 9451   5.214  13.505  33.572 -0.3350 -0.1768 -0.1225
  394BOLB   C4C 9452   5.709  13.571  33.686 -0.0699  0.1642 -0.0114
  394BOLB   C1D 9453   4.586  13.736  34.473 -0.1549  0.0314 -0.0200
  394BOLB   C2D 9454   4.926  14.048  34.492  0.4065 -0.0070 -0.0477
  394BOLB   C3D 9455   5.143  14.474  34.532  0.2391 -0.0858 -0.0650
  394BOLB   C4D 9456   5.135  14.991  34.569 -0.1738 -0.2505  0.0785
  395BOLB   NC1 9457  21.686  14.354  36.378 -0.1043 -0.0297  0.0282
  395BOLB   PO1 9458  21.717  14.066  36.734 -0.2878  0.1574  0.0454
  395BOLB   GL1 9459  22.108  14.069  36.986  0.3328  0.0360  0.0385
  395BOLB   GL2 9460  22.167  14.233  37.391  0.1405 -0.0501  0.2136
  395BOLB   C1A 9461  22.559  14.048  37.141  0.2062  0.1310 -0.0598
  395BOLB   C2A 9462  22.938  14.000  37.226 -0.4419  0.0189  0.0676
  395BOLB   C3A 9463  23.259  13.950  37.542 -0.2702  0.2015  0.2612
  395BOLB   C4A 9464  23.399  13.919  37.977  0.1667 -0.2601 -0.0571
  395BOLB   C1B 9465  22.222  14.564  37.127 -0.3409 -0.0377  0.0161
  395BOLB   C2B 9466  22.393  14.892  36.775  0.0433 -0.2517  0.3460
  395BOLB   C3B 9467  22.664  15.204  36.980  0.1028 -0.0536  0.1425
  395BOLB   C4B 9468  23.104  15.363  36.948  0.3019  0.2144 -0.1458
  395BOLB   NC2 9469  25.131  13.651  39.936  0.1994 -0.0070 -0.0365
  395BOLB   PO2 9470  25.037  13.485  39.685 -0.1001 -0.1166  0.3375
  395BOLB   GL3 9471  24.695  13.473  39.474 -0.0550 -0.2073  0.0388
  395BOLB   GL4 9472  24.546  13.191  39.379  0.4633 -0.0699  0.0763
  395BOLB   C1C 9473  24.463  13.791  39.248 -0.2735  0.2088 -0.0564
  395BOLB   C2C 9474  24.255  13.776  38.885 -0.2337  0.0073 -0.0036
  395BOLB   C3C 9475  23.986  13.774  38.630  0.1465  0.0835  0.2292
  395BOLB   C4C 9476  23.681  13.788  38.276 -0.2511  0.0430 -0.2200
  395BOLB   C1D 9477  24.402  13.011  38.972  0.0902  0.1051 -0.0787
  395BOLB   C2D 9478  24.156  12.786  38.753 -0.0138  0.1478 -0.3127
  395BOLB   C3D 9479  23.879  12.534  38.550  0.0583  0.2028 -0.3820
  395BOLB   C4D 9480  23.483  12.371  38.314 -0.2335 -0.0550 -0.1001
  396BOLB   NC1 9481  13.771  16.589  21.007 -0.2607  0.0127  0.1387
  396BOLB   PO1 9482  13.333  16.320  20.966 -0.1586 -0.0626 -0.1002
  396BOLB   GL1 9483  13.555  16.153  20.546  0.0201  0.0347  0.0180
  396BOLB   GL2 9484  13.471  15.965  20.303  0.3506  0.1952  0.1653
  396BOLB   C1A 9485  13.742  16.262  20.084 -0.2978  0.1801  0.0703
  396BOLB   C2A 9486  13.524  16.401  19.676  0.2151  0.3693 -0.2454
  396BOLB   C3A 9487  13.589  16.560  19.301  0.0059 -0.2226 -0.2582
  396BOLB   C4A 9488  13.518  16.790  18.933 -0.0378 -0.0835  0.2746
  396BOLB   C1B 9489  13.294  15.983  19.800 -0.0459 -0.1909  0.1297
  396BOLB   C2B 9490  13.303  15.873  19.421 -0.2839  0.1860 -0.2265
  396BOLB   C3B 9491  13.289  15.714  19.020 -0.4289 -0.0254  0.0622
  396BOLB   C4B 9492  13.293  15.332  18.816 -0.1144  0.1245 -0.2046
  396BOLB   NC2 9493  13.093  18.528  17.474 -0.1814 -0.0677  0.0769
  396BOLB   PO2 9494  13.510  18.672  17.334 -0.0107  0.0609 -0.1496
  396BOLB   GL3 9495  13.618  18.246  17.397 -0.2094  0.2655 -0.0459
  396BOLB   GL4 9496  13.989  18.233  17.426 -0.1524 -0.1444  0.0618
  396BOLB   C1C 9497  13.573  17.883  17.720 -0.0288  0.1471  0.0149
  396BOLB   C2C 9498  13.784  17.691  18.165  0.2773 -0.1960 -0.1661
  396BOLB   C3C 9499  13.926  17.408  18.459  0.0374 -0.0242  0.1858
  396BOLB   C4C 9500  13.762  17.117  18.762 -0.0856 -0.0560 -0.0176
  396BOLB   C1D 9501  14.145  17.909  17.484  0.0598  0.6493  0.4658
  396BOLB   C2D 9502  14.510  17.970  17.817  0.0310 -0.4272  0.2446
  396BOLB   C3D 9503  14.542  18.199  18.199 -0.1173  0.2215 -0.2324
  396BOLB   C4D 9504  14.400  18.527  18.403  0.0765 -0.0329 -0.2330
  397BOLB   NC1 9505  18.749  18.648  26.887  0.0393  0.0388 -0.1077
  397BOLB   PO1 9506  18.565  18.889  26.578 -0.0485  0.2549  0.3451
  397BOLB   GL1 9507  18.946  18.994  26.597 -0.1393  0.1053  0.1731
  397BOLB   GL2 9508  19.162  18.961  26.396 -0.3626 -0.0364 -0.1367
  397BOLB   C1A 9509  19.273  19.241  26.842 -0.3876  0.0777 -0.0134
  397BOLB   C2A 9510  19.630  19.433  26.705 -0.3611  0.1783 -0.0264
  397BOLB   C3A 9511  20.044  19.433  26.697 -0.0534  0.1517 -0.1815
  397BOLB   C4A 9512  20.458  19.442  26.852  0.0929 -0.0972 -0.1176
  397BOLB   C1B 9513  19.572  19.019  26.438 -0.0134  0.3546  0.1242
  397BOLB   C2B 9514  19.966  19.135  26.180 -0.3208 -0.1978 -0.2584
  397BOLB   C3B 9515  20.276  18.762  26.049  0.1640  0.2289 -0.1776
  397BOLB   C4B 9516  20.592  18.453  26.077 -0.1319  0.1950  0.2497
  397BOLB   NC2 9517  22.614  20.218  26.541  0.0731  0.2102  0.2292
  397BOLB   PO2 9518  22.715  20.146  26.985 -0.3215 -0.1236  0.0430
  397BOLB   GL3 9519  22.297  20.202  26.938 -0.1622  0.2429 -0.0600
  397BOLB   GL4 9520  22.088  20.017  26.551  0.0797 -0.1924  0.2170
  397BOLB   C1C 9521  21.944  20.350  26.968 -0.2568 -0.1008 -0.2608
  397BOLB   C2C 9522  21.429  20.274  27.008 -0.3544 -0.1838  0.2122
  397BOLB   C3C 9523  20.936  20.079  27.086  0.0101  0.1946  0.1665
  397BOLB   C4C 9524  20.905  19.616  26.929  0.0119 -0.3338 -0.0748
  397BOLB   C1D 9525  21.655  19.865  26.542  0.1250 -0.0463  0.0500
  397BOLB   C2D 9526  21.199  19.942  26.661 -0.2346 -0.0876  0.1530
  397BOLB   C3D 9527  20.772  19.636  26.480 -0.0455  0.3497  0.1379
  397BOLB   C4D 9528  20.375  19.477  26.292  0.0939  0.1316  0.3781
  398BOLB   NC1 9529  18.314  16.478  38.423  0.1344 -0.2080 -0.2263
  398BOLB   PO1 9530  18.126  16.274  38.858 -0.0372  0.0085  0.3281
  398BOLB   GL1 9531  18.068  16.437  39.209 -0.0346 -0.0377 -0.2235
  398BOLB   GL2 9532  17.888  16.294  39.306 -0.2187 -0.0726 -0.3043
  398BOLB   C1A 9533  18.259  16.530  39.587  0.0386  0.0483  0.1102
  398BOLB   C2A 9534  18.314  16.527  39.982  0.1362  0.0976 -0.2281
  398BOLB   C3A 9535  18.535  16.276  40.258  0.2170  0.0360  0.2537
  398BOLB   C4A 9536  18.648  16.020  40.556  0.0532  0.0107 -0.3085
  398BOLB   C1B 9537  18.012  16.131  39.695  0.2616  0.2744 -0.2905
  398BOLB   C2B 9538  17.880  16.258  40.054 -0.0979 -0.0573 -0.1514
  398BOLB   C3B 9539  17.975  16.509  40.401 -0.2860  0.2785  0.0132
  398BOLB   C4B 9540  17.839  16.754  40.744 -0.1743  0.1710 -0.0972
  398BOLB   NC2 9541  19.743  16.521  42.324  0.1955  0.3322  0.3720
  398BOLB   PO2 9542  19.494  16.785  42.420 -0.1623 -0.2034 -0.0340
  398BOLB   GL3 9543  19.350  16.743  42.004 -0.0414  0.1111  0.2220
  398BOLB   GL4 9544  19.040  16.920  41.990  0.1344 -0.2587  0.0991
  398BOLB   C1C 9545  19.171  16.767  41.588  0.3376 -0.0399 -0.0009
  398BOLB   C2C 9546  19.210  16.619  41.156  0.1463  0.1110 -0.0363
  398BOLB   C3C 9547  19.150  16.336  40.975  0.1175 -0.1122  0.2180
  398BOLB   C4C 9548  18.996  15.989  40.879 -0.0683  0.0816  0.3431
  398BOLB   C1D 9549  18.655  16.960  41.731 -0.0245  0.0446  0.1818
  398BOLB   C2D 9550  18.374  17.206  41.758 -0.2545  0.1499  0.1760
  398BOLB   C3D 9551  18.363  17.653  41.860 -0.1140  0.5239 -0.3484
  398BOLB   C4D 9552  18.190  18.100  41.705 -0.1188  0.1945  0.1556
  399BOLB   NC1 9553  20.093  10.313  38.813 -0.0845  0.2483 -0.0502
  399BOLB   PO1 9554  20.027   9.907  38.739 -0.0445 -0.0463 -0.0460
  399BOLB   GL1 9555  20.394   9.741  38.941 -0.1460  0.1653 -0.1080
  399BOLB   GL2 9556  20.663   9.692  38.791  0.2920  0.2244  0.0871
  399BOLB   C1A 9557  20.629   9.842  39.342 -0.0747 -0.1427  0.0831
  399BOLB   C2A 9558  20.840   9.860  39.753  0.0657 -0.3762 -0.1156
  399BOLB   C3A 9559  20.865   9.707  40.129  0.2132 -0.2083 -0.0444
  399BOLB   C4A 9560  20.806   9.565  40.543  0.0477 -0.0043  0.0129
  399BOLB   C1B 9561  20.976   9.873  38.807  0.0255 -0.1711  0.1553
  399BOLB   C2B 9562  21.327   9.950  39.138 -0.1641  0.2376 -0.1532
  399BOLB   C3B 9563  21.290  10.079  39.491 -0.2535  0.2736  0.2887
  399BOLB   C4B 9564  21.212  10.251  39.930 -0.1620 -0.0562 -0.4590
  399BOLB   NC2 9565  21.636   9.791  42.654 -0.2164  0.0884  0.0440
  399BOLB   PO2 9566  21.341   9.538  42.688  0.0085 -0.1111  0.0083
  399BOLB   GL3 9567  21.400   9.313  42.317  0.0001  0.4250  0.0348
  399BOLB   GL4 9568  21.453   9.609  42.106  0.1458  0.2971  0.1142
  399BOLB   C1C 9569  21.551   9.201  41.874 -0.0326 -0.0685 -0.0556
  399BOLB   C2C 9570  21.347   9.268  41.516  0.1492 -0.1079  0.0032
  399BOLB   C3C 9571  21.320   9.510  41.175  0.2206 -0.0370 -0.1192
  399BOLB   C4C 9572  20.974   9.313  40.797  0.1568  0.0161  0.0146
  399BOLB   C1D 9573  21.065   9.553  41.991  0.0756  0.0667 -0.1064
  399BOLB   C2D 9574  20.832   9.164  41.724 -0.0750 -0.0252 -0.1828
  399BOLB   C3D 9575  20.484   8.960  41.567 -0.3348  0.1688 -0.0420
  399BOLB   C4D 9576  20.359   8.606  41.297  0.1658 -0.2130 -0.0631
  400BOLB   NC1 9577  17.824  19.821  31.970  0.0882 -0.1183 -0.0345
  400BOLB   PO1 9578  17.511  19.917  31.726 -0.0794  0.0707 -0.0277
  400BOLB   GL1 9579  17.771  20.344  31.679 -0.0465  0.4090  0.2071
  400BOLB   GL2 9580  17.585  20.662  31.528  0.1052  0.0081  0.3579
  400BOLB   C1A 9581  17.954  20.670  31.944  0.2212  0.0118  0.5152
  400BOLB   C2A 9582  17.954  21.047  32.237 -0.1365 -0.1657  0.1914
  400BOLB   C3A 9583  17.845  21.369  32.548  0.0588  0.2779 -0.0939
  400BOLB   C4A 9584  17.913  21.792  32.708 -0.0958 -0.3064  0.0516
  400BOLB   C1B 9585  17.764  21.019  31.722  0.3320  0.0985  0.3111
  400BOLB   C2B 9586  17.797  21.444  31.897 -0.0130  0.1052 -0.0453
  400BOLB   C3B 9587  17.665  21.770  32.212  0.0577  0.0343  0.2399
  400BOLB   C4B 9588  17.843  22.138  32.284  0.2082  0.0225  0.1377
  400BOLB   NC2 9589  18.500  24.359  33.588 -0.1541  0.0990  0.1291
  400BOLB   PO2 9590  18.834  24.122  33.166 -0.1174  0.1159  0.1314
  400BOLB   GL3 9591  18.508  23.688  32.996 -0.1447 -0.2117  0.2041
  400BOLB   GL4 9592  18.559  23.484  32.779 -0.1499  0.2533  0.0430
  400BOLB   C1C 9593  18.108  23.470  33.085 -0.2569 -0.2583  0.4738
  400BOLB   C2C 9594  17.795  23.095  33.042  0.0498 -0.0730  0.0380
  400BOLB   C3C 9595  17.530  22.738  32.814  0.0507 -0.1735  0.0267
  400BOLB   C4C 9596  17.694  22.289  32.677 -0.4327 -0.0858 -0.3470
  400BOLB   C1D 9597  18.233  23.137  32.697  0.2450 -0.1598 -0.5447
  400BOLB   C2D 9598  18.029  22.743  32.469 -0.2125  0.3558 -0.1432
  400BOLB   C3D 9599  18.235  22.345  32.552 -0.0258 -0.0031 -0.1705
  400BOLB   C4D 9600  18.676  22.148  32.618  0.0278  0.3239 -0.1174
  401BOLB   NC1 9601  17.891   5.842  34.418 -0.0370 -0.2533  0.2343
  401BOLB   PO1 9602  17.703   5.499  34.645  0.0946  0.0253 -0.2945
  401BOLB   GL1 9603  17.590   5.083  34.861  0.1059 -0.0083  0.1547
  401BOLB   GL2 9604  17.250   5.095  34.981  0.1443 -0.1066 -0.3431
  401BOLB   C1A 9605  17.770   4.729  34.993  0.1227  0.0302  0.1834
  401BOLB   C2A 9606  18.013   4.367  35.211 -0.0344 -0.0488 -0.2965
  401BOLB   C3A 9607  18.032   4.132  35.505 -0.3022 -0.0509  0.1641
  401BOLB   C4A 9608  17.950   3.717  35.708 -0.0247 -0.0869 -0.1484
  401BOLB   C1B 9609  17.256   4.753  35.106  0.1680 -0.0036  0.2669
  401BOLB   C2B 9610  17.495   4.380  35.322  0.0318 -0.2344 -0.1215
  401BOLB   C3B 9611  17.525   3.975  35.474  0.0791 -0.0703 -0.1885
  401BOLB   C4B 9612  17.388   3.939  35.862  0.0620  0.2451 -0.0014
  401BOLB   NC2 9613  18.666   1.737  36.236 -0.2350 -0.1070  0.1149
  401BOLB   PO2 9614  19.088   1.858  36.194  0.0658 -0.0140  0.0670
  401BOLB   GL3 9615  18.837   2.294  36.216  0.1523  0.0031  0.1792
  401BOLB   GL4 9616  18.954   2.511  36.004  0.0550 -0.1219 -0.1173
  401BOLB   C1C 9617  18.464   2.544  35.971  0.0114 -0.1088  0.0020
  401BOLB   C2C 9618  18.047   2.716  35.889 -0.3597  0.2364  0.1176
  401BOLB   C3C 9619  17.619   3.069  35.942 -0.3625  0.1015 -0.2703
  401BOLB   C4C 9620  17.663   3.444  35.827 -0.1157 -0.2697  0.1269
  401BOLB   C1D 9621  18.954   2.917  36.188 -0.2155  0.2125 -0.0320
  401BOLB   C2D 9622  18.790   3.312  36.399  0.0400 -0.2174 -0.1512
  401BOLB   C3D 9623  18.822   3.719  36.320  0.1149  0.3531  0.0506
  401BOLB   C4D 9624  18.719   4.143  36.168 -0.2049 -0.1825  0.1345
  402BOLB   NC1 9625   8.688  18.644  33.372  0.2104  0.0415 -0.1458
  402BOLB   PO1 9626   8.332  18.549  33.108  0.2665 -0.0183  0.3609
  402BOLB   GL1 9627   8.188  18.820  33.395  0.1065 -0.1394 -0.0306
  402BOLB   GL2 9628   7.964  18.784  33.446  0.1025 -0.2561 -0.1522
  402BOLB   C1A 9629   8.038  19.040  33.836 -0.1842 -0.0831 -0.0527
  402BOLB   C2A 9630   8.031  19.086  34.260 -0.0121  0.1293 -0.0251
  402BOLB   C3A 9631   7.667  19.100  34.520 -0.1677  0.3440  0.0415
  402BOLB   C4A 9632   7.504  19.158  35.023  0.1971 -0.2358  0.0300
  402BOLB   C1B 9633   7.682  19.156  33.489 -0.0386 -0.3765  0.0810
  402BOLB   C2B 9634   7.558  19.498  33.718 -0.2033  0.0905  0.0140
  402BOLB   C3B 9635   7.279  19.689  33.544  0.0238  0.1842 -0.1066
  402BOLB   C4B 9636   7.040  19.807  33.250 -0.2549 -0.0931  0.1033
  402BOLB   NC2 9637   6.175  20.572  35.344 -0.0989 -0.0323  0.1766
  402BOLB   PO2 9638   6.009  20.503  35.846  0.3782  0.3074  0.2493
  402BOLB   GL3 9639   6.303  20.244  35.805  0.1055  0.1771 -0.0927
  402BOLB   GL4 9640   6.571  20.360  35.704  0.0415 -0.0976 -0.0942
  402BOLB   C1C 9641   6.393  19.925  35.694 -0.4457  0.2021  0.1668
  402BOLB   C2C 9642   6.571  19.453  35.734 -0.1407 -0.0308  0.1635
  402BOLB   C3C 9643   7.040  19.251  35.732  0.1268  0.1398 -0.5358
  402BOLB   C4C 9644   7.308  19.207  35.409 -0.2469 -0.1024  0.0887
  402BOLB   C1D 9645   6.928  20.131  35.670  0.1482 -0.0672  0.3614
  402BOLB   C2D 9646   7.087  19.687  35.454 -0.0342 -0.1080  0.1511
  402BOLB   C3D 9647   6.900  19.342  35.229  0.2565  0.0401  0.1709
  402BOLB   C4D 9648   6.701  19.192  34.948 -0.1554  0.2517 -0.2305
  403BOLB   NC1 9649  20.439   9.803  38.348 -0.1063 -0.0739  0.1524
  403BOLB   PO1 9650  20.514  10.176  38.613 -0.2098 -0.1885  0.1257
  403BOLB   GL1 9651  20.479  10.190  39.043  0.0066  0.0876 -0.1289
  403BOLB   GL2 9652  20.568  10.525  39.211 -0.0458 -0.2615 -0.2071
  403BOLB   C1A 9653  20.252  10.326  39.549 -0.0455  0.2034  0.1082
  403BOLB   C2A 9654  20.121  10.335  39.951  0.0227  0.2435 -0.0519
  403BOLB   C3A 9655  20.363  10.460  40.348 -0.1570 -0.0124  0.0135
  403BOLB   C4A 9656  20.778  10.596  40.269  0.0197 -0.0243  0.7191
  403BOLB   C1B 9657  20.754  10.432  39.585  0.1840 -0.1067 -0.2337
  403BOLB   C2B 9658  20.646  10.243  39.998  0.2354  0.2924 -0.0104
  403BOLB   C3B 9659  20.718  10.084  40.457  0.3100  0.0121 -0.2280
  403BOLB   C4B 9660  20.337  10.066  40.708  0.0222  0.5207  0.1896
  403BOLB   NC2 9661  22.830  11.117  41.897  0.0012 -0.0709  0.3003
  403BOLB   PO2 9662  22.893  10.946  41.508 -0.0295  0.1748 -0.3193
  403BOLB   GL3 9663  22.660  10.875  41.068  0.1419  0.2587 -0.2521
  403BOLB   GL4 9664  22.807  11.050  40.885 -0.1717  0.0858 -0.2423
  403BOLB   C1C 9665  22.363  10.736  40.827 -0.0667  0.0850  0.2251
  403BOLB   C2C 9666  22.045  10.661  40.549 -0.1971  0.1316  0.2012
  403BOLB   C3C 9667  21.617  10.851  40.543  0.2409 -0.2025  0.0620
  403BOLB   C4C 9668  21.195  10.681  40.342 -0.0849 -0.2250  0.1481
  403BOLB   C1D 9669  22.557  11.163  40.539 -0.2189  0.1191 -0.1341
  403BOLB   C2D 9670  22.155  11.126  40.332  0.1625 -0.0307 -0.1741
  403BOLB   C3D 9671  21.915  11.004  40.178 -0.1385 -0.0804 -0.0478
  403BOLB   C4D 9672  21.493  11.008  40.029  0.0130  0.1134  0.3068
  404BOLB   NC1 9673  12.647   9.207  37.884  0.1792 -0.1927  0.2805
  404BOLB   PO1 9674  12.897   9.159  38.115  0.0016  0.1084 -0.1321
  404BOLB   GL1 9675  12.578   9.114  38.399 -0.0663  0.2199  0.2703
  404BOLB   GL2 9676  12.333   8.930  38.308  0.2336  0.3418  0.0417
  404BOLB   C1A 9677  12.519   8.948  38.824  0.0382 -0.1641 -0.5833
  404BOLB   C2A 9678  12.353   8.830  39.220 -0.0181  0.1483 -0.3186
  404BOLB   C3A 9679  12.180   8.754  39.632  0.2355  0.0846 -0.0088
  404BOLB   C4A 9680  12.434   8.617  39.967  0.0737 -0.1112  0.2783
  404BOLB   C1B 9681  12.429   8.559  38.478  0.2430  0.0330 -0.0493
  404BOLB   C2B 9682  12.243   8.393  38.736  0.1297 -0.2292  0.2903
  404BOLB   C3B 9683  11.929   8.095  38.640  0.1071  0.2131 -0.1446
  404BOLB   C4B 9684  11.929   7.656  38.476  0.0102  0.0433  0.3457
  404BOLB   NC2 9685  12.060   8.205  42.765 -0.0455  0.2058 -0.1762
  404BOLB   PO2 9686  12.044   8.234  42.265 -0.2172 -0.0176  0.0325
  404BOLB   GL3 9687  12.154   8.559  42.056  0.2777 -0.1370 -0.1164
  404BOLB   GL4 9688  11.953   8.724  42.099  0.2507  0.1912  0.0944
  404BOLB   C1C 9689  12.006   8.704  41.561  0.1844  0.1236  0.0347
  404BOLB   C2C 9690  12.135   8.590  41.071  0.0560  0.0729 -0.1158
  404BOLB   C3C 9691  12.412   8.619  40.719 -0.0534  0.2725 -0.2371
  404BOLB   C4C 9692  12.570   8.592  40.325 -0.1959 -0.1702  0.0167
  404BOLB   C1D 9693  11.873   9.117  41.794 -0.3427  0.3706 -0.0276
  404BOLB   C2D 9694  11.798   9.344  41.439 -0.2575 -0.2421  0.1917
  404BOLB   C3D 9695  11.986   9.559  41.142  0.2168  0.1166  0.3133
  404BOLB   C4D 9696  12.382   9.494  40.908 -0.0356 -0.0452  0.3270
  405BOLB   NC1 9697  15.657  20.590  27.644  0.2942  0.0408  0.3044
  405BOLB   PO1 9698  15.709  20.912  27.386  0.0053  0.0640  0.0059
  405BOLB   GL1 9699  15.825  21.288  27.335  0.1132 -0.0424  0.1038
  405BOLB   GL2 9700  15.845  21.308  27.016 -0.0077  0.0164 -0.1140
  405BOLB   C1A 9701  16.165  21.596  27.418  0.3233 -0.0221 -0.1994
  405BOLB   C2A 9702  16.540  21.916  27.406  0.0074 -0.1743 -0.1921
  405BOLB   C3A 9703  16.618  22.340  27.308  0.0213 -0.2850  0.0068
  405BOLB   C4A 9704  16.624  22.736  27.000  0.2434 -0.1865 -0.0080
  405BOLB   C1B 9705  15.674  21.721  27.193  0.1226  0.1448 -0.0841
  405BOLB   C2B 9706  15.725  22.157  27.103  0.1854 -0.0967 -0.1194
  405BOLB   C3B 9707  15.651  22.618  26.993 -0.2051  0.1216 -0.1557
  405BOLB   C4B 9708  15.593  23.039  27.027  0.1399 -0.1099  0.2319
  405BOLB   NC2 9709  17.542  24.776  25.902  0.0839 -0.0824 -0.4349
  405BOLB   PO2 9710  17.330  24.653  26.303  0.3087  0.0336 -0.1650
  405BOLB   GL3 9711  17.318  24.230  26.187 -0.2249 -0.0770  0.0817
  405BOLB   GL4 9712  17.110  24.063  26.239 -0.3475 -0.1814 -0.1105
  405BOLB   C1C 9713  17.447  23.793  26.425 -0.0787 -0.0573  0.0352
  405BOLB   C2C 9714  17.386  23.373  26.311  0.1080  0.0537  0.1868
  405BOLB   C3C 9715  17.282  22.980  26.504 -0.0581 -0.0039 -0.3040
  405BOLB   C4C 9716  16.955  22.899  26.830  0.0994  0.1606 -0.0264
  405BOLB   C1D 9717  17.421  23.756  25.928 -0.2378 -0.0845 -0.1715
  405BOLB   C2D 9718  17.613  23.438  25.716 -0.1798 -0.2623  0.0547
  405BOLB   C3D 9719  17.715  23.413  25.304 -0.1042 -0.0879  0.0760
  405BOLB   C4D 9720  17.357  23.431  24.990 -0.1128 -0.3080  0.1371
  406BOLB   NC1 9721  14.985   6.916  37.693 -0.3665  0.1024 -0.1491
  406BOLB   PO1 9722  14.859   6.700  37.352 -0.0871  0.0848  0.1531
  406BOLB   GL1 9723  14.814   6.469  37.630  0.0585 -0.1059 -0.0711
  406BOLB   GL2 9724  14.539   6.693  37.689  0.1419 -0.2027 -0.1706
  406BOLB   C1A 9725  14.552   6.299  37.957 -0.2579 -0.1627  0.0038
  406BOLB   C2A 9726  14.188   6.191  38.090  0.2669 -0.0561  0.0101
  406BOLB   C3A 9727  13.823   6.095  38.324 -0.2716 -0.0889 -0.0398
  406BOLB   C4A 9728  13.549   5.812  38.421 -0.1809 -0.2131  0.1408
  406BOLB   C1B 9729  14.239   6.681  37.963  0.1548  0.0508 -0.6634
  406BOLB   C2B 9730  13.808   6.627  38.155 -0.1748 -0.0995  0.1067
  406BOLB   C3B 9731  13.553   6.498  38.565 -0.4554  0.1936 -0.1731
  406BOLB   C4B 9732  13.194   6.517  38.872 -0.0215 -0.0392  0.3286
  406BOLB   NC2 9733  12.835   4.192  40.299  0.2905  0.3442 -0.1813
  406BOLB   PO2 9734  12.810   4.601  40.354 -0.1488  0.1713  0.0664
  406BOLB   GL3 9735  12.659   4.958  40.201  0.1048 -0.2128 -0.2182
  406BOLB   GL4 9736  12.459   5.241  40.405  0.0563  0.2556  0.0806
  406BOLB   C1C 9737  12.849   5.063  39.866  0.1082  0.0751 -0.3116
  406BOLB   C2C 9738  12.946   5.341  39.574 -0.0425 -0.1305 -0.3800
  406BOLB   C3C 9739  13.354   5.478  39.200 -0.1388  0.0606  0.0384
  406BOLB   C4C 9740  13.433   5.473  38.723  0.1427 -0.0029 -0.0014
  406BOLB   C1D 9741  12.744   5.490  40.165 -0.0207  0.0044  0.1882
  406BOLB   C2D 9742  12.861   5.952  40.095 -0.0762  0.0615  0.2456
  406BOLB   C3D 9743  13.083   6.373  40.253  0.2938 -0.0301 -0.2240
  406BOLB   C4D 9744  13.310   6.704  40.132 -0.1516  0.4358 -0.0974
  407BOLB   NC1 9745  19.066  11.415  39.200 -0.1629  0.0712  0.0614
  407BOLB   PO1 9746  19.437  11.271  39.407 -0.1058  0.1535  0.0771
  407BOLB   GL1 9747  19.687  11.320  39.735 -0.0075  0.0625 -0.1466
  407BOLB   GL2 9748  20.078  11.296  39.739  0.1913 -0.2798  0.0479
  407BOLB   C1A 9749  19.900  11.220  40.222 -0.2483  0.1641 -0.1815
  407BOLB   C2A 9750  20.171  11.482  40.597 -0.0351 -0.2299 -0.2650
  407BOLB   C3A 9751  20.100  11.595  41.001  0.0991  0.2228 -0.1706
  407BOLB   C4A 9752  19.949  11.904  41.337 -0.1290  0.3747  0.0330
  407BOLB   C1B 9753  20.328  11.509  40.081  0.0100 -0.1271  0.0971
  407BOLB   C2B 9754  20.705  11.651  40.370 -0.0231  0.0266  0.0104
  407BOLB   C3B 9755  20.879  11.719  40.694 -0.1935 -0.1241  0.2224
  407BOLB   C4B 9756  21.089  12.016  40.965 -0.0736  0.2925  0.0159
  407BOLB   NC2 9757  18.881  11.647  43.412 -0.0380 -0.1508 -0.1969
  407BOLB   PO2 9758  19.185  11.318  43.489  0.1199 -0.1228 -0.0099
  407BOLB   GL3 9759  19.375  11.415  43.107 -0.1811 -0.0930  0.1556
  407BOLB   GL4 9760  19.549  11.166  42.824  0.2237  0.0971  0.0011
  407BOLB   C1C 9761  19.307  11.635  42.738 -0.0688 -0.1681 -0.0747
  407BOLB   C2C 9762  19.439  11.604  42.377 -0.1011  0.0153 -0.0813
  407BOLB   C3C 9763  19.777  11.558  42.045  0.0436  0.1570 -0.1300
  407BOLB   C4C 9764  19.823  11.891  41.729 -0.0547 -0.1522  0.2278
  407BOLB   C1D 9765  19.575  11.172  42.435  0.0821 -0.0124  0.2507
  407BOLB   C2D 9766  19.517  10.813  42.110  0.0066 -0.0298 -0.0960
  407BOLB   C3D 9767  19.312  10.414  42.018 -0.2459 -0.0378 -0.0803
  407BOLB   C4D 9768  19.308  10.105  41.620 -0.1114  0.1432  0.2658
  408BOLB   NC1 9769  17.845   5.391  34.200  0.1439 -0.1387  0.2328
  408BOLB   PO1 9770  18.009   5.252  33.797  0.1580 -0.1523 -0.1203
  408BOLB   GL1 9771  18.291   5.095  34.109  0.0733  0.3674  0.1973
  408BOLB   GL2 9772  18.575   5.273  34.262  0.2111 -0.0445 -0.0530
  408BOLB   C1A 9773  18.490   4.793  34.468  0.2505  0.0877 -0.0337
  408BOLB   C2A 9774  18.548   4.320  34.643 -0.0108  0.1617 -0.1745
  408BOLB   C3A 9775  18.771   3.978  34.815  0.0592  0.0288  0.2110
  408BOLB   C4A 9776  19.285   3.907  34.735 -0.2881 -0.3146  0.0934
  408BOLB   C1B 9777  18.786   4.879  34.023  0.0418 -0.0949  0.0274
  408BOLB   C2B 9778  18.873   4.549  34.218  0.2819 -0.2223  0.0879
  408BOLB   C3B 9779  19.025   4.270  34.489 -0.0268  0.0841  0.1489
  408BOLB   C4B 9780  19.565   4.254  34.498 -0.1227 -0.0868  0.0704
  408BOLB   NC2 9781  20.453   2.058  36.116  0.0706  0.1054  0.0972
  408BOLB   PO2 9782  20.503   1.950  35.601 -0.0535  0.0913 -0.0459
  408BOLB   GL3 9783  20.153   2.382  35.587 -0.1502  0.0168  0.2289
  408BOLB   GL4 9784  20.162   2.550  35.892 -0.2792 -0.0746 -0.1167
  408BOLB   C1C 9785  20.157   2.773  35.358  0.2993 -0.1681  0.3744
  408BOLB   C2C 9786  19.966   3.091  35.196 -0.0996 -0.1507  0.3867
  408BOLB   C3C 9787  19.828   3.461  34.899 -0.0191  0.1250  0.1687
  408BOLB   C4C 9788  19.718   3.794  34.671  0.3000  0.3790 -0.0222
  408BOLB   C1D 9789  19.801   2.836  35.774 -0.4662 -0.0541  0.1033
  408BOLB   C2D 9790  19.770   3.208  35.802 -0.1154  0.0087 -0.0184
  408BOLB   C3D 9791  19.565   3.471  35.426 -0.1759  0.0999 -0.0708
  408BOLB   C4D 9792  19.315   3.898  35.381 -0.1284  0.0124  0.1049
  409BOLB   NC1 9793  23.165  13.479  32.327 -0.0255 -0.0734  0.0186
  409BOLB   PO1 9794  23.333  13.396  31.972 -0.1859  0.0419 -0.0446
  409BOLB   GL1 9795  23.776  13.312  32.067 -0.1170 -0.3174  0.4215
  409BOLB   GL2 9796  23.922  12.978  32.082  0.4004  0.2975  0.1445
  409BOLB   C1A 9797  24.057  13.434  32.309 -0.4332 -0.0527 -0.0017
  409BOLB   C2A 9798  24.504  13.504  32.274 -0.1477  0.1692 -0.2665
  409BOLB   C3A 9799  24.886  13.656  32.376 -0.0453  0.1244 -0.0570
  409BOLB   C4A 9800  25.359  13.576  32.421 -0.0627  0.1310  0.0340
  409BOLB   C1B 9801  24.378  12.955  32.190 -0.2341  0.1120 -0.1349
  409BOLB   C2B 9802  24.930  13.014  32.159 -0.1604 -0.1537  0.0942
  409BOLB   C3B 9803  25.161  13.504  31.986 -0.1729  0.1854  0.0982
  409BOLB   C4B 9804  25.167  13.820  31.671 -0.1590  0.0504  0.0916
  409BOLB   NC2 9805   0.328  14.699  32.790 -0.0954 -0.0639 -0.0123
  409BOLB   PO2 9806   0.394  14.296  33.070 -0.1755  0.1586  0.0610
  409BOLB   GL3 9807   0.041  14.238  32.922  0.1041  0.0387 -0.1094
  409BOLB   GL4 9808  26.915  14.573  33.033  0.1715 -0.1485  0.1144
  409BOLB   C1C 9809  26.905  14.152  32.532  0.0498 -0.3949 -0.0039
  409BOLB   C2C 9810  26.499  14.020  32.432 -0.1862 -0.0524 -0.0062
  409BOLB   C3C 9811  26.115  13.804  32.364  0.5158 -0.1951  0.1500
  409BOLB   C4C 9812  25.803  13.575  32.305  0.1852  0.2724  0.0369
  409BOLB   C1D 9813  26.534  14.542  32.973 -0.1597 -0.1665 -0.3328
  409BOLB   C2D 9814  26.004  14.492  33.034 -0.0154  0.0216 -0.2482
  409BOLB   C3D 9815  25.688  14.475  32.756  0.0526 -0.0955 -0.0167
  409BOLB   C4D 9816  25.323  14.379  32.558 -0.0663 -0.0069 -0.1688
  410BOLB   NC1 9817  11.083  19.621  33.253  0.5007  0.1803 -0.1324
  410BOLB   PO1 9818  10.870  20.050  33.280  0.0478  0.0209  0.0132
  410BOLB   GL1 9819  10.665  20.505  33.225 -0.2137 -0.2858  0.1052
  410BOLB   GL2 9820  10.238  20.561  32.956  0.1734 -0.2111  0.2725
  410BOLB   C1A 9821  10.488  20.906  33.275 -0.2573  0.2040  0.0546
  410BOLB   C2A 9822  10.302  21.337  33.485 -0.1638  0.0944 -0.1181
  410BOLB   C3A 9823   9.941  21.501  33.481 -0.1791 -0.2403  0.0790
  410BOLB   C4A 9824   9.641  21.798  33.506 -0.1672  0.0424  0.2581
  410BOLB   C1B 9825   9.798  20.721  32.900 -0.1574  0.4012  0.0378
  410BOLB   C2B 9826   9.396  20.829  32.927  0.0222  0.0421  0.0303
  410BOLB   C3B 9827   9.043  20.980  32.656  0.1121  0.1411  0.2347
  410BOLB   C4B 9828   8.803  20.833  32.348  0.0023  0.2297 -0.1423
  410BOLB   NC2 9829   8.022  23.437  33.431  0.0256  0.2657  0.4127
  410BOLB   PO2 9830   7.878  23.284  33.758 -0.0641 -0.1379  0.0920
  410BOLB   GL3 9831   8.273  23.106  33.651 -0.2052 -0.0219 -0.0359
  410BOLB   GL4 9832   8.292  22.895  33.949 -0.0749  0.2705 -0.1079
  410BOLB   C1C 9833   8.543  22.685  33.548  0.0813 -0.1576  0.0348
  410BOLB   C2C 9834   8.625  22.370  33.268  0.1244 -0.3023  0.0186
  410BOLB   C3C 9835   8.997  22.218  33.113 -0.1036 -0.0939 -0.0085
  410BOLB   C4C 9836   9.376  22.126  33.348 -0.1516  0.0578  0.1875
  410BOLB   C1D 9837   8.637  22.582  34.055 -0.5167 -0.1436  0.1842
  410BOLB   C2D 9838   8.972  22.423  34.222 -0.0089  0.2609 -0.1142
  410BOLB   C3D 9839   9.264  22.086  34.293  0.1072 -0.2083  0.1966
  410BOLB   C4D 9840   9.210  21.571  34.123  0.0271  0.0632  0.4402
  411BOLB   NC1 9841  23.486   6.405  19.237  0.1973  0.0764  0.2792
  411BOLB   PO1 9842  23.333   6.082  19.464  0.1005  0.1563 -0.1216
  411BOLB   GL1 9843  23.009   6.305  19.497  0.1498  0.2879 -0.4537
  411BOLB   GL2 9844  22.838   6.085  19.566  0.3802 -0.2682 -0.0852
  411BOLB   C1A 9845  22.781   6.566  19.632  0.1406  0.0656  0.0098
  411BOLB   C2A 9846  22.421   6.731  19.671  0.0801  0.0009  0.0516
  411BOLB   C3A 9847  22.337   7.197  19.628 -0.0849  0.0294  0.0782
  411BOLB   C4A 9848  22.051   7.337  19.242 -0.1770 -0.3679 -0.2055
  411BOLB   C1B 9849  22.412   6.284  19.343 -0.1700 -0.1961  0.0438
  411BOLB   C2B 9850  22.042   6.608  19.349  0.0407  0.2758  0.0219
  411BOLB   C3B 9851  21.879   6.834  19.604  0.0834 -0.2286  0.0692
  411BOLB   C4B 9852  21.595   7.160  19.816  0.0356  0.3229  0.0298
  411BOLB   NC2 9853  22.521   6.595  17.646 -0.0074 -0.1432 -0.0483
  411BOLB   PO2 9854  22.159   6.443  17.511 -0.1315 -0.1581  0.1089
  411BOLB   GL3 9855  21.936   6.746  17.796  0.1824  0.1225  0.1177
  411BOLB   GL4 9856  21.657   6.647  18.019  0.1659 -0.0006  0.1924
  411BOLB   C1C 9857  21.824   7.229  17.842 -0.2812  0.0321  0.0066
  411BOLB   C2C 9858  21.767   7.539  18.140 -0.1575  0.0548  0.0273
  411BOLB   C3C 9859  21.744   7.485  18.562  0.0394 -0.0333  0.0833
  411BOLB   C4C 9860  21.787   7.519  18.978  0.0603  0.1280 -0.1007
  411BOLB   C1D 9861  21.357   7.035  18.011  0.1090 -0.2775 -0.1597
  411BOLB   C2D 9862  21.176   7.448  18.223 -0.0386  0.0996 -0.2271
  411BOLB   C3D 9863  21.309   7.827  18.462 -0.5681  0.1765 -0.0321
  411BOLB   C4D 9864  21.633   8.054  18.552  0.1891  0.1211  0.0806
  412BOLB   NC1 9865  22.389   8.483  27.684 -0.2476 -0.0675  0.1207
  412BOLB   PO1 9866  22.561   8.045  27.675 -0.0507  0.2255 -0.1017
  412BOLB   GL1 9867  23.065   8.017  27.703  0.1105  0.1103  0.3011
  412BOLB   GL2 9868  23.223   8.291  27.731 -0.0103  0.3068 -0.0736
  412BOLB   C1A 9869  23.404   7.886  27.557  0.1557 -0.0866 -0.1028
  412BOLB   C2A 9870  23.808   7.962  27.825  0.0263 -0.1216 -0.3124
  412BOLB   C3A 9871  24.173   7.757  27.939 -0.1503 -0.1690  0.0745
  412BOLB   C4A 9872  24.477   7.413  27.996  0.1498 -0.2769 -0.1940
  412BOLB   C1B 9873  23.570   8.340  27.652  0.0272 -0.3072  0.0869
  412BOLB   C2B 9874  24.006   8.284  27.517 -0.0444 -0.2662 -0.0168
  412BOLB   C3B 9875  24.420   8.218  27.239 -0.0730  0.1334  0.2300
  412BOLB   C4B 9876  24.749   7.926  27.193 -0.1824 -0.2020 -0.0122
  412BOLB   NC2 9877  26.275   5.960  28.331  0.2642 -0.2998  0.0044
  412BOLB   PO2 9878  26.439   6.385  28.330 -0.1089 -0.1741 -0.1404
  412BOLB   GL3 9879  25.971   6.334  28.464  0.0651  0.0582  0.1850
  412BOLB   GL4 9880  25.897   6.075  28.726  0.2198  0.0624  0.1086
  412BOLB   C1C 9881  25.580   6.541  28.523 -0.1141 -0.0034  0.1712
  412BOLB   C2C 9882  25.276   6.894  28.469 -0.1174  0.2047  0.1404
  412BOLB   C3C 9883  24.928   6.908  28.257 -0.1550  0.2218  0.0652
  412BOLB   C4C 9884  24.628   7.099  28.292 -0.0547 -0.2657 -0.1566
  412BOLB   C1D 9885  25.428   6.053  28.500  0.0434  0.2788 -0.3179
  412BOLB   C2D 9886  25.207   5.915  28.171  0.2469  0.1260 -0.1845
  412BOLB   C3D 9887  24.944   5.693  27.870  0.1224 -0.0767 -0.2542
  412BOLB   C4D 9888  24.904   5.266  27.968  0.0913 -0.0934  0.4835
  413BOLB   NC1 9889  18.593   6.927  22.605 -0.0291  0.1349  0.1139
  413BOLB   PO1 9890  18.834   6.507  22.498 -0.6454 -0.0914  0.1433
  413BOLB   GL1 9891  19.093   6.313  22.130 -0.0780 -0.0914 -0.0998
  413BOLB   GL2 9892  19.143   6.312  21.868  0.2466  0.3627  0.3531
  413BOLB   C1A 9893  18.890   5.795  22.022 -0.2778 -0.2593 -0.2158
  413BOLB   C2A 9894  18.804   5.509  21.650 -0.2866 -0.4211 -0.3647
  413BOLB   C3A 9895  19.010   5.434  21.322 -0.1259  0.1916  0.1685
  413BOLB   C4A 9896  19.240   5.337  20.917 -0.0398  0.0477 -0.0033
  413BOLB   C1B 9897  19.541   6.128  21.652  0.2270 -0.1937  0.0372
  413BOLB   C2B 9898  19.882   6.006  21.582 -0.1752  0.1153 -0.2457
  413BOLB   C3B 9899  20.025   5.697  21.303 -0.1326  0.0601 -0.3206
  413BOLB   C4B 9900  20.255   5.686  20.833 -0.0620  0.1662  0.2700
  413BOLB   NC2 9901  21.138   4.408  19.284  0.0443  0.2534  0.0055
  413BOLB   PO2 9902  20.701   4.384  19.251 -0.2650 -0.4026 -0.0997
  413BOLB   GL3 9903  20.586   4.810  19.460  0.3920  0.0763  0.0022
  413BOLB   GL4 9904  20.579   5.023  19.339  0.3724  0.2684 -0.1213
  413BOLB   C1C 9905  20.254   4.936  19.856  0.0904  0.3033  0.0140
  413BOLB   C2C 9906  20.166   4.928  20.303 -0.1762  0.1212 -0.1568
  413BOLB   C3C 9907  20.118   5.222  20.653  0.1132 -0.1988  0.1045
  413BOLB   C4C 9908  19.776   5.375  20.943  0.0790  0.4238  0.3407
  413BOLB   C1D 9909  20.207   5.293  19.483 -0.1181 -0.2039  0.3314
  413BOLB   C2D 9910  19.927   5.413  19.790  0.0508 -0.1255  0.1815
  413BOLB   C3D 9911  20.042   5.470  20.136 -0.3353  0.1799 -0.2764
  413BOLB   C4D 9912  20.374   5.417  20.291 -0.0128 -0.2817 -0.3602
  414BOLB   NC1 9913  17.181  11.385  19.046 -0.3758  0.1547 -0.1010
  414BOLB   PO1 9914  16.916  11.647  18.908 -0.1263  0.0011  0.0020
  414BOLB   GL1 9915  17.125  11.589  18.558  0.1912  0.0188 -0.0099
  414BOLB   GL2 9916  17.300  11.789  18.393 -0.2218 -0.0249  0.0556
  414BOLB   C1A 9917  17.521  11.366  18.384  0.0448  0.2115  0.0714
  414BOLB   C2A 9918  17.834  11.272  18.005  0.2437 -0.0487 -0.4561
  414BOLB   C3A 9919  17.554  11.077  17.736 -0.1181  0.1030 -0.2198
  414BOLB   C4A 9920  17.395  10.821  17.461  0.5576  0.2203  0.1038
  414BOLB   C1B 9921  17.469  11.648  17.902  0.0139 -0.0773 -0.0611
  414BOLB   C2B 9922  17.374  11.816  17.599  0.1364 -0.2499  0.0652
  414BOLB   C3B 9923  17.489  12.228  17.345  0.1885 -0.0703 -0.1639
  414BOLB   C4B 9924  17.331  12.254  16.986 -0.2047  0.0708  0.0136
  414BOLB   NC2 9925  16.402  10.233  14.818 -0.1203 -0.3555  0.1424
  414BOLB   PO2 9926  16.523  10.152  15.205  0.1076 -0.1221  0.2683
  414BOLB   GL3 9927  16.755  10.275  15.569  0.6042 -0.0684  0.3817
  414BOLB   GL4 9928  17.052  10.466  15.579 -0.3737  0.0207  0.1964
  414BOLB   C1C 9929  16.774  10.566  15.999 -0.4154 -0.2031  0.0950
  414BOLB   C2C 9930  17.045  10.730  16.252  0.2043  0.1778  0.1163
  414BOLB   C3C 9931  17.201  10.734  16.707  0.1034  0.4047 -0.0029
  414BOLB   C4C 9932  17.435  10.694  17.094  0.0833 -0.3883 -0.2711
  414BOLB   C1D 9933  17.189  10.291  15.904 -0.2261  0.0942 -0.1029
  414BOLB   C2D 9934  17.170  10.116  16.370  0.2645  0.0640  0.2120
  414BOLB   C3D 9935  17.008  10.195  16.878  0.4237  0.0513 -0.1148
  414BOLB   C4D 9936  17.123  10.007  17.225  0.1542 -0.0625  0.2188
  415BOLB   NC1 9937  13.793   7.119  36.357  0.1093  0.2476 -0.0275
  415BOLB   PO1 9938  13.831   6.674  36.409 -0.1919  0.1203  0.0092
  415BOLB   GL1 9939  13.644   6.337  36.658  0.1483 -0.3035  0.3736
  415BOLB   GL2 9940  13.901   6.071  36.466  0.2361  0.2441  0.2930
  415BOLB   C1A 9941  13.231   6.063  36.833 -0.0085 -0.1672 -0.0433
  415BOLB   C2A 9942  13.122   6.054  37.280  0.0110 -0.3251 -0.0480
  415BOLB   C3A 9943  13.021   5.773  37.618  0.2162  0.0435  0.0165
  415BOLB   C4A 9944  12.922   5.379  37.811 -0.1624  0.1010 -0.0100
  415BOLB   C1B 9945  13.793   5.858  36.847  0.2865 -0.1687  0.3121
  415BOLB   C2B 9946  13.543   5.590  37.003 -0.2246  0.2626  0.1529
  415BOLB   C3B 9947  13.254   5.533  37.191 -0.2281  0.0394 -0.0714
  415BOLB   C4B 9948  13.054   5.206  37.391 -0.1054 -0.0878 -0.1877
  415BOLB   NC2 9949  12.214   4.178  39.669  0.1012 -0.2892 -0.0030
  415BOLB   PO2 9950  12.621   4.008  39.793  0.1478 -0.0108  0.1642
  415BOLB   GL3 9951  12.777   4.149  39.441 -0.2993 -0.0363 -0.0554
  415BOLB   GL4 9952  12.563   4.480  39.360  0.0645  0.0392  0.2260
  415BOLB   C1C 9953  12.800   4.365  38.980 -0.0638 -0.0824  0.0727
  415BOLB   C2C 9954  12.656   4.641  38.624  0.2113  0.2695  0.3561
  415BOLB   C3C 9955  12.884   4.693  38.189 -0.0779 -0.0038 -0.1374
  415BOLB   C4C 9956  12.904   5.000  37.939 -0.0212 -0.0839  0.0465
  415BOLB   C1D 9957  12.232   4.357  38.946  0.0907  0.0575  0.2835
  415BOLB   C2D 9958  11.947   4.681  38.796  0.1716 -0.0540 -0.3633
  415BOLB   C3D 9959  11.619   4.493  38.542 -0.0144  0.1426  0.1347
  415BOLB   C4D 9960  11.677   4.342  38.085 -0.2421 -0.0522  0.1211
  416BOLB   NC1 9961  22.543  12.162  35.072 -0.0353 -0.4492 -0.1526
  416BOLB   PO1 9962  22.997  12.277  35.227  0.2020 -0.4914  0.0722
  416BOLB   GL1 9963  23.367  12.355  35.153  0.0332  0.0185  0.1952
  416BOLB   GL2 9964  23.552  12.319  35.477  0.1207 -0.0766  0.0039
  416BOLB   C1A 9965  23.667  11.992  35.107  0.0983  0.1078 -0.3185
  416BOLB   C2A 9966  24.165  11.926  35.259  0.2007 -0.0585  0.2046
  416BOLB   C3A 9967  24.466  11.544  35.259  0.0981  0.2189  0.0542
  416BOLB   C4A 9968  24.816  11.548  35.021 -0.0781  0.0041 -0.2244
  416BOLB   C1B 9969  23.800  12.513  35.839 -0.0857  0.2170 -0.0142
  416BOLB   C2B 9970  24.053  12.590  36.331  0.1631  0.0002  0.1602
  416BOLB   C3B 9971  24.073  12.884  36.648 -0.2030  0.0278  0.2104
  416BOLB   C4B 9972  24.087  13.049  37.056 -0.3047  0.1842  0.0939
  416BOLB   NC2 9973  26.981  11.986  35.825  0.1490 -0.0694  0.5530
  416BOLB   PO2 9974  26.964  12.372  35.508  0.1295 -0.2580  0.0306
  416BOLB   GL3 9975  26.629  12.368  35.325  0.3349  0.4511 -0.3304
  416BOLB   GL4 9976  26.646  11.967  35.318 -0.0677  0.1777  0.1353
  416BOLB   C1C 9977  26.082  12.266  35.295 -0.0135  0.1044 -0.0912
  416BOLB   C2C 9978  25.721  12.277  35.094  0.4086 -0.1976 -0.1485
  416BOLB   C3C 9979  25.320  12.054  34.861 -0.1996  0.1114 -0.1473
  416BOLB   C4C 9980  25.060  11.840  35.053 -0.1742 -0.0605 -0.1005
  416BOLB   C1D 9981  26.373  12.022  35.613 -0.0603  0.0068 -0.1737
  416BOLB   C2D 9982  25.972  11.935  35.791  0.1570 -0.0059 -0.0410
  416BOLB   C3D 9983  25.754  12.081  36.106 -0.0344  0.2439  0.0882
  416BOLB   C4D 9984  25.848  12.150  36.480  0.1467 -0.3726 -0.1091
  417BOLB   NC1 9985  13.695   5.253  28.966 -0.0546  0.0380 -0.2840
  417BOLB   PO1 9986  13.303   4.943  29.109  0.2222  0.2343  0.3306
  417BOLB   GL1 9987  13.021   4.638  29.324  0.1836  0.0967  0.3692
  417BOLB   GL2 9988  13.080   4.434  28.979  0.0024  0.1354 -0.2470
  417BOLB   C1A 9989  12.750   4.278  29.439  0.2494 -0.0724  0.1004
  417BOLB   C2A 9990  12.514   3.844  29.397  0.2822 -0.1309  0.4881
  417BOLB   C3A 9991  12.322   3.485  29.268 -0.0745 -0.1278  0.2415
  417BOLB   C4A 9992  12.039   3.080  29.391  0.1289 -0.0939  0.1539
  417BOLB   C1B 9993  12.913   3.928  28.950  0.0196 -0.0354 -0.0643
  417BOLB   C2B 9994  12.796   3.632  29.046 -0.1666  0.2774 -0.2572
  417BOLB   C3B 9995  12.866   3.290  29.257  0.0232 -0.0730 -0.1991
  417BOLB   C4B 9996  12.890   2.916  29.061  0.0409  0.2810 -0.2860
  417BOLB   NC2 9997  10.122   1.266  29.332  0.2065 -0.1109 -0.0674
  417BOLB   PO2 9998   9.928   1.614  29.594 -0.1068  0.0664 -0.1029
  417BOLB   GL3 9999  10.245   1.884  29.576  0.0193 -0.4806  0.1648
  417BOLB   GL410000  10.185   2.184  29.427  0.1153 -0.0803  0.1465
  417BOLB   C1C10001  10.650   1.990  29.431  0.1259  0.1438 -0.0092
  417BOLB   C2C10002  11.050   2.169  29.327  0.0363  0.1036  0.1308
  417BOLB   C3C10003  11.358   2.583  29.227  0.1687  0.1427 -0.2645
  417BOLB   C4C10004  11.666   2.760  29.522  0.1066 -0.0922  0.0540
  417BOLB   C1D10005  10.396   2.452  29.730  0.1156 -0.1795  0.0707
  417BOLB   C2D10006  10.726   2.638  29.786  0.0740 -0.0752 -0.1406
  417BOLB   C3D10007  10.932   2.752  29.364 -0.1536  0.0945  0.2141
  417BOLB   C4D10008  10.858   2.516  28.959 -0.1802 -0.0544  0.3514
  418BOLB   NC110009  13.081  14.569  21.453  0.0945 -0.1830  0.3253
  418BOLB   PO110010  13.238  14.705  21.200 -0.0317  0.2307 -0.4723
  418BOLB   GL110011  13.101  15.025  20.794 -0.2627  0.0099 -0.0348
  418BOLB   GL210012  12.768  14.774  20.688  0.1091 -0.2863 -0.0793
  418BOLB   C1A10013  12.849  15.192  20.431  0.0863  0.1188  0.0855
  418BOLB   C2A10014  12.644  15.361  20.224 -0.0131 -0.2456  0.4622
  418BOLB   C3A10015  12.495  15.703  19.906 -0.1465  0.1062  0.0374
  418BOLB   C4A10016  12.191  15.894  19.661 -0.1263 -0.2367 -0.2110
  418BOLB   C1B10017  12.459  14.791  20.390 -0.0751 -0.1035  0.0182
  418BOLB   C2B10018  12.211  14.617  20.095 -0.2909  0.0432  0.0349
  418BOLB   C3B10019  12.003  14.629  19.659  0.2162  0.0966  0.3632
  418BOLB   C4B10020  11.636  14.800  19.367  0.1233  0.0996  0.2209
  418BOLB   NC210021  11.073  17.440  17.371 -0.0369 -0.0696 -0.4165
  418BOLB   PO210022  11.066  17.044  17.598  0.2653 -0.0441  0.4405
  418BOLB   GL310023  11.303  17.000  18.058 -0.3599 -0.1811  0.3279
  418BOLB   GL410024  11.114  17.017  18.383 -0.0435 -0.0005  0.1719
  418BOLB   C1C10025  11.657  16.905  18.294 -0.0885  0.4014  0.1614
  418BOLB   C2C10026  11.954  16.695  18.697  0.0684  0.1626 -0.1455
  418BOLB   C3C10027  11.961  16.261  18.885 -0.2729 -0.0848  0.1627
  418BOLB   C4C10028  12.107  16.111  19.332 -0.0446 -0.2809 -0.0359
  418BOLB   C1D10029  11.274  16.761  18.564  0.1350 -0.1560  0.2334
  418BOLB   C2D10030  11.635  16.419  18.450 -0.1286  0.0352 -0.3108
  418BOLB   C3D10031  11.630  15.998  18.426 -0.0959 -0.0653  0.2774
  418BOLB   C4D10032  11.822  15.835  18.032  0.0950 -0.2314  0.0915
  419BOLB   NC110033  20.901   5.755  28.842 -0.0473  0.0867 -0.1984
  419BOLB   PO110034  21.226   5.470  28.830 -0.0918  0.2836  0.0322
  419BOLB   GL110035  21.609   5.303  29.032 -0.0886  0.2914  0.0108
  419BOLB   GL210036  21.929   5.487  29.183  0.2153  0.0603  0.0725
  419BOLB   C1A10037  21.879   5.011  29.393  0.1542  0.0196 -0.0875
  419BOLB   C2A10038  22.171   4.687  29.321  0.0584  0.0508  0.1441
  419BOLB   C3A10039  22.160   4.268  29.448  0.1372  0.1058  0.0750
  419BOLB   C4A10040  22.470   3.959  29.623  0.2154 -0.0511  0.0358
  419BOLB   C1B10041  22.268   5.203  29.044  0.2415 -0.2911 -0.0829
  419BOLB   C2B10042  22.535   4.867  28.898  0.1494  0.2109  0.1993
  419BOLB   C3B10043  22.942   4.755  29.000 -0.0080  0.0031 -0.1761
  419BOLB   C4B10044  23.309   4.944  29.216  0.4658  0.0599 -0.1773
  419BOLB   NC210045  23.407   1.577  29.358  0.0575  0.1578  0.1768
  419BOLB   PO210046  23.660   1.930  29.155  0.1163 -0.2237 -0.2157
  419BOLB   GL310047  23.457   2.227  29.306  0.2409 -0.3287 -0.1714
  419BOLB   GL410048  23.150   2.375  29.181 -0.3818 -0.1866 -0.1276
  419BOLB   C1C10049  23.484   2.651  29.586  0.0257 -0.1306  0.2438
  419BOLB   C2C10050  23.400   3.062  29.505  0.0869 -0.2110 -0.0149
  419BOLB   C3C10051  23.077   3.335  29.447  0.0392  0.3888  0.2188
  419BOLB   C4C10052  22.673   3.618  29.414 -0.0543 -0.0970  0.1642
  419BOLB   C1D10053  22.986   2.798  29.367 -0.1047  0.2368  0.2785
  419BOLB   C2D10054  22.611   3.083  29.375 -0.0369  0.3977 -0.1274
  419BOLB   C3D10055  22.110   3.254  29.298 -0.1272 -0.0077 -0.0368
  419BOLB   C4D10056  21.702   3.430  29.345 -0.2276  0.1248  0.2168
  420BOLB   NC110057  13.021   8.864  22.356 -0.1315  0.1431  0.0521
  420BOLB   PO110058  12.800   8.699  22.562  0.1016 -0.0250  0.1033
  420BOLB   GL110059  12.746   8.389  22.241  0.3698 -0.1388 -0.1300
  420BOLB   GL210060  12.951   8.105  22.180 -0.1121  0.1883  0.0940
  420BOLB   C1A10061  12.412   8.393  21.819 -0.0093  0.1640 -0.0333
  420BOLB   C2A10062  12.422   8.259  21.415  0.0506 -0.3906 -0.1637
  420BOLB   C3A10063  12.522   7.979  21.113  0.1470 -0.3311 -0.2273
  420BOLB   C4A10064  12.360   7.848  20.730  0.0386 -0.1719 -0.1587
  420BOLB   C1B10065  12.774   7.676  22.213 -0.0558 -0.1023 -0.3269
  420BOLB   C2B10066  12.455   7.408  21.987 -0.0134  0.2358 -0.1727
  420BOLB   C3B10067  11.987   7.385  21.939 -0.2518  0.0675 -0.1013
  420BOLB   C4B10068  11.504   7.525  21.973 -0.1122 -0.0832 -0.3757
  420BOLB   NC210069  10.492   6.797  19.024  0.1480  0.1371  0.0493
  420BOLB   PO210070  10.890   6.824  19.116 -0.0359 -0.1325 -0.1140
  420BOLB   GL310071  10.833   7.155  19.354 -0.2158  0.0307  0.0673
  420BOLB   GL410072  10.610   7.334  19.501  0.1033 -0.0648  0.1578
  420BOLB   C1C10073  11.297   7.318  19.517 -0.0112 -0.3329 -0.0365
  420BOLB   C2C10074  11.608   7.614  19.713 -0.1693 -0.0850  0.2467
  420BOLB   C3C10075  12.010   7.712  19.868 -0.0420  0.3804 -0.3157
  420BOLB   C4C10076  12.127   7.859  20.271  0.1125  0.2994 -0.0490
  420BOLB   C1D10077  10.950   7.436  19.797 -0.0440 -0.0115  0.1461
  420BOLB   C2D10078  11.321   7.306  19.994 -0.0053  0.1282  0.2471
  420BOLB   C3D10079  11.694   7.424  20.181 -0.0286 -0.5241 -0.0248
  420BOLB   C4D10080  12.026   7.338  20.406  0.0440  0.0513 -0.1811
  421BOLB   NC110081  13.843  18.554  17.020  0.2996  0.2677 -0.0201
  421BOLB   PO110082  14.289  18.437  16.984  0.0611 -0.1679 -0.3859
  421BOLB   GL110083  14.533  18.226  17.317  0.1109 -0.2014  0.1682
  421BOLB   GL210084  14.502  18.509  17.457  0.2710 -0.1423  0.1231
  421BOLB   C1A10085  14.853  18.042  17.485 -0.1644  0.1174 -0.1358
  421BOLB   C2A10086  15.006  17.740  17.775 -0.1809  0.1713  0.0851
  421BOLB   C3A10087  15.213  17.392  18.006 -0.1600 -0.2814 -0.0300
  421BOLB   C4A10088  15.646  17.199  18.006  0.1108 -0.2776  0.3536
  421BOLB   C1B10089  14.750  18.473  17.767  0.3206 -0.2173  0.0521
  421BOLB   C2B10090  15.030  18.216  17.953 -0.3332  0.1961 -0.1561
  421BOLB   C3B10091  15.289  17.959  18.222  0.0917 -0.0303  0.0948
  421BOLB   C4B10092  15.651  17.590  18.288 -0.0295  0.0536  0.0055
  421BOLB   NC210093  15.848  18.073  16.382 -0.1370 -0.2491 -0.2715
  421BOLB   PO210094  16.238  18.277  16.504 -0.1994  0.2368 -0.0168
  421BOLB   GL310095  16.228  17.813  16.586 -0.1162  0.1544  0.1665
  421BOLB   GL410096  16.619  17.672  16.690 -0.5617  0.1072  0.4508
  421BOLB   C1C10097  16.291  17.639  17.009  0.2012 -0.3777 -0.1758
  421BOLB   C2C10098  16.344  17.712  17.323 -0.2365 -0.0978 -0.3023
  421BOLB   C3C10099  16.321  17.465  17.621  0.2851  0.1863 -0.1271
  421BOLB   C4C10100  16.094  17.280  17.931  0.0532  0.0893 -0.3948
  421BOLB   C1D10101  16.760  17.440  17.098  0.3019  0.0077 -0.2754
  421BOLB   C2D10102  16.967  17.209  17.473  0.0173  0.0817  0.1182
  421BOLB   C3D10103  17.150  17.063  17.795 -0.2381  0.3704  0.1814
  421BOLB   C4D10104  17.419  16.907  18.084 -0.2156  0.0555 -0.0078
  422BOLB   NC110105  13.836  13.979  39.157  0.0521 -0.0410  0.2091
  422BOLB   PO110106  13.976  13.891  39.643 -0.1397  0.2111  0.0671
  422BOLB   GL110107  13.759  13.783  40.054  0.2617 -0.2513 -0.2330
  422BOLB   GL210108  13.494  13.613  40.142 -0.2962  0.0051  0.0389
  422BOLB   C1A10109  13.778  13.854  40.492  0.2016  0.2956  0.0117
  422BOLB   C2A10110  13.691  13.652  40.903 -0.5238  0.0611  0.0301
  422BOLB   C3A10111  13.544  13.335  41.156 -0.1380 -0.1598 -0.0012
  422BOLB   C4A10112  13.325  13.044  41.478  0.0845 -0.0171  0.1916
  422BOLB   C1B10113  13.364  13.488  40.543 -0.0784 -0.0349 -0.0010
  422BOLB   C2B10114  13.248  13.251  40.774  0.3723 -0.0185 -0.1659
  422BOLB   C3B10115  13.247  12.911  40.952 -0.0498  0.1487  0.0466
  422BOLB   C4B10116  13.178  12.491  41.180  0.1800  0.2774  0.2224
  422BOLB   NC210117  12.306  12.638  43.549  0.0004 -0.1801  0.1841
  422BOLB   PO210118  12.408  12.255  43.445 -0.2371  0.1440 -0.0961
  422BOLB   GL310119  12.867  12.182  43.370 -0.1587  0.1862  0.1912
  422BOLB   GL410120  13.146  12.383  43.359 -0.3445  0.1527 -0.2193
  422BOLB   C1C10121  13.023  11.948  43.031 -0.0173  0.0386 -0.2696
  422BOLB   C2C10122  13.163  12.109  42.577 -0.0751  0.0400 -0.0884
  422BOLB   C3C10123  13.339  12.421  42.248 -0.2724 -0.2529 -0.0987
  422BOLB   C4C10124  13.381  12.628  41.737  0.2056 -0.0759  0.2823
  422BOLB   C1D10125  13.142  12.466  42.971 -0.1748 -0.2124 -0.1994
  422BOLB   C2D10126  13.425  12.664  42.661  0.2338  0.1174  0.1628
  422BOLB   C3D10127  13.452  12.917  42.181 -0.0800  0.0131 -0.1184
  422BOLB   C4D10128  13.209  13.215  41.924 -0.1065 -0.2440  0.3233
  423BOLB   NC110129  16.862   8.486  20.105 -0.0090 -0.2604 -0.0787
  423BOLB   PO110130  17.254   8.303  20.272 -0.1836  0.0118 -0.3129
  423BOLB   GL110131  17.088   7.935  20.181 -0.0462 -0.3267  0.4886
  423BOLB   GL210132  17.008   7.661  20.474 -0.0980  0.1432  0.2992
  423BOLB   C1A10133  17.061   7.777  19.765  0.3251 -0.1398 -0.0062
  423BOLB   C2A10134  16.917   7.656  19.342  0.2510 -0.0327 -0.0069
  423BOLB   C3A10135  16.946   7.343  18.974  0.0774 -0.1162 -0.4695
  423BOLB   C4A10136  17.324   7.177  18.786  0.2870 -0.1296  0.2007
  423BOLB   C1B10137  17.292   7.466  20.089 -0.0916  0.1468 -0.0124
  423BOLB   C2B10138  17.135   7.285  19.756 -0.1379 -0.0020 -0.2819
  423BOLB   C3B10139  16.764   7.171  19.513 -0.0733 -0.1178 -0.4315
  423BOLB   C4B10140  16.630   6.957  19.176 -0.1574  0.2058  0.1405
  423BOLB   NC210141  17.561   5.438  17.225 -0.0708  0.2529 -0.1376
  423BOLB   PO210142  17.316   5.803  17.005  0.0605  0.1764 -0.1627
  423BOLB   GL310143  17.506   5.865  17.383 -0.0073  0.2399  0.1009
  423BOLB   GL410144  17.758   6.107  17.282 -0.4198  0.2132  0.0648
  423BOLB   C1C10145  17.521   5.943  17.815  0.0420 -0.2754  0.0423
  423BOLB   C2C10146  17.649   6.109  18.190  0.2013  0.0099 -0.2413
  423BOLB   C3C10147  17.629   6.502  18.375  0.1196 -0.0410  0.2333
  423BOLB   C4C10148  17.437   6.806  18.623  0.3378  0.0668 -0.0612
  423BOLB   C1D10149  17.729   6.439  17.579 -0.2908  0.0293  0.0677
  423BOLB   C2D10150  17.817   6.569  17.964 -0.2115 -0.0189 -0.2191
  423BOLB   C3D10151  18.012   6.788  18.347 -0.0083  0.1627  0.0111
  423BOLB   C4D10152  17.896   6.709  18.829  0.1332 -0.0462 -0.0230
  424BOLB   NC110153  14.480  13.336  20.264  0.0786 -0.1722  0.0499
  424BOLB   PO110154  14.486  13.716  20.081 -0.1853 -0.0245  0.2552
  424BOLB   GL110155  14.123  13.397  19.836 -0.2173 -0.2146 -0.0156
  424BOLB   GL210156  14.110  13.051  19.948 -0.2760 -0.2559 -0.0932
  424BOLB   C1A10157  13.697  13.428  19.474 -0.0948 -0.3892 -0.0936
  424BOLB   C2A10158  13.368  13.448  19.122  0.0193 -0.1985  0.2142
  424BOLB   C3A10159  12.951  13.402  18.999 -0.1243 -0.1599 -0.2320
  424BOLB   C4A10160  12.725  13.284  18.712 -0.0140  0.1772 -0.0926
  424BOLB   C1B10161  13.774  12.941  19.629 -0.3255  0.0443  0.1023
  424BOLB   C2B10162  13.652  12.889  19.319  0.3211 -0.0086  0.3193
  424BOLB   C3B10163  13.423  12.610  18.926  0.2575  0.0527  0.0969
  424BOLB   C4B10164  13.226  12.361  18.635 -0.0513 -0.0220 -0.1716
  424BOLB   NC210165  12.777  12.841  16.365  0.2654 -0.1706  0.0089
  424BOLB   PO210166  12.545  13.241  16.423  0.0592 -0.0570  0.3830
  424BOLB   GL310167  12.676  13.096  16.781 -0.1102  0.1361 -0.1861
  424BOLB   GL410168  12.998  13.110  16.725 -0.1203  0.2630 -0.2228
  424BOLB   C1C10169  12.811  12.922  17.199  0.1834 -0.0927 -0.0871
  424BOLB   C2C10170  12.757  12.943  17.649 -0.1050  0.2711 -0.1355
  424BOLB   C3C10171  12.725  13.066  18.051 -0.4647 -0.1144  0.2604
  424BOLB   C4C10172  12.685  12.959  18.458  0.2456 -0.0108 -0.2421
  424BOLB   C1D10173  13.205  13.183  17.014  0.0546  0.0631 -0.1426
  424BOLB   C2D10174  13.430  13.227  17.460 -0.2610 -0.1189 -0.3844
  424BOLB   C3D10175  13.302  12.937  17.828 -0.0332  0.0719  0.0936
  424BOLB   C4D10176  13.552  13.289  18.142 -0.1824  0.3679  0.0191
  425BOLB   NC110177  14.877  14.633  20.444 -0.0968 -0.1391 -0.0910
  425BOLB   PO110178  14.748  14.290  20.190 -0.3829  0.1699  0.0211
  425BOLB   GL110179  14.456  14.263  19.890  0.2742  0.0691  0.0577
  425BOLB   GL210180  14.363  13.963  19.649 -0.0889 -0.1088 -0.0992
  425BOLB   C1A10181  14.199  14.434  19.548 -0.4231  0.1544  0.2420
  425BOLB   C2A10182  13.899  14.524  19.321  0.1262 -0.0319 -0.0700
  425BOLB   C3A10183  13.916  14.678  18.867  0.0027 -0.0347  0.0240
  425BOLB   C4A10184  13.742  14.630  18.496 -0.2093  0.0849 -0.3548
  425BOLB   C1B10185  14.071  14.002  19.224  0.4068  0.3190  0.1030
  425BOLB   C2B10186  13.704  14.155  18.942  0.4663 -0.0793  0.0608
  425BOLB   C3B10187  13.418  14.543  18.874 -0.0268  0.0794 -0.0333
  425BOLB   C4B10188  13.106  14.934  19.067  0.0645 -0.0043 -0.0030
  425BOLB   NC210189  12.619  15.520  16.620  0.1679 -0.1011  0.0376
  425BOLB   PO210190  12.234  15.655  16.714 -0.0723 -0.1783 -0.2093
  425BOLB   GL310191  12.378  15.420  17.058 -0.0179  0.2773 -0.0561
  425BOLB   GL410192  12.168  15.104  17.125 -0.0579 -0.0789 -0.1251
  425BOLB   C1C10193  12.751  15.017  17.128 -0.2172 -0.0071  0.0411
  425BOLB   C2C10194  13.026  14.983  17.553 -0.2683  0.1563  0.0833
  425BOLB   C3C10195  13.269  14.890  17.928 -0.1724  0.0475 -0.1861
  425BOLB   C4C10196  13.576  14.742  18.160 -0.3633  0.0784 -0.0524
  425BOLB   C1D10197  12.433  15.079  17.487  0.1880 -0.2634 -0.5758
  425BOLB   C2D10198  12.622  15.142  17.862 -0.0900  0.2207  0.0549
  425BOLB   C3D10199  12.771  14.947  18.311 -0.2396  0.3920 -0.1924
  425BOLB   C4D10200  13.218  14.798  18.502  0.0592  0.0250  0.0699
  426BOLB   NC110201  16.250  19.936  29.203  0.0500 -0.0066  0.0313
  426BOLB   PO110202  16.691  20.034  29.473  0.0521 -0.3430  0.1853
  426BOLB   GL110203  17.069  20.355  29.476  0.1060  0.1389  0.3404
  426BOLB   GL210204  16.931  20.660  29.365  0.2197  0.3154 -0.1488
  426BOLB   C1A10205  17.457  20.610  29.368  0.0420 -0.0417 -0.2155
  426BOLB   C2A10206  17.841  20.849  29.438  0.2447  0.0407  0.2272
  426BOLB   C3A10207  17.966  21.258  29.620 -0.1650  0.2169  0.3649
  426BOLB   C4A10208  18.008  21.685  29.732 -0.2020  0.3614 -0.4094
  426BOLB   C1B10209  17.091  21.023  29.040 -0.0846 -0.0007 -0.0311
  426BOLB   C2B10210  17.233  21.395  28.854  0.0486 -0.1325 -0.1533
  426BOLB   C3B10211  17.471  21.887  28.713 -0.1816 -0.1802  0.1390
  426BOLB   C4B10212  17.608  22.307  28.569  0.1286  0.0301 -0.5546
  426BOLB   NC210213  18.668  24.009  30.489 -0.1841  0.0473 -0.0588
  426BOLB   PO210214  18.907  23.581  30.687  0.1503  0.1184  0.0197
  426BOLB   GL310215  18.849  23.222  30.753 -0.0298  0.0604  0.0385
  426BOLB   GL410216  18.835  23.044  31.034 -0.1040 -0.0010  0.0699
  426BOLB   C1C10217  18.471  22.931  30.725  0.2392  0.1681  0.0612
  426BOLB   C2C10218  18.323  22.439  30.587 -0.0720  0.0385  0.0402
  426BOLB   C3C10219  17.847  22.239  30.325  0.1548  0.4368 -0.2630
  426BOLB   C4C10220  17.856  21.810  30.090  0.3452 -0.1820  0.2045
  426BOLB   C1D10221  18.577  22.792  31.196  0.0102  0.3723 -0.3338
  426BOLB   C2D10222  18.502  22.453  31.043  0.0355 -0.2423  0.2127
  426BOLB   C3D10223  18.267  22.072  30.892  0.0882  0.0597  0.1687
  426BOLB   C4D10224  17.891  21.792  30.702  0.1878 -0.1573 -0.1945
  427BOLB   NC110225   8.929  18.993  29.716  0.2768  0.0765  0.3613
  427BOLB   PO110226   8.981  18.730  29.448  0.5780 -0.4438 -0.0542
  427BOLB   GL110227   8.550  18.869  29.341 -0.1368 -0.2494  0.1377
  427BOLB   GL210228   8.469  19.127  29.415  0.1899  0.2087  0.1357
  427BOLB   C1A10229   8.241  18.924  28.978 -0.1465 -0.0977 -0.0717
  427BOLB   C2A10230   8.094  19.270  28.789 -0.2803  0.0458 -0.1063
  427BOLB   C3A10231   7.779  19.329  28.393 -0.2505 -0.3175  0.0503
  427BOLB   C4A10232   7.356  19.422  28.440  0.0765  0.0709  0.1768
  427BOLB   C1B10233   8.055  19.280  29.335  0.3395  0.0158 -0.0321
  427BOLB   C2B10234   7.640  19.234  29.373  0.2496 -0.2531 -0.2731
  427BOLB   C3B10235   7.232  19.597  29.296 -0.0330  0.0387 -0.0120
  427BOLB   C4B10236   6.899  19.806  29.410  0.2581  0.1104 -0.1559
  427BOLB   NC210237   5.014  20.378  27.697 -0.2033  0.5460 -0.0262
  427BOLB   PO210238   5.395  20.449  27.544 -0.4229  0.1401 -0.1618
  427BOLB   GL310239   5.763  20.208  27.755  0.3009 -0.0244  0.0340
  427BOLB   GL410240   5.894  20.282  28.103 -0.2748  0.0526  0.0690
  427BOLB   C1C10241   5.888  19.837  27.639 -0.4744  0.0076 -0.2132
  427BOLB   C2C10242   6.228  19.733  27.840 -0.0966 -0.0197  0.0238
  427BOLB   C3C10243   6.567  19.505  27.997 -0.1195  0.1282  0.0199
  427BOLB   C4C10244   6.844  19.502  28.360  0.2255 -0.0591 -0.1412
  427BOLB   C1D10245   5.952  19.957  28.352 -0.0153  0.0569  0.0881
  427BOLB   C2D10246   5.898  19.514  28.404  0.3417  0.0907  0.0081
  427BOLB   C3D10247   6.039  19.132  28.630  0.0481 -0.4246 -0.1466
  427BOLB   C4D10248   6.216  18.905  28.906  0.3325  0.3338  0.3914
  428BOLB   NC110249  21.631  17.252  17.566  0.0191  0.2532  0.1518
  428BOLB   PO110250  21.686  17.412  17.965  0.1267 -0.0939 -0.2551
  428BOLB   GL110251  21.179  17.417  18.216 -0.2765  0.0137  0.0596
  428BOLB   GL210252  21.155  17.666  18.347  0.1318  0.0455 -0.1363
  428BOLB   C1A10253  21.007  17.164  18.621  0.1648 -0.0077 -0.0622
  428BOLB   C2A10254  20.712  16.927  18.956  0.1606  0.1312 -0.0420
  428BOLB   C3A10255  20.434  16.785  19.179 -0.2153 -0.0736 -0.2816
  428BOLB   C4A10256  20.072  17.065  19.208  0.0049 -0.0377 -0.0086
  428BOLB   C1B10257  21.041  17.628  18.793 -0.2152  0.2364 -0.0696
  428BOLB   C2B10258  20.878  17.574  19.096  0.0888 -0.0430  0.0588
  428BOLB   C3B10259  21.192  17.586  19.429 -0.0967 -0.2061  0.2111
  428BOLB   C4B10260  21.532  17.190  19.687 -0.0810 -0.1369 -0.0185
  428BOLB   NC210261  20.559  19.696  19.235 -0.3318  0.1754  0.0111
  428BOLB   PO210262  20.379  19.265  19.167 -0.1141  0.0573  0.1090
  428BOLB   GL310263  20.292  18.858  19.227  0.2190 -0.0493  0.4751
  428BOLB   GL410264  19.995  18.824  19.073 -0.2137  0.0796 -0.1399
  428BOLB   C1C10265  20.184  18.634  19.557 -0.0288 -0.2093  0.1272
  428BOLB   C2C10266  20.008  18.204  19.611 -0.1031  0.0350  0.2500
  428BOLB   C3C10267  19.993  17.677  19.743  0.0091 -0.4089 -0.0786
  428BOLB   C4C10268  19.977  17.272  19.581 -0.3163  0.3472  0.1128
  428BOLB   C1D10269  19.536  18.681  19.091 -0.1465  0.0255 -0.2737
  428BOLB   C2D10270  19.173  18.608  19.420  0.0295  0.1080  0.2520
  428BOLB   C3D10271  18.761  18.450  19.471 -0.0319 -0.2155  0.1424
  428BOLB   C4D10272  18.377  18.318  19.543 -0.2171  0.0568  0.0857
  429BOLB   NC110273  21.221  16.371  31.677  0.1827 -0.0544  0.1430
  429BOLB   PO110274  21.493  16.569  31.922  0.4026  0.1166 -0.5659
  429BOLB   GL110275  21.773  16.976  31.877 -0.2532  0.1798  0.2482
  429BOLB   GL210276  22.141  16.829  31.937  0.1352 -0.3140 -0.0370
  429BOLB   C1A10277  22.070  17.436  31.834  0.0710  0.0836 -0.0454
  429BOLB   C2A10278  22.411  17.870  31.790 -0.1989 -0.2377 -0.3649
  429BOLB   C3A10279  22.825  17.940  31.898  0.4063  0.0352 -0.1899
  429BOLB   C4A10280  23.169  18.075  31.651  0.2348  0.2025  0.0881
  429BOLB   C1B10281  22.528  17.026  31.768  0.0761  0.2546  0.0234
  429BOLB   C2B10282  22.749  17.373  31.973  0.1179 -0.2358 -0.0355
  429BOLB   C3B10283  22.451  17.677  32.221 -0.1425 -0.1811 -0.0587
  429BOLB   C4B10284  22.496  18.165  32.194 -0.0683  0.1106 -0.0815
  429BOLB   NC210285  23.763  20.598  31.963 -0.1995 -0.2116 -0.0352
  429BOLB   PO210286  23.650  20.639  31.527  0.1131 -0.2958 -0.0876
  429BOLB   GL310287  23.324  20.319  31.578 -0.2616  0.0031  0.3807
  429BOLB   GL410288  23.164  20.315  31.333 -0.0403 -0.0319 -0.2772
  429BOLB   C1C10289  23.465  19.881  31.716  0.1521  0.0550  0.3254
  429BOLB   C2C10290  23.483  19.366  31.752  0.4426  0.1296 -0.1546
  429BOLB   C3C10291  23.463  18.934  31.569 -0.1747 -0.1741 -0.0299
  429BOLB   C4C10292  23.326  18.499  31.597  0.0702  0.1257  0.0072
  429BOLB   C1D10293  22.768  20.188  31.633  0.1304 -0.0433 -0.2450
  429BOLB   C2D10294  22.483  19.892  31.766  0.0996  0.2266 -0.4168
  429BOLB   C3D10295  22.204  19.748  31.461  0.3425  0.1550  0.1628
  429BOLB   C4D10296  21.959  19.519  31.759 -0.0921 -0.2617  0.1767
  430BOLB   NC110297   9.274   9.409  33.734  0.0904  0.0041  0.2516
  430BOLB   PO110298   9.222   9.403  33.312  0.2453  0.1580 -0.0219
  430BOLB   GL110299   8.750   9.326  33.623 -0.1059 -0.2139 -0.2191
  430BOLB   GL210300   8.500   9.536  33.698 -0.1871 -0.0762 -0.0138
  430BOLB   C1A10301   8.398   9.111  33.428  0.0609  0.2142  0.0311
  430BOLB   C2A10302   7.856   9.130  33.398 -0.1382  0.0079 -0.0396
  430BOLB   C3A10303   7.497   8.924  33.581 -0.0546  0.0925  0.0024
  430BOLB   C4A10304   7.264   8.539  33.414 -0.1015 -0.0503  0.0148
  430BOLB   C1B10305   8.218   9.333  33.850  0.1337 -0.2744  0.0643
  430BOLB   C2B10306   7.944   8.961  33.865  0.1352 -0.0878  0.1657
  430BOLB   C3B10307   7.583   8.674  33.942  0.0141  0.0646 -0.1496
  430BOLB   C4B10308   7.311   8.421  33.887 -0.0987  0.0281  0.0191
  430BOLB   NC210309   5.419   7.293  34.019 -0.0966  0.2968 -0.2828
  430BOLB   PO210310   5.578   7.172  34.484  0.1265  0.0200 -0.0033
  430BOLB   GL310311   5.973   7.247  34.585  0.1177 -0.0772  0.3796
  430BOLB   GL410312   5.928   7.547  34.673  0.0715  0.0451 -0.3308
  430BOLB   C1C10313   6.265   7.437  34.242 -0.1027 -0.1823  0.0063
  430BOLB   C2C10314   6.428   7.694  33.962  0.3338 -0.0422  0.0065
  430BOLB   C3C10315   6.765   7.864  33.648  0.1566 -0.1319 -0.0256
  430BOLB   C4C10316   6.998   8.161  33.473 -0.0808 -0.1899  0.1456
  430BOLB   C1D10317   6.166   7.706  34.865 -0.2948 -0.0664  0.0259
  430BOLB   C2D10318   6.494   7.919  34.581 -0.0802  0.1200  0.0064
  430BOLB   C3D10319   6.892   8.078  34.273 -0.1218 -0.0567 -0.1389
  430BOLB   C4D10320   7.313   8.016  34.130  0.3869 -0.1276  0.0363
  431BOLB   NC110321  17.169   5.999  22.840  0.0499 -0.2017  0.0366
  431BOLB   PO110322  16.852   6.209  22.694  0.2571 -0.0904 -0.4031
  431BOLB   GL110323  16.881   6.112  22.274 -0.4255 -0.0528 -0.0849
  431BOLB   GL210324  17.130   5.854  22.366  0.3044  0.1577 -0.0281
  431BOLB   C1A10325  17.129   5.998  21.863 -0.1476 -0.2253 -0.0544
  431BOLB   C2A10326  17.312   5.616  21.735  0.2034  0.0319  0.0647
  431BOLB   C3A10327  17.227   5.402  21.378  0.2516  0.0597 -0.3074
  431BOLB   C4A10328  17.271   5.095  21.261  0.3493 -0.0427  0.1490
  431BOLB   C1B10329  17.045   5.481  22.097  0.1010 -0.1385 -0.0714
  431BOLB   C2B10330  17.138   5.100  21.795  0.0922 -0.1566  0.4060
  431BOLB   C3B10331  17.413   4.790  21.625 -0.0957  0.1630  0.0456
  431BOLB   C4B10332  17.691   4.566  21.460 -0.3263 -0.3267 -0.0083
  431BOLB   NC210333  17.893   2.857  20.301 -0.0335 -0.1146 -0.2028
  431BOLB   PO210334  17.660   2.827  20.648 -0.0841 -0.0818 -0.0397
  431BOLB   GL310335  17.468   3.157  20.894  0.1778 -0.0681 -0.1446
  431BOLB   GL410336  17.200   3.044  20.963  0.3856  0.2701 -0.2541
  431BOLB   C1C10337  17.683   3.454  21.054  0.2686  0.1420 -0.2091
  431BOLB   C2C10338  17.612   3.918  21.007  0.0258  0.2600 -0.2746
  431BOLB   C3C10339  17.554   4.362  20.998 -0.0885  0.1110 -0.0025
  431BOLB   C4C10340  17.376   4.734  21.104  0.1251 -0.3255 -0.0457
  431BOLB   C1D10341  16.871   3.274  21.113 -0.1434 -0.3668  0.2242
  431BOLB   C2D10342  16.842   3.662  21.258  0.1642  0.1588 -0.0138
  431BOLB   C3D10343  16.745   4.059  21.458 -0.2192 -0.0012  0.1474
  431BOLB   C4D10344  16.880   4.243  21.768  0.0286 -0.0203  0.0521
  432BOLB   NC110345  20.137   8.559  37.087 -0.1466  0.1099  0.0667
  432BOLB   PO110346  20.521   8.282  37.115  0.1620  0.4083 -0.2625
  432BOLB   GL110347  20.658   8.076  37.475  0.0157 -0.1954 -0.0737
  432BOLB   GL210348  20.734   7.728  37.582  0.1651  0.0545 -0.0251
  432BOLB   C1A10349  20.743   8.043  37.912 -0.2624 -0.1393  0.0107
  432BOLB   C2A10350  20.815   7.779  38.240 -0.1469 -0.4115 -0.0209
  432BOLB   C3A10351  21.285   7.849  38.308 -0.1195  0.0250 -0.2544
  432BOLB   C4A10352  21.765   7.944  38.423 -0.1374  0.2146  0.1335
  432BOLB   C1B10353  20.617   7.511  37.840  0.1685  0.1892 -0.1904
  432BOLB   C2B10354  20.797   7.221  38.190 -0.0389  0.0526  0.0163
  432BOLB   C3B10355  20.957   6.799  38.241 -0.2185  0.4587 -0.0106
  432BOLB   C4B10356  21.117   6.440  38.395  0.1516  0.3715 -0.2404
  432BOLB   NC210357  22.657   6.779  40.484 -0.2262 -0.1157  0.0805
  432BOLB   PO210358  22.797   6.947  40.174 -0.1603  0.0387  0.0292
  432BOLB   GL310359  22.572   7.304  40.014  0.1269 -0.1938  0.0698
  432BOLB   GL410360  22.808   7.612  39.979 -0.0258  0.0133  0.1839
  432BOLB   C1C10361  22.242   7.478  39.842  0.1388  0.2066 -0.1977
  432BOLB   C2C10362  22.089   7.595  39.477 -0.2085  0.3090  0.0330
  432BOLB   C3C10363  22.043   7.815  39.147  0.0570 -0.1418  0.2082
  432BOLB   C4C10364  21.978   7.824  38.764 -0.1080  0.0626  0.2681
  432BOLB   C1D10365  22.623   7.777  39.629 -0.3018 -0.1672 -0.1813
  432BOLB   C2D10366  22.546   7.642  39.232  0.1558  0.1352  0.0313
  432BOLB   C3D10367  22.327   7.482  38.898 -0.2724  0.1376 -0.5131
  432BOLB   C4D10368  22.310   7.162  38.622 -0.1742 -0.1906  0.3080
  433BOLB   NC110369  18.876  19.136  32.702 -0.0651  0.0630  0.1104
  433BOLB   PO110370  18.922  19.357  32.197 -0.0588  0.1941  0.0690
  433BOLB   GL110371  18.977  19.644  31.988  0.0301 -0.4097 -0.0169
  433BOLB   GL210372  19.136  19.666  31.699 -0.0407  0.0975 -0.0615
  433BOLB   C1A10373  19.279  19.967  32.067  0.1253  0.1182  0.1965
  433BOLB   C2A10374  19.481  20.320  32.240 -0.0797 -0.0888  0.1928
  433BOLB   C3A10375  19.635  20.476  32.628  0.0192  0.0847 -0.0164
  433BOLB   C4A10376  19.557  20.865  32.743  0.0545  0.0111  0.0618
  433BOLB   C1B10377  19.106  20.123  31.554 -0.0368  0.2158  0.2816
  433BOLB   C2B10378  19.232  20.440  31.403  0.0117 -0.0882  0.1200
  433BOLB   C3B10379  19.283  20.859  31.554 -0.0160 -0.2229  0.2387
  433BOLB   C4B10380  19.174  21.282  31.525 -0.2012  0.3599 -0.0870
  433BOLB   NC210381  21.060  23.044  33.564  0.1426 -0.1025  0.1451
  433BOLB   PO210382  20.661  23.044  33.365 -0.0692  0.3240 -0.1738
  433BOLB   GL310383  20.405  22.753  33.068 -0.4852  0.4274 -0.2314
  433BOLB   GL410384  20.519  22.475  33.103 -0.1935  0.0201 -0.1588
  433BOLB   C1C10385  20.059  22.513  32.959 -0.1391 -0.1104 -0.0850
  433BOLB   C2C10386  19.850  22.148  32.908  0.0205  0.0481 -0.0561
  433BOLB   C3C10387  19.886  21.703  32.872 -0.0314 -0.0678 -0.2657
  433BOLB   C4C10388  19.640  21.354  32.896 -0.2464  0.1128  0.2476
  433BOLB   C1D10389  20.422  22.085  32.982 -0.1307  0.0660  0.0584
  433BOLB   C2D10390  20.364  21.629  33.015 -0.1750 -0.2156  0.0882
  433BOLB   C3D10391  20.546  21.264  32.899  0.1207 -0.3785  0.3529
  433BOLB   C4D10392  20.528  20.894  33.312 -0.0978 -0.0166 -0.0653
  434BOLB   NC110393  26.128  15.621  25.317 -0.0996 -0.2994  0.0538
  434BOLB   PO110394  25.831  15.270  25.281 -0.2777  0.2913  0.4157
  434BOLB   GL110395  25.595  15.003  25.331 -0.0768  0.0227 -0.0810
  434BOLB   GL210396  25.577  14.871  25.628 -0.1676 -0.0921  0.0645
  434BOLB   C1A10397  25.274  14.864  25.071  0.0777  0.0055  0.2574
  434BOLB   C2A10398  24.879  14.957  25.115 -0.1141  0.1643  0.0384
  434BOLB   C3A10399  24.544  14.908  25.137 -0.0031  0.5209 -0.3189
  434BOLB   C4A10400  24.263  14.787  25.553 -0.0363 -0.0280 -0.1304
  434BOLB   C1B10401  25.169  14.794  25.729 -0.0814 -0.2662 -0.3418
  434BOLB   C2B10402  24.759  14.934  25.642 -0.1924  0.0796  0.0978
  434BOLB   C3B10403  24.454  15.212  25.786  0.0726 -0.1415 -0.1403
  434BOLB   C4B10404  24.135  15.348  25.902  0.5037  0.0695  0.1032
  434BOLB   NC210405  26.560  14.401  26.052 -0.3133  0.2132 -0.1733
  434BOLB   PO210406  26.283  14.843  26.045  0.1702  0.1156 -0.0116
  434BOLB   GL310407  25.818  14.978  26.085 -0.0394 -0.1343  0.2187
  434BOLB   GL410408  25.814  14.787  26.426 -0.3801  0.0493 -0.1419
  434BOLB   C1C10409  25.430  14.936  26.263 -0.1815  0.0738 -0.2792
  434BOLB   C2C10410  24.960  14.757  26.333 -0.1466  0.2230  0.1048
  434BOLB   C3C10411  24.643  14.797  26.099 -0.0437 -0.2977  0.0985
  434BOLB   C4C10412  24.268  14.808  25.948  0.1268 -0.5246  0.1856
  434BOLB   C1D10413  25.499  14.608  26.610  0.2015 -0.4037 -0.1643
  434BOLB   C2D10414  25.148  14.357  26.683  0.2590 -0.1038  0.3202
  434BOLB   C3D10415  24.977  14.241  26.306  0.1649 -0.0168  0.1441
  434BOLB   C4D10416  24.544  13.993  26.129  0.1257 -0.3706 -0.3080
  435BOLB   NC110417  25.040   7.276  20.714 -0.0403 -0.0189  0.1015
  435BOLB   PO110418  24.927   6.974  20.944  0.3096 -0.4219  0.2147
  435BOLB   GL110419  24.497   6.832  21.051 -0.2248  0.2738  0.1620
  435BOLB   GL210420  24.362   6.873  21.326 -0.3877 -0.3041  0.1934
  435BOLB   C1A10421  24.084   7.195  21.000  0.0308 -0.1438  0.3526
  435BOLB   C2A10422  23.726   7.419  20.884  0.1294 -0.0300 -0.0733
  435BOLB   C3A10423  23.281   7.517  21.064  0.3260  0.2073  0.0607
  435BOLB   C4A10424  23.224   7.433  21.538  0.1500 -0.3226  0.0798
  435BOLB   C1B10425  23.959   6.784  21.364  0.2098 -0.2490  0.0499
  435BOLB   C2B10426  23.707   7.008  21.773  0.2586  0.4014 -0.1598
  435BOLB   C3B10427  23.673   7.033  22.289  0.1977 -0.0637 -0.1581
  435BOLB   C4B10428  23.648   7.420  22.536 -0.2133 -0.0759 -0.0619
  435BOLB   NC210429  25.304   6.677  21.137  0.0988  0.2896  0.1209
  435BOLB   PO210430  25.342   6.822  21.569  0.0848  0.2434  0.0395
  435BOLB   GL310431  24.968   6.984  21.553  0.3578  0.2861 -0.1176
  435BOLB   GL410432  24.958   7.245  21.328  0.0261 -0.0365 -0.0991
  435BOLB   C1C10433  24.541   7.031  21.822  0.3148 -0.2465 -0.0310
  435BOLB   C2C10434  24.158   7.128  22.145 -0.1072  0.0798  0.1169
  435BOLB   C3C10435  23.822   7.424  21.977  0.0337 -0.2297 -0.0260
  435BOLB   C4C10436  23.498   7.613  21.719  0.0931 -0.1773 -0.3218
  435BOLB   C1D10437  24.570   7.379  21.385 -0.3381 -0.1602 -0.1042
  435BOLB   C2D10438  24.249   7.642  21.195 -0.2619  0.1940 -0.0617
  435BOLB   C3D10439  23.939   7.882  21.166 -0.1253  0.0139  0.0886
  435BOLB   C4D10440  23.533   7.949  21.326 -0.1317 -0.3278  0.0582
  436BOLB   NC110441  11.062  13.563  38.280  0.2052 -0.0090  0.2502
  436BOLB   PO110442  10.732  13.472  38.281  0.1372  0.2315 -0.2106
  436BOLB   GL110443  10.495  13.367  38.623  0.3033 -0.0708 -0.2696
  436BOLB   GL210444  10.353  13.005  38.597 -0.0797 -0.0983  0.0229
  436BOLB   C1A10445  10.254  13.330  39.030  0.0485 -0.3324 -0.0252
  436BOLB   C2A10446  10.167  13.316  39.387  0.0594 -0.5882 -0.1282
  436BOLB   C3A10447  10.145  13.385  39.813 -0.0717 -0.1674 -0.1427
  436BOLB   C4A10448  10.036  13.128  40.080  0.0926  0.0254 -0.0570
  436BOLB   C1B10449   9.947  12.713  38.675 -0.0332 -0.0157 -0.0175
  436BOLB   C2B10450   9.616  12.601  38.579  0.3429 -0.1702  0.1752
  436BOLB   C3B10451   9.334  12.648  38.894  0.2428  0.1217 -0.0122
  436BOLB   C4B10452   8.869  12.742  38.917 -0.3564 -0.1642 -0.1128
  436BOLB   NC210453   8.546  12.895  41.496  0.4014  0.1330  0.0695
  436BOLB   PO210454   8.742  13.251  41.746 -0.2219 -0.0361  0.1940
  436BOLB   GL310455   9.032  12.865  41.667 -0.2630  0.0596 -0.2040
  436BOLB   GL410456   9.007  12.648  41.352  0.0130 -0.0504  0.0217
  436BOLB   C1C10457   9.389  13.020  41.498  0.2132 -0.1441 -0.0362
  436BOLB   C2C10458   9.695  12.992  41.155 -0.0231  0.3975 -0.0714
  436BOLB   C3C10459  10.026  12.875  40.875  0.1397 -0.2197  0.2517
  436BOLB   C4C10460  10.199  12.967  40.487 -0.1433 -0.4154  0.0811
  436BOLB   C1D10461   8.941  12.326  41.167 -0.0635 -0.1433  0.1017
  436BOLB   C2D10462   9.105  12.071  40.804  0.1492  0.3636  0.1149
  436BOLB   C3D10463   9.387  12.163  40.549 -0.2989  0.1700  0.1331
  436BOLB   C4D10464   9.577  12.184  40.129 -0.3282  0.0234  0.2652
  437BOLB   NC110465  15.324   4.518  26.506  0.1007  0.0268 -0.0748
  437BOLB   PO110466  14.901   4.482  26.549 -0.0554 -0.2083  0.2106
  437BOLB   GL110467  14.745   4.256  26.193 -0.0824 -0.1298 -0.0504
  437BOLB   GL210468  14.957   4.359  25.992 -0.2097  0.2530 -0.0168
  437BOLB   C1A10469  14.561   3.894  26.156 -0.2406  0.1707  0.0257
  437BOLB   C2A10470  14.556   3.432  26.147  0.3079 -0.1422 -0.0486
  437BOLB   C3A10471  14.591   3.066  26.209 -0.2161  0.0202 -0.3511
  437BOLB   C4A10472  14.438   2.670  26.190  0.0631  0.0549 -0.1017
  437BOLB   C1B10473  15.000   4.070  25.770 -0.0467 -0.0209  0.0051
  437BOLB   C2B10474  15.223   4.024  25.309  0.2084 -0.1936 -0.0751
  437BOLB   C3B10475  15.235   3.643  24.988 -0.0548  0.3105 -0.2287
  437BOLB   C4B10476  14.857   3.586  24.774  0.1742 -0.3172 -0.0381
  437BOLB   NC210477  14.209  27.045  25.982 -0.0433 -0.0925 -0.0562
  437BOLB   PO210478  14.176   0.412  26.020  0.4177  0.3082  0.1100
  437BOLB   GL310479  14.252   0.859  26.149  0.0462 -0.1434  0.1852
  437BOLB   GL410480  14.615   0.968  26.157 -0.3189 -0.4441  0.1561
  437BOLB   C1C10481  14.184   1.195  26.369 -0.2337  0.2801  0.1926
  437BOLB   C2C10482  14.126   1.624  26.537 -0.0414 -0.3915 -0.0355
  437BOLB   C3C10483  14.088   2.040  26.641  0.2531 -0.0243 -0.3197
  437BOLB   C4C10484  14.092   2.466  26.382  0.0510  0.0081  0.0064
  437BOLB   C1D10485  14.528   1.421  26.018  0.1079 -0.4646 -0.1641
  437BOLB   C2D10486  14.218   1.679  25.998 -0.2129  0.1094  0.2769
  437BOLB   C3D10487  13.853   2.019  26.110 -0.0377 -0.1702 -0.0320
  437BOLB   C4D10488  13.581   2.295  26.076  0.0502  0.2629  0.1795
  438BOLB   NC110489  20.800   5.628  30.646  0.4078 -0.1962  0.0322
  438BOLB   PO110490  21.118   5.377  30.363 -0.2292  0.0058  0.2180
  438BOLB   GL110491  21.330   5.083  30.469 -0.0928  0.3353 -0.0608
  438BOLB   GL210492  21.442   5.084  30.740  0.2277 -0.0652 -0.0536
  438BOLB   C1A10493  21.820   5.050  30.344 -0.4660 -0.1683 -0.1613
  438BOLB   C2A10494  22.080   4.735  30.313 -0.4186  0.1143  0.1514
  438BOLB   C3A10495  22.358   4.476  30.302 -0.3696 -0.0543  0.0174
  438BOLB   C4A10496  22.833   4.449  30.173 -0.1813 -0.1828 -0.0303
  438BOLB   C1B10497  21.591   4.709  30.986 -0.0563 -0.0576 -0.1508
  438BOLB   C2B10498  21.789   4.311  31.050  0.0598  0.0167  0.3165
  438BOLB   C3B10499  21.938   4.004  30.847  0.2207  0.0899  0.3689
  438BOLB   C4B10500  21.995   3.624  30.735 -0.0719  0.5970  0.0387
  438BOLB   NC210501  24.887   3.123  29.923  0.2276 -0.2000 -0.1880
  438BOLB   PO210502  25.016   3.462  29.724  0.2452 -0.1138  0.1654
  438BOLB   GL310503  24.582   3.579  29.719 -0.0089 -0.0749 -0.3754
  438BOLB   GL410504  24.791   3.889  29.936 -0.0834  0.1582  0.3532
  438BOLB   C1C10505  24.182   3.678  29.771  0.1738  0.0433  0.2056
  438BOLB   C2C10506  23.715   3.691  29.732 -0.0993 -0.1187  0.3061
  438BOLB   C3C10507  23.289   3.906  29.657 -0.1929  0.2499 -0.0882
  438BOLB   C4C10508  23.031   4.249  29.837  0.1862  0.2203  0.0903
  438BOLB   C1D10509  24.623   4.278  29.885  0.1457  0.1095  0.2032
  438BOLB   C2D10510  24.370   4.665  30.019  0.0613 -0.2336  0.2245
  438BOLB   C3D10511  24.228   4.970  30.042 -0.1586 -0.3604  0.1497
  438BOLB   C4D10512  23.974   5.304  30.003 -0.2407 -0.1372  0.0059
  439BOLB   NC110513  13.747   6.861  22.952 -0.2071 -0.1645  0.0353
  439BOLB   PO110514  13.549   7.130  22.795 -0.2714 -0.0535  0.0381
  439BOLB   GL110515  13.386   6.899  22.525 -0.1238  0.0512  0.0813
  439BOLB   GL210516  13.076   6.794  22.439 -0.2323 -0.2215  0.3140
  439BOLB   C1A10517  13.443   6.698  22.112 -0.0830 -0.3864 -0.0331
  439BOLB   C2A10518  13.225   6.793  21.715 -0.1536  0.1972  0.0806
  439BOLB   C3A10519  12.789   6.711  21.542 -0.2317 -0.1079  0.2484
  439BOLB   C4A10520  12.422   6.735  21.197  0.2865 -0.0346  0.1809
  439BOLB   C1B10521  12.970   6.476  22.205 -0.2067  0.0490  0.0024
  439BOLB   C2B10522  13.007   6.202  22.406  0.0968 -0.1550 -0.0136
  439BOLB   C3B10523  13.062   5.808  22.204 -0.0466 -0.0796  0.1501
  439BOLB   C4B10524  12.977   5.295  22.409  0.1495 -0.0358  0.1515
  439BOLB   NC210525  11.777   5.703  19.330  0.2092 -0.1051  0.2640
  439BOLB   PO210526  11.381   5.672  19.356  0.0982 -0.0474 -0.3758
  439BOLB   GL310527  11.502   6.008  19.683  0.1323 -0.0555  0.1856
  439BOLB   GL410528  11.789   5.981  19.754  0.3173  0.0758  0.0671
  439BOLB   C1C10529  11.616   6.398  19.913 -0.2534 -0.0149  0.1382
  439BOLB   C2C10530  11.735   6.551  20.393  0.1665  0.1625 -0.1549
  439BOLB   C3C10531  12.130   6.735  20.531  0.0337  0.2040 -0.3324
  439BOLB   C4C10532  12.195   6.858  20.928 -0.0774 -0.1669  0.1818
  439BOLB   C1D10533  11.986   5.994  20.096  0.1306 -0.0342 -0.0540
  439BOLB   C2D10534  12.087   5.868  20.484 -0.2817  0.1080 -0.0853
  439BOLB   C3D10535  12.338   5.698  20.868  0.3062  0.0746 -0.1058
  439BOLB   C4D10536  12.694   5.501  20.861 -0.1475 -0.0832 -0.0778
  440BOLB   NC110537  20.739  15.781  36.410 -0.1682 -0.1219  0.4310
  440BOLB   PO110538  21.137  15.694  36.242 -0.3793  0.0754  0.1297
  440BOLB   GL110539  21.605  15.858  36.437 -0.0274  0.2154  0.4206
  440BOLB   GL210540  21.465  16.173  36.608 -0.2129  0.2011 -0.0512
  440BOLB   C1A10541  21.931  16.159  36.556 -0.0865 -0.0356  0.0728
  440BOLB   C2A10542  21.960  16.610  36.522  0.2381 -0.0415  0.3453
  440BOLB   C3A10543  22.232  16.909  36.767 -0.1125  0.0939  0.2679
  440BOLB   C4A10544  22.488  17.223  36.958 -0.0290 -0.0687  0.1448
  440BOLB   C1B10545  21.697  16.437  36.962  0.1785  0.0994 -0.1012
  440BOLB   C2B10546  21.853  16.831  37.109 -0.2402  0.0090  0.2333
  440BOLB   C3B10547  22.104  17.148  37.246  0.1154 -0.0021 -0.3886
  440BOLB   C4B10548  22.084  17.652  37.084 -0.1360 -0.0328 -0.1256
  440BOLB   NC210549  23.282  19.125  38.093 -0.1668  0.3783  0.0163
  440BOLB   PO210550  23.127  19.333  37.741  0.2344 -0.1502  0.1573
  440BOLB   GL310551  22.795  19.088  37.645  0.0368 -0.1105 -0.2589
  440BOLB   GL410552  22.433  19.201  37.490 -0.0555 -0.0944  0.2754
  440BOLB   C1C10553  22.529  18.700  37.540  0.1660  0.0454  0.3755
  440BOLB   C2C10554  22.468  18.345  37.231  0.0257 -0.1314 -0.1839
  440BOLB   C3C10555  22.574  17.968  37.191 -0.0009 -0.1321 -0.0382
  440BOLB   C4C10556  22.619  17.534  37.120 -0.0435  0.0679 -0.0103
  440BOLB   C1D10557  22.687  19.080  37.161 -0.0354  0.2082 -0.0229
  440BOLB   C2D10558  22.539  18.764  36.971  0.0433 -0.0603  0.1764
  440BOLB   C3D10559  22.364  18.448  36.691  0.2010  0.1474 -0.3194
  440BOLB   C4D10560  22.187  18.050  36.766 -0.0707 -0.1352 -0.1741
  441BOLB   NC110561   7.938  11.575  32.109 -0.3260 -0.3024  0.2871
  441BOLB   PO110562   7.644  11.373  32.331 -0.0770  0.2529 -0.0223
  441BOLB   GL110563   7.273  11.484  32.427  0.0357 -0.1524  0.1818
  441BOLB   GL210564   7.032  11.558  32.681 -0.2103  0.0605  0.0883
  441BOLB   C1A10565   6.761  11.421  32.236 -0.0297  0.0486 -0.1545
  441BOLB   C2A10566   6.426  11.125  32.134  0.0166  0.1230 -0.0542
  441BOLB   C3A10567   6.065  11.015  31.869 -0.0550  0.4264  0.3619
  441BOLB   C4A10568   5.673  10.986  31.743  0.0554 -0.3678  0.1520
  441BOLB   C1B10569   6.544  11.741  32.818 -0.0972  0.0572  0.3135
  441BOLB   C2B10570   6.086  11.744  32.882  0.0606  0.0126  0.0799
  441BOLB   C3B10571   5.677  11.982  32.852  0.2592  0.0754 -0.1552
  441BOLB   C4B10572   5.202  11.948  32.736  0.3462  0.1198  0.0949
  441BOLB   NC210573   2.812  11.361  31.510 -0.1585  0.1458 -0.2684
  441BOLB   PO210574   3.196  11.196  31.544 -0.0476 -0.0534  0.0663
  441BOLB   GL310575   3.645  11.293  31.646 -0.1375 -0.1867 -0.1680
  441BOLB   GL410576   3.754  11.633  31.666  0.0131  0.0595 -0.1848
  441BOLB   C1C10577   4.113  11.326  31.831  0.0094  0.0142 -0.2123
  441BOLB   C2C10578   4.384  11.067  32.053 -0.3381 -0.3185 -0.1527
  441BOLB   C3C10579   4.767  11.049  31.912  0.3134  0.1076 -0.0632
  441BOLB   C4C10580   5.216  11.097  31.836  0.1391  0.1484  0.2055
  441BOLB   C1D10581   3.939  11.568  31.374  0.0219  0.2949  0.0517
  441BOLB   C2D10582   3.946  11.242  31.174  0.1329 -0.1868 -0.1268
  441BOLB   C3D10583   4.183  10.831  31.027  0.1355 -0.0294  0.1777
  441BOLB   C4D10584   4.309  10.660  30.698  0.2022 -0.1534  0.2248
  442BOLB   NC110585  19.030  20.527  18.532 -0.2960  0.0166  0.1065
  442BOLB   PO110586  18.625  20.492  18.297 -0.1655  0.0540 -0.2402
  442BOLB   GL110587  18.635  20.107  18.540  0.2574 -0.0677 -0.2693
  442BOLB   GL210588  18.336  20.307  18.731  0.1335  0.2752 -0.1782
  442BOLB   C1A10589  18.744  19.687  18.670  0.0335  0.0129  0.2994
  442BOLB   C2A10590  18.568  19.438  19.049  0.0492  0.0044  0.0729
  442BOLB   C3A10591  18.480  19.261  19.421  0.2945  0.2459  0.0527
  442BOLB   C4A10592  18.510  19.404  19.877 -0.1152  0.2112  0.1061
  442BOLB   C1B10593  18.218  19.891  18.647  0.1221 -0.2280  0.0389
  442BOLB   C2B10594  18.032  19.553  18.768 -0.0310  0.1532 -0.0172
  442BOLB   C3B10595  17.781  19.217  18.649 -0.2987  0.1039 -0.0606
  442BOLB   C4B10596  17.801  18.755  18.771 -0.1635  0.3528  0.0944
  442BOLB   NC210597  19.029  21.439  19.609  0.1023  0.0055  0.0921
  442BOLB   PO210598  19.152  21.016  19.705 -0.0406 -0.1276  0.3408
  442BOLB   GL310599  19.006  20.719  20.061  0.2259  0.4726 -0.2512
  442BOLB   GL410600  19.194  20.443  20.062  0.0908  0.0824 -0.1236
  442BOLB   C1C10601  18.730  20.438  20.452 -0.1782  0.2868  0.1162
  442BOLB   C2C10602  18.495  20.107  20.545 -0.2567  0.0031  0.0811
  442BOLB   C3C10603  18.665  19.704  20.621 -0.1911  0.0277 -0.0215
  442BOLB   C4C10604  18.805  19.370  20.333  0.4676  0.0333  0.1146
  442BOLB   C1D10605  19.299  20.068  19.860  0.2244 -0.5914 -0.2580
  442BOLB   C2D10606  19.081  19.681  19.877 -0.0756 -0.0327 -0.1093
  442BOLB   C3D10607  18.956  19.394  19.489 -0.1019 -0.0160  0.2367
  442BOLB   C4D10608  18.896  19.017  19.489  0.2288 -0.0157 -0.2988
  443BOLB   NC110609  22.832   8.450  25.976 -0.1314 -0.0638  0.2630
  443BOLB   PO110610  22.554   8.034  25.899  0.0417  0.0060 -0.0233
  443BOLB   GL110611  22.841   7.712  25.829  0.1541 -0.1121  0.0222
  443BOLB   GL210612  22.783   7.591  25.550 -0.3440 -0.2948 -0.0475
  443BOLB   C1A10613  23.177   7.405  25.977  0.0602 -0.1249 -0.0486
  443BOLB   C2A10614  23.393   7.046  25.781 -0.0605 -0.3641  0.1499
  443BOLB   C3A10615  23.740   6.780  25.763 -0.3195  0.0380  0.0406
  443BOLB   C4A10616  24.106   6.567  25.760  0.0276  0.3159  0.3715
  443BOLB   C1B10617  23.091   7.301  25.491  0.1566 -0.0410  0.1801
  443BOLB   C2B10618  22.993   7.185  25.067 -0.1909 -0.0351 -0.4010
  443BOLB   C3B10619  23.029   6.925  24.755 -0.0428 -0.1547 -0.0849
  443BOLB   C4B10620  23.260   6.940  24.426 -0.0001 -0.0238  0.2791
  443BOLB   NC210621  26.490   5.460  26.180 -0.3033  0.1991  0.3057
  443BOLB   PO210622  26.167   5.181  26.224  0.1166 -0.0625 -0.1152
  443BOLB   GL310623  25.929   5.397  26.164 -0.0936  0.1078 -0.3359
  443BOLB   GL410624  25.696   5.625  26.309  0.3582 -0.1757  0.1176
  443BOLB   C1C10625  25.625   5.804  25.885 -0.2021 -0.0202 -0.3579
  443BOLB   C2C10626  25.238   6.083  25.734  0.1897  0.1651 -0.1103
  443BOLB   C3C10627  24.891   6.215  25.805 -0.3985  0.1171  0.0468
  443BOLB   C4C10628  24.406   6.202  25.799 -0.0742 -0.2890  0.1318
  443BOLB   C1D10629  25.689   6.069  26.412  0.2248 -0.1400 -0.2493
  443BOLB   C2D10630  25.652   6.464  26.363  0.0414  0.3190  0.0161
  443BOLB   C3D10631  25.374   6.848  26.365  0.0580 -0.0958  0.1390
  443BOLB   C4D10632  25.016   7.080  26.377  0.1099  0.1514 -0.2370
  444BOLB   NC110633  17.584  19.262  34.752 -0.0811 -0.0827 -0.2160
  444BOLB   PO110634  17.929  19.463  34.706 -0.0495 -0.0465  0.0354
  444BOLB   GL110635  18.236  19.791  34.777  0.1799  0.2161  0.2293
  444BOLB   GL210636  18.493  19.892  34.645 -0.3122  0.1307 -0.1662
  444BOLB   C1A10637  18.392  20.150  35.176  0.2947  0.2389  0.0925
  444BOLB   C2A10638  18.383  20.658  35.300  0.0500  0.1079 -0.1602
  444BOLB   C3A10639  18.380  21.030  35.225 -0.2213 -0.0657 -0.0931
  444BOLB   C4A10640  18.750  21.338  35.293  0.0068 -0.0145 -0.0582
  444BOLB   C1B10641  18.780  20.124  34.857 -0.0007 -0.2055 -0.2593
  444BOLB   C2B10642  18.868  20.540  35.136  0.0561 -0.0369  0.0384
  444BOLB   C3B10643  18.773  20.957  35.518 -0.3071  0.1176 -0.1617
  444BOLB   C4B10644  18.804  21.255  35.767  0.0564 -0.3590  0.0253
  444BOLB   NC210645  20.297  23.009  36.490  0.0857 -0.1642 -0.0662
  444BOLB   PO210646  19.922  23.017  36.354 -0.3085  0.0545 -0.1534
  444BOLB   GL310647  19.581  22.824  36.374 -0.0278 -0.2906 -0.0489
  444BOLB   GL410648  19.422  22.641  36.744  0.2060 -0.0747 -0.0444
  444BOLB   C1C10649  19.243  22.642  36.200 -0.1002 -0.0487 -0.1852
  444BOLB   C2C10650  19.144  22.413  35.900  0.2564  0.0128 -0.1608
  444BOLB   C3C10651  19.151  22.028  35.743 -0.0215 -0.4848  0.1578
  444BOLB   C4C10652  19.044  21.625  35.570 -0.0890 -0.0034 -0.1535
  444BOLB   C1D10653  19.380  22.291  36.548 -0.0772  0.1232 -0.0030
  444BOLB   C2D10654  19.056  22.054  36.292  0.0999 -0.0801 -0.1218
  444BOLB   C3D10655  18.784  21.843  36.029 -0.0333 -0.0725  0.1506
  444BOLB   C4D10656  18.419  21.567  36.014 -0.0560 -0.0664  0.1011
  445BOLB   NC110657  19.578  10.034  39.085  0.1471  0.3059 -0.1388
  445BOLB   PO110658  19.648   9.607  39.041 -0.1232  0.2355  0.1125
  445BOLB   GL110659  19.717   9.440  39.350 -0.0046 -0.1243  0.2165
  445BOLB   GL210660  19.625   9.101  39.313  0.0200  0.1175  0.1942
  445BOLB   C1A10661  19.821   9.378  39.774 -0.1566  0.2125  0.1596
  445BOLB   C2A10662  20.042   9.219  40.094  0.0402 -0.0077  0.3146
  445BOLB   C3A10663  20.103   8.896  40.384 -0.0088  0.1838  0.0159
  445BOLB   C4A10664  20.465   9.160  40.608 -0.1263 -0.0658 -0.2251
  445BOLB   C1B10665  19.964   8.939  39.552  0.0777 -0.1321 -0.1304
  445BOLB   C2B10666  20.033   8.653  39.898  0.0749  0.0313 -0.3262
  445BOLB   C3B10667  20.362   8.617  40.073 -0.2837  0.1259 -0.0306
  445BOLB   C4B10668  20.669   8.759  40.336 -0.0408  0.1375 -0.1358
  445BOLB   NC210669  22.382   8.500  41.570  0.0165 -0.1116 -0.1029
  445BOLB   PO210670  22.104   8.534  41.998 -0.1961 -0.4051 -0.1076
  445BOLB   GL310671  21.882   8.555  41.691 -0.0425 -0.4803  0.1666
  445BOLB   GL410672  21.946   8.264  41.540 -0.1182  0.0598 -0.4064
  445BOLB   C1C10673  21.540   8.679  41.427  0.1621  0.4202  0.1949
  445BOLB   C2C10674  21.305   8.903  41.201 -0.0109  0.3005 -0.3100
  445BOLB   C3C10675  20.948   9.140  41.238  0.1471  0.0339  0.2107
  445BOLB   C4C10676  20.557   9.125  41.038 -0.2647 -0.1849  0.1235
  445BOLB   C1D10677  21.625   8.088  41.275  0.4290  0.0682  0.0277
  445BOLB   C2D10678  21.365   7.978  40.987  0.2289 -0.0196 -0.2072
  445BOLB   C3D10679  21.001   7.858  41.099  0.0791  0.1161  0.2877
  445BOLB   C4D10680  20.658   7.676  41.259 -0.0187 -0.2131  0.2781
  446BOLB   NC110681   8.273  15.487  34.012  0.1967  0.3212 -0.1527
  446BOLB   PO110682   8.410  15.788  34.218 -0.2190  0.1505 -0.1224
  446BOLB   GL110683   7.969  15.790  34.389 -0.0522  0.2689 -0.0404
  446BOLB   GL210684   7.771  15.638  34.094 -0.3341  0.1996  0.0556
  446BOLB   C1A10685   7.531  15.737  34.705 -0.2440  0.1365 -0.0401
  446BOLB   C2A10686   7.208  15.909  34.991  0.0338 -0.0539  0.1258
  446BOLB   C3A10687   6.813  16.149  35.227  0.3375 -0.0598 -0.0369
  446BOLB   C4A10688   6.576  16.124  35.574 -0.1117 -0.0886  0.3463
  446BOLB   C1B10689   7.342  15.655  34.218  0.1297  0.0643 -0.3055
  446BOLB   C2B10690   6.996  15.674  34.434 -0.1392  0.0701  0.3410
  446BOLB   C3B10691   6.696  15.797  34.302  0.4700  0.1671 -0.0054
  446BOLB   C4B10692   6.256  15.961  34.148  0.0827 -0.2535  0.1480
  446BOLB   NC210693   4.233  16.984  35.550  0.2020 -0.0232  0.0247
  446BOLB   PO210694   4.409  16.656  35.786  0.1814  0.0037  0.0922
  446BOLB   GL310695   4.772  16.444  35.505  0.1654  0.2018  0.1237
  446BOLB   GL410696   4.801  16.819  35.536  0.1330  0.0882  0.2594
  446BOLB   C1C10697   5.074  16.128  35.453  0.3049 -0.2631  0.0543
  446BOLB   C2C10698   5.495  15.971  35.392 -0.1447 -0.0327 -0.1033
  446BOLB   C3C10699   5.924  16.278  35.455  0.0677 -0.2970 -0.1713
  446BOLB   C4C10700   6.201  16.151  35.573  0.1354 -0.0969 -0.1512
  446BOLB   C1D10701   5.193  16.775  35.797 -0.2507  0.6098  0.1409
  446BOLB   C2D10702   5.332  16.729  36.126  0.0959  0.0999 -0.0474
  446BOLB   C3D10703   5.592  16.553  36.401 -0.1267 -0.3491 -0.4461
  446BOLB   C4D10704   5.995  16.352  36.479  0.1046 -0.1155  0.4349
  447BOLB   NC110705  17.140   4.477  31.271  0.2199 -0.1434 -0.2088
  447BOLB   PO110706  16.955   4.388  30.924  0.0735  0.0431  0.1247
  447BOLB   GL110707  17.011   4.015  31.061 -0.0758  0.3377  0.1175
  447BOLB   GL210708  17.357   4.059  31.070 -0.0767 -0.2879 -0.1618
  447BOLB   C1A10709  16.894   3.578  31.245 -0.0140  0.0025 -0.1421
  447BOLB   C2A10710  17.005   3.287  31.490 -0.2265  0.1481 -0.1609
  447BOLB   C3A10711  17.030   2.847  31.383 -0.0298 -0.1107 -0.3456
  447BOLB   C4A10712  16.943   2.450  31.321 -0.0211 -0.1303 -0.0436
  447BOLB   C1B10713  17.384   3.618  31.132  0.3046 -0.1099 -0.2039
  447BOLB   C2B10714  17.514   3.273  31.438  0.2172  0.0112 -0.3875
  447BOLB   C3B10715  17.465   2.965  31.675  0.0011 -0.2993  0.2589
  447BOLB   C4B10716  17.432   2.476  31.811 -0.0939 -0.2849  0.1171
  447BOLB   NC210717  16.535  26.791  31.731 -0.1331 -0.0936 -0.1602
  447BOLB   PO210718  16.601   0.038  31.327  0.2254 -0.1567  0.0587
  447BOLB   GL310719  16.468   0.471  31.273 -0.1690 -0.0404  0.4779
  447BOLB   GL410720  16.192   0.553  31.315  0.1082  0.2490 -0.1079
  447BOLB   C1C10721  16.777   0.793  31.345 -0.2716 -0.0535 -0.1491
  447BOLB   C2C10722  16.928   1.117  31.505 -0.2776  0.0912 -0.1282
  447BOLB   C3C10723  17.035   1.642  31.486 -0.2935  0.0688  0.1957
  447BOLB   C4C10724  17.138   2.100  31.462 -0.0486  0.0930 -0.0437
  447BOLB   C1D10725  16.256   0.909  31.081 -0.0673  0.1326 -0.0164
  447BOLB   C2D10726  16.127   1.338  30.954  0.1134 -0.1423  0.3053
  447BOLB   C3D10727  15.771   1.727  30.904  0.2711  0.0999  0.0297
  447BOLB   C4D10728  15.563   2.149  31.011  0.1285  0.1943  0.0607
  448BOLB   NC110729  18.878  15.827  38.276 -0.0142 -0.0896  0.1456
  448BOLB   PO110730  19.322  15.700  38.318  0.0745 -0.5199  0.2590
  448BOLB   GL110731  19.421  15.803  38.653  0.0701  0.1372  0.2211
  448BOLB   GL210732  19.155  16.024  38.671 -0.1167 -0.0315  0.2805
  448BOLB   C1A10733  19.580  15.975  39.192 -0.2363  0.1084  0.2602
  448BOLB   C2A10734  19.363  15.993  39.583 -0.3222  0.0357  0.0646
  448BOLB   C3A10735  19.458  16.205  40.004  0.1485 -0.0878  0.3532
  448BOLB   C4A10736  19.800  16.348  40.210 -0.0204  0.2302  0.3773
  448BOLB   C1B10737  19.111  16.208  39.129  0.3982 -0.2258  0.2069
  448BOLB   C2B10738  18.937  16.282  39.510  0.1106  0.0315 -0.2010
  448BOLB   C3B10739  18.545  16.152  39.752  0.0389 -0.1470 -0.1716
  448BOLB   C4B10740  18.381  15.822  40.027  0.0708 -0.0227 -0.2852
  448BOLB   NC210741  21.489  16.546  42.411  0.1291  0.2184  0.0529
  448BOLB   PO210742  21.397  16.452  41.987  0.0347 -0.0025  0.1680
  448BOLB   GL310743  21.462  16.389  41.468  0.2054  0.2054 -0.5237
  448BOLB   GL410744  21.661  16.155  41.225 -0.1301  0.0436 -0.1738
  448BOLB   C1C10745  21.036  16.314  41.279 -0.1157 -0.5036 -0.2157
  448BOLB   C2C10746  20.782  16.231  40.911 -0.1725  0.0355  0.0481
  448BOLB   C3C10747  20.380  16.132  40.662  0.0932 -0.0893  0.0123
  448BOLB   C4C10748  20.001  16.194  40.585 -0.1490 -0.2543  0.1655
  448BOLB   C1D10749  21.633  16.129  40.792 -0.1188 -0.2372  0.0799
  448BOLB   C2D10750  21.464  15.926  40.474 -0.1350 -0.1025 -0.1413
  448BOLB   C3D10751  21.229  15.517  40.272  0.4102 -0.0912 -0.3101
  448BOLB   C4D10752  20.979  15.511  39.970 -0.0479  0.0721  0.0215
  449BOLB   NC110753   8.406  11.435  34.735  0.1388 -0.1230 -0.3339
  449BOLB   PO110754   8.551  11.020  35.025  0.4110 -0.4310  0.3615
  449BOLB   GL110755   8.210  11.024  35.312  0.4694 -0.0251  0.1680
  449BOLB   GL210756   8.485  10.856  35.497 -0.1360  0.1867 -0.2548
  449BOLB   C1A10757   7.786  11.111  35.431  0.2123  0.0548  0.2507
  449BOLB   C2A10758   7.447  11.353  35.658  0.2355 -0.0009  0.3696
  449BOLB   C3A10759   7.162  11.429  36.045  0.0337  0.3587  0.2279
  449BOLB   C4A10760   6.786  11.597  36.237  0.2001  0.0643 -0.2126
  449BOLB   C1B10761   8.221  10.937  35.871  0.0459 -0.4377  0.2621
  449BOLB   C2B10762   7.718  10.994  35.945  0.1641  0.2575  0.3420
  449BOLB   C3B10763   7.310  10.964  36.128 -0.1500  0.1469  0.3203
  449BOLB   C4B10764   6.918  10.646  36.048 -0.1466 -0.0258  0.4419
  449BOLB   NC210765   5.197  11.842  38.368  0.2635  0.3271 -0.1642
  449BOLB   PO210766   5.407  12.223  38.205  0.2507  0.1257 -0.0621
  449BOLB   GL310767   5.709  11.947  37.975 -0.0079 -0.2420  0.1805
  449BOLB   GL410768   5.940  11.699  38.218  0.3336  0.2461 -0.0188
  449BOLB   C1C10769   5.904  11.753  37.702  0.2442  0.1003  0.4238
  449BOLB   C2C10770   6.293  11.623  37.412 -0.0099  0.0647  0.1007
  449BOLB   C3C10771   6.336  11.621  36.992 -0.0504 -0.0050  0.1242
  449BOLB   C4C10772   6.663  11.685  36.660  0.1470 -0.2422  0.1389
  449BOLB   C1D10773   6.335  11.644  37.909  0.1074  0.0899  0.0349
  449BOLB   C2D10774   6.625  11.436  37.679  0.1705  0.0019 -0.1189
  449BOLB   C3D10775   6.940  11.067  37.512 -0.2144  0.1504  0.1377
  449BOLB   C4D10776   7.183  11.136  37.109  0.1197  0.0020 -0.0546
  450BOLB   NC110777   9.103  13.364  25.201  0.0034 -0.1251  0.2132
  450BOLB   PO110778   9.054  13.429  24.792 -0.0240 -0.0775  0.1648
  450BOLB   GL110779   8.646  13.396  24.841 -0.1134  0.0293 -0.2451
  450BOLB   GL210780   8.628  13.359  25.127  0.1272  0.0323 -0.0970
  450BOLB   C1A10781   8.306  13.442  24.591 -0.0202 -0.2675  0.0119
  450BOLB   C2A10782   7.909  13.515  24.397 -0.1123  0.4265  0.1579
  450BOLB   C3A10783   7.610  13.776  24.155 -0.0208 -0.0765  0.3606
  450BOLB   C4A10784   7.204  13.900  24.194  0.0549  0.1331 -0.1196
  450BOLB   C1B10785   8.292  13.054  24.897  0.4075  0.0472  0.0512
  450BOLB   C2B10786   8.063  12.704  24.754 -0.1359  0.2492 -0.1023
  450BOLB   C3B10787   7.721  12.459  24.621 -0.1329  0.0813  0.0207
  450BOLB   C4B10788   7.725  12.334  24.124  0.1324  0.0520 -0.0521
  450BOLB   NC210789   5.036  13.674  23.729 -0.1108  0.0682 -0.1287
  450BOLB   PO210790   5.322  13.302  23.661 -0.3837 -0.2350 -0.1809
  450BOLB   GL310791   5.382  13.462  24.062 -0.2274 -0.2731  0.1392
  450BOLB   GL410792   5.366  13.895  24.055  0.1584  0.0591 -0.0131
  450BOLB   C1C10793   5.783  13.691  24.260 -0.0123 -0.0574 -0.1316
  450BOLB   C2C10794   5.938  13.831  24.605  0.2502 -0.0077  0.2139
  450BOLB   C3C10795   6.388  13.956  24.694  0.1796 -0.0705  0.2709
  450BOLB   C4C10796   6.868  13.993  24.477 -0.0177  0.2406 -0.0650
  450BOLB   C1D10797   5.436  13.965  24.440 -0.1516  0.0016 -0.0093
  450BOLB   C2D10798   5.741  14.242  24.328  0.0008 -0.2081  0.1452
  450BOLB   C3D10799   6.050  14.613  24.435 -0.0872  0.1147  0.0365
  450BOLB   C4D10800   6.345  14.748  24.768  0.2959 -0.0351  0.2023
  451BOLB   NC110801  13.825  20.149  23.565  0.1060  0.5260 -0.0189
  451BOLB   PO110802  13.839  19.609  23.700  0.3848 -0.0459 -0.2304
  451BOLB   GL110803  13.810  19.762  23.273  0.0169  0.0794  0.0922
  451BOLB   GL210804  13.500  19.965  23.135 -0.1606 -0.0728  0.2036
  451BOLB   C1A10805  14.007  19.991  22.967 -0.3526 -0.1083 -0.0472
  451BOLB   C2A10806  13.868  20.233  22.714 -0.0721  0.0109  0.2268
  451BOLB   C3A10807  13.750  20.549  22.278  0.1459  0.1569  0.0153
  451BOLB   C4A10808  13.897  20.659  21.888  0.0072  0.2351 -0.0816
  451BOLB   C1B10809  13.442  20.266  22.960  0.0284 -0.2388  0.0341
  451BOLB   C2B10810  12.999  20.316  22.725 -0.1062  0.0271  0.1785
  451BOLB   C3B10811  12.738  20.653  22.573  0.0286  0.1975  0.0128
  451BOLB   C4B10812  12.510  20.974  22.868 -0.0481  0.0266  0.1206
  451BOLB   NC210813  13.734  22.527  20.246  0.1008 -0.1280 -0.0382
  451BOLB   PO210814  13.428  22.708  20.589 -0.1590  0.2391 -0.2176
  451BOLB   GL310815  13.432  22.258  20.634  0.0621 -0.0589 -0.0815
  451BOLB   GL410816  13.531  22.122  20.348 -0.1766 -0.0372 -0.1636
  451BOLB   C1C10817  13.628  22.062  20.865 -0.0405 -0.0035  0.0670
  451BOLB   C2C10818  13.809  21.665  21.020  0.1663 -0.0848 -0.2323
  451BOLB   C3C10819  13.812  21.221  21.319 -0.2204  0.2192  0.0190
  451BOLB   C4C10820  14.034  20.920  21.515  0.2040  0.0209  0.0495
  451BOLB   C1D10821  13.667  21.698  20.529  0.1416  0.1139 -0.0026
  451BOLB   C2D10822  13.819  21.279  20.727 -0.0564  0.0488  0.0819
  451BOLB   C3D10823  14.125  21.031  20.962 -0.2887  0.1669  0.0457
  451BOLB   C4D10824  14.215  20.560  21.138 -0.0920 -0.1095  0.1476
  452BOLB   NC110825  20.255   8.799  20.960  0.3205 -0.1474  0.1371
  452BOLB   PO110826  20.450   9.132  20.590  0.0684  0.2710  0.0197
  452BOLB   GL110827  20.661   8.792  20.563  0.0017 -0.1784  0.0345
  452BOLB   GL210828  20.916   8.871  20.404 -0.0191 -0.4294  0.0512
  452BOLB   C1A10829  20.718   8.349  20.307 -0.0974 -0.1789  0.2453
  452BOLB   C2A10830  20.741   7.851  20.305 -0.0638  0.0530  0.2444
  452BOLB   C3A10831  20.938   7.507  20.290 -0.1333 -0.0927  0.4805
  452BOLB   C4A10832  21.132   7.246  20.033  0.0356 -0.0797 -0.1174
  452BOLB   C1B10833  21.115   8.645  20.030  0.0353 -0.1904  0.1359
  452BOLB   C2B10834  21.205   8.350  19.710  0.1348  0.1801 -0.0656
  452BOLB   C3B10835  21.225   8.046  19.429  0.1754  0.0336 -0.2468
  452BOLB   C4B10836  21.448   7.870  18.967  0.1977 -0.0014 -0.1767
  452BOLB   NC210837  22.238   5.432  19.033 -0.0427  0.2301  0.0729
  452BOLB   PO210838  22.221   5.310  18.629  0.0250 -0.1457  0.1005
  452BOLB   GL310839  21.970   5.730  18.650  0.1123 -0.2128 -0.3738
  452BOLB   GL410840  22.247   5.971  18.724  0.0505 -0.1147 -0.2711
  452BOLB   C1C10841  21.706   6.117  18.679  0.0057 -0.2030 -0.2785
  452BOLB   C2C10842  21.497   6.374  19.047 -0.0439 -0.0478 -0.1446
  452BOLB   C3C10843  21.412   6.559  19.551  0.0297 -0.0904  0.0590
  452BOLB   C4C10844  21.249   6.794  19.924 -0.0599  0.2091 -0.0317
  452BOLB   C1D10845  22.029   6.196  19.053  0.0553 -0.0899 -0.3221
  452BOLB   C2D10846  21.792   6.184  19.510  0.0314  0.0405  0.3159
  452BOLB   C3D10847  21.652   6.272  19.955  0.3858 -0.0338  0.1490
  452BOLB   C4D10848  21.602   6.598  20.250 -0.1745 -0.1784 -0.2634
  453BOLB   NC110849  17.585  19.377  34.020 -0.0113  0.1676 -0.4155
  453BOLB   PO110850  17.367  19.725  33.995  0.1775 -0.0057 -0.2320
  453BOLB   GL110851  17.483  20.187  34.028  0.0705  0.0130 -0.0408
  453BOLB   GL210852  17.372  20.452  34.212  0.1821  0.3318 -0.1005
  453BOLB   C1A10853  17.876  20.410  34.136  0.3202  0.0193  0.1472
  453BOLB   C2A10854  18.050  20.684  34.382  0.3482  0.0149  0.2151
  453BOLB   C3A10855  18.355  20.914  34.293 -0.2307  0.2095  0.0242
  453BOLB   C4A10856  18.614  21.174  33.943  0.1767 -0.0526 -0.1738
  453BOLB   C1B10857  17.528  20.698  34.650 -0.3340 -0.1290  0.3912
  453BOLB   C2B10858  17.798  21.105  34.556  0.0468  0.3041  0.0385
  453BOLB   C3B10859  18.155  21.332  34.608 -0.0756 -0.3306  0.3552
  453BOLB   C4B10860  18.397  21.499  34.401  0.2856  0.5203 -0.1603
  453BOLB   NC210861  19.006  23.425  34.798 -0.0688  0.1404  0.1043
  453BOLB   PO210862  19.408  23.280  34.470  0.1390  0.0268 -0.2957
  453BOLB   GL310863  19.272  22.901  34.515 -0.4747  0.2576 -0.3281
  453BOLB   GL410864  19.518  22.707  34.580 -0.0420 -0.0643 -0.1892
  453BOLB   C1C10865  19.031  22.569  34.599  0.0861 -0.1753 -0.0262
  453BOLB   C2C10866  18.956  22.237  34.289  0.0394 -0.3671 -0.0897
  453BOLB   C3C10867  18.933  21.958  33.945  0.2052  0.1118  0.1542
  453BOLB   C4C10868  18.667  21.685  33.975  0.0914  0.2661 -0.0972
  453BOLB   C1D10869  19.709  22.342  34.521 -0.1327  0.0473 -0.1119
  453BOLB   C2D10870  19.441  21.991  34.394  0.3203  0.1045 -0.1723
  453BOLB   C3D10871  19.057  21.709  34.415  0.0347 -0.0010  0.0758
  453BOLB   C4D10872  18.843  21.229  34.352  0.0769 -0.0271  0.1284
  454BOLB   NC110873  14.095   4.824  32.291  0.1751  0.0870 -0.1049
  454BOLB   PO110874  14.492   4.638  32.184  0.0223 -0.2720 -0.0708
  454BOLB   GL110875  14.519   4.212  32.231 -0.1090 -0.4052 -0.1554
  454BOLB   GL210876  14.680   4.096  31.918  0.0178 -0.0183 -0.2383
  454BOLB   C1A10877  14.377   3.947  32.554 -0.0153 -0.0628 -0.0296
  454BOLB   C2A10878  14.462   3.478  32.516 -0.2503  0.1596 -0.0906
  454BOLB   C3A10879  14.582   3.240  32.790 -0.0474  0.0013  0.1206
  454BOLB   C4A10880  14.584   2.784  32.764  0.2619 -0.3524  0.4443
  454BOLB   C1B10881  14.702   3.696  32.090 -0.0038  0.1912 -0.0036
  454BOLB   C2B10882  14.842   3.305  32.233 -0.2163  0.1219  0.0288
  454BOLB   C3B10883  14.954   3.005  32.439  0.4129  0.2028  0.3391
  454BOLB   C4B10884  15.260   2.694  32.656  0.0350 -0.2099 -0.2764
  454BOLB   NC210885  14.422   0.954  33.633 -0.3115  0.0356  0.0160
  454BOLB   PO210886  14.730   0.785  33.818 -0.3614  0.1565 -0.2056
  454BOLB   GL310887  14.974   1.097  33.723 -0.1550  0.1680  0.0327
  454BOLB   GL410888  15.210   1.169  33.510 -0.0317 -0.1310  0.2140
  454BOLB   C1C10889  14.857   1.527  33.778 -0.2140  0.2031 -0.0118
  454BOLB   C2C10890  14.998   1.905  33.578 -0.2200  0.2385  0.3200
  454BOLB   C3C10891  15.043   2.211  33.257 -0.0736  0.0333 -0.2754
  454BOLB   C4C10892  14.866   2.438  32.875  0.0606 -0.0082 -0.3730
  454BOLB   C1D10893  15.257   1.502  33.451  0.1967  0.1008  0.1459
  454BOLB   C2D10894  15.542   1.965  33.515  0.1713 -0.1870  0.1031
  454BOLB   C3D10895  15.460   2.407  33.459 -0.0642 -0.1200 -0.0254
  454BOLB   C4D10896  15.333   2.786  33.750 -0.0878  0.1859  0.1283
  455BOLB   NC110897  21.366  21.198  38.425 -0.1935 -0.3505  0.3251
  455BOLB   PO110898  21.236  20.785  38.332 -0.0639 -0.0999  0.0754
  455BOLB   GL110899  21.030  20.408  38.319 -0.0427 -0.0060  0.0790
  455BOLB   GL210900  20.737  20.507  38.365 -0.0767  0.0226 -0.3256
  455BOLB   C1A10901  20.960  20.150  37.968  0.1119  0.1553  0.2224
  455BOLB   C2A10902  20.779  19.801  37.907  0.0025  0.1427  0.0679
  455BOLB   C3A10903  20.378  19.750  37.848  0.0619  0.1503  0.0336
  455BOLB   C4A10904  19.939  19.644  37.738  0.0026  0.0531 -0.4168
  455BOLB   C1B10905  20.467  20.155  38.171  0.0527  0.1845  0.1483
  455BOLB   C2B10906  20.021  20.147  38.129  0.0545  0.0725  0.1665
  455BOLB   C3B10907  19.577  19.955  38.137  0.2241  0.1669 -0.2989
  455BOLB   C4B10908  19.363  19.610  38.070  0.0693  0.1889  0.1921
  455BOLB   NC210909  20.767  21.223  37.630 -0.3714  0.0149  0.1975
  455BOLB   PO210910  20.414  21.621  37.652 -0.0589  0.0685  0.0034
  455BOLB   GL310911  20.212  21.213  37.704 -0.1365 -0.0372  0.4808
  455BOLB   GL410912  20.289  20.945  37.577  0.0043 -0.2518  0.0137
  455BOLB   C1C10913  19.838  20.856  37.646 -0.2185  0.0783 -0.2111
  455BOLB   C2C10914  19.526  20.638  37.525 -0.0125  0.1097  0.0898
  455BOLB   C3C10915  19.344  20.201  37.569  0.2889  0.0810 -0.2022
  455BOLB   C4C10916  19.508  19.847  37.645  0.1435 -0.1491 -0.0760
  455BOLB   C1D10917  20.237  20.617  37.914 -0.2295  0.1440  0.1175
  455BOLB   C2D10918  20.121  20.665  38.318  0.1095 -0.1367 -0.1086
  455BOLB   C3D10919  20.170  20.240  38.551 -0.0313 -0.2264  0.0955
  455BOLB   C4D10920  19.769  20.209  38.978 -0.1821 -0.2886 -0.2768
  456BOLB   NC110921  10.345   8.438  25.754  0.0120 -0.1055  0.0703
  456BOLB   PO110922  10.020   8.094  25.564 -0.0213 -0.0501 -0.2067
  456BOLB   GL110923   9.625   8.039  25.492  0.2054 -0.0497 -0.3776
  456BOLB   GL210924   9.596   7.737  25.319 -0.2017  0.0667 -0.1379
  456BOLB   C1A10925   9.234   7.936  25.621 -0.0176  0.0999  0.2321
  456BOLB   C2A10926   8.805   7.733  25.626 -0.1779  0.1487  0.1864
  456BOLB   C3A10927   8.672   7.336  25.383  0.0541 -0.0212  0.3488
  456BOLB   C4A10928   8.639   6.979  25.349 -0.1582  0.1613 -0.1012
  456BOLB   C1B10929   9.191   7.531  25.384  0.1823 -0.0038 -0.0596
  456BOLB   C2B10930   9.131   7.044  25.287 -0.2701 -0.0330 -0.2543
  456BOLB   C3B10931   9.037   6.697  25.189  0.0926  0.0793  0.0392
  456BOLB   C4B10932   9.043   6.264  25.061  0.1272  0.2140 -0.1561
  456BOLB   NC210933   6.595   5.769  25.262  0.1104  0.0171  0.3540
  456BOLB   PO210934   6.751   5.611  24.923  0.2266  0.0524 -0.0677
  456BOLB   GL310935   7.177   5.579  25.108 -0.1487  0.2984  0.2360
  456BOLB   GL410936   7.326   5.528  25.431  0.0363 -0.1420  0.2528
  456BOLB   C1C10937   7.450   5.888  25.092 -0.4025 -0.3489 -0.2212
  456BOLB   C2C10938   7.812   6.139  25.083 -0.1027  0.0972 -0.1087
  456BOLB   C3C10939   8.231   6.195  25.153  0.1887 -0.2307  0.1526
  456BOLB   C4C10940   8.590   6.540  25.093 -0.0846  0.0731 -0.2720
  456BOLB   C1D10941   7.550   5.505  25.829  0.0489  0.0937  0.0708
  456BOLB   C2D10942   7.721   5.864  26.085  0.0391  0.1415  0.0683
  456BOLB   C3D10943   7.712   6.170  26.425  0.0682  0.1641  0.0966
  456BOLB   C4D10944   7.639   6.360  26.830  0.3357 -0.0803 -0.1964
  457BOLB   NC110945  23.039  11.509  26.448  0.0462 -0.3810  0.2422
  457BOLB   PO110946  22.932  11.095  26.211 -0.0402 -0.2262  0.1232
  457BOLB   GL110947  23.179  11.263  25.955  0.2609 -0.0346  0.1102
  457BOLB   GL210948  23.395  11.572  26.051 -0.0662 -0.0830 -0.0684
  457BOLB   C1A10949  23.637  11.110  25.804 -0.1534  0.1456  0.2334
  457BOLB   C2A10950  24.113  11.088  25.855 -0.0105 -0.2654  0.0075
  457BOLB   C3A10951  24.504  10.894  25.867 -0.0002 -0.0630 -0.2460
  457BOLB   C4A10952  24.966  10.969  25.868 -0.0600  0.1597 -0.1088
  457BOLB   C1B10953  23.798  11.633  25.862 -0.4950 -0.4932  0.1111
  457BOLB   C2B10954  24.114  11.646  25.602 -0.1440 -0.0127 -0.2025
  457BOLB   C3B10955  24.600  11.749  25.591 -0.1092 -0.1141  0.1961
  457BOLB   C4B10956  24.993  11.997  25.461  0.0144 -0.0618 -0.0127
  457BOLB   NC210957   0.088  10.106  24.671  0.1140  0.1481 -0.2722
  457BOLB   PO210958   0.159  10.122  25.118  0.2014 -0.4087  0.1930
  457BOLB   GL310959  26.876  10.558  25.153  0.0681 -0.0747 -0.2504
  457BOLB   GL410960  26.910  10.934  25.179  0.0552  0.2003 -0.0608
  457BOLB   C1C10961  26.418  10.571  25.428  0.2503  0.0102  0.1254
  457BOLB   C2C10962  26.216  10.989  25.539 -0.1987  0.0227  0.1487
  457BOLB   C3C10963  25.751  11.041  25.734 -0.0424  0.2711  0.0570
  457BOLB   C4C10964  25.403  11.237  25.930  0.1294 -0.1014 -0.0208
  457BOLB   C1D10965  26.572  10.918  24.974 -0.0788 -0.1042  0.2479
  457BOLB   C2D10966  26.146  10.885  25.061  0.0574  0.2378  0.0272
  457BOLB   C3D10967  25.708  11.037  25.177 -0.0440 -0.1756 -0.2457
  457BOLB   C4D10968  25.274  11.077  25.456  0.1242  0.0660 -0.0706
  458BOLB   NC110969  21.812   4.927  18.564  0.0994  0.3795  0.0894
  458BOLB   PO110970  21.748   5.231  18.861  0.2806  0.5155  0.0641
  458BOLB   GL110971  21.503   5.538  18.889  0.1871 -0.0038 -0.0026
  458BOLB   GL210972  21.406   5.715  18.611  0.0742  0.1408  0.0691
  458BOLB   C1A10973  21.430   5.787  19.176  0.1221 -0.2641 -0.0157
  458BOLB   C2A10974  21.309   6.054  19.343  0.1886  0.1759  0.4355
  458BOLB   C3A10975  20.946   6.357  19.465  0.2226 -0.1556  0.0691
  458BOLB   C4A10976  20.983   6.782  19.447 -0.1521  0.0869 -0.1942
  458BOLB   C1B10977  21.194   6.065  18.738  0.1790 -0.0587 -0.3090
  458BOLB   C2B10978  20.824   6.313  18.933 -0.0944 -0.2437 -0.2145
  458BOLB   C3B10979  20.599   6.670  19.107 -0.0497 -0.1774 -0.2295
  458BOLB   C4B10980  20.458   6.953  19.483  0.1558 -0.0635 -0.3679
  458BOLB   NC210981  23.134   6.747  18.009  0.5114  0.0953 -0.1356
  458BOLB   PO210982  22.677   6.823  18.100  0.1381  0.2533  0.0930
  458BOLB   GL310983  22.423   6.957  18.310 -0.2465  0.1638  0.0065
  458BOLB   GL410984  22.574   7.240  18.542 -0.0986 -0.1776 -0.1333
  458BOLB   C1C10985  22.042   6.970  18.540 -0.1410 -0.0511  0.0139
  458BOLB   C2C10986  21.855   6.933  19.047 -0.2019  0.1010 -0.2109
  458BOLB   C3C10987  21.574   7.003  19.296  0.0046  0.0576 -0.1755
  458BOLB   C4C10988  21.231   7.093  19.426 -0.1114  0.1819 -0.1213
  458BOLB   C1D10989  22.409   7.441  18.755 -0.2423  0.0398  0.0809
  458BOLB   C2D10990  22.186   7.783  18.666 -0.0155 -0.0920 -0.2222
  458BOLB   C3D10991  21.872   8.164  19.012  0.0145 -0.1636  0.1464
  458BOLB   C4D10992  21.590   8.272  19.228 -0.0468 -0.0589 -0.1825
  459BOLB   NC110993  16.056   4.407  28.013  0.0876 -0.1822 -0.1411
  459BOLB   PO110994  15.892   4.067  28.195 -0.0840  0.0825 -0.2715
  459BOLB   GL110995  16.028   3.765  28.022  0.2009 -0.1139 -0.1780
  459BOLB   GL210996  16.148   3.580  27.731  0.0056  0.1648 -0.3704
  459BOLB   C1A10997  16.027   3.232  28.114  0.0216 -0.2418  0.0165
  459BOLB   C2A10998  15.851   2.860  28.123  0.2414  0.3114 -0.1014
  459BOLB   C3A10999  15.843   2.295  28.224  0.0044  0.4224  0.1848
  459BOLB   C4A11000  16.072   1.909  28.146 -0.0588 -0.0317  0.0572
  459BOLB   C1B11001  16.295   3.128  27.655  0.2960  0.1998  0.0375
  459BOLB   C2B11002  16.273   2.832  27.325 -0.2160  0.1593  0.0153
  459BOLB   C3B11003  16.388   2.614  27.036 -0.0104 -0.1431 -0.1900
  459BOLB   C4B11004  16.335   2.470  26.585  0.0004 -0.0617 -0.0278
  459BOLB   NC211005  15.758  26.234  28.039 -0.0223  0.2281  0.0179
  459BOLB   PO211006  15.827  26.668  27.950  0.1064 -0.5330 -0.0037
  459BOLB   GL311007  16.003  27.021  28.060 -0.1884 -0.0039  0.2318
  459BOLB   GL411008  16.006   0.072  27.730 -0.0497 -0.0596 -0.2665
  459BOLB   C1C11009  16.193   0.353  28.187  0.1586  0.0736 -0.3070
  459BOLB   C2C11010  16.320   0.693  28.384  0.2719  0.1493 -0.3524
  459BOLB   C3C11011  16.290   1.096  28.347  0.0266  0.2141 -0.1240
  459BOLB   C4C11012  16.222   1.561  28.140 -0.3874 -0.0638  0.4462
  459BOLB   C1D11013  16.074   0.514  27.722 -0.2371 -0.2091  0.0251
  459BOLB   C2D11014  16.360   0.887  27.909  0.0631  0.1876 -0.2056
  459BOLB   C3D11015  16.743   1.072  27.641  0.2305 -0.1603 -0.0772
  459BOLB   C4D11016  17.155   1.081  27.391  0.1837  0.1922 -0.0912
  460BOLB   NC111017  19.620   7.201  23.337 -0.1370 -0.0065  0.0409
  460BOLB   PO111018  19.771   6.808  23.410 -0.1093 -0.3504  0.1088
  460BOLB   GL111019  20.155   6.632  23.381  0.5020  0.1895 -0.0208
  460BOLB   GL211020  20.189   6.358  23.133  0.0121  0.1006  0.0362
  460BOLB   C1A11021  20.538   6.629  23.058  0.0068 -0.0299 -0.0210
  460BOLB   C2A11022  20.912   6.439  22.863  0.0555 -0.1062  0.4798
  460BOLB   C3A11023  21.205   6.092  22.854  0.1050 -0.1639  0.3083
  460BOLB   C4A11024  21.556   5.943  22.505  0.3702  0.1497 -0.3699
  460BOLB   C1B11025  20.330   6.014  23.050 -0.0420  0.1698 -0.1618
  460BOLB   C2B11026  20.222   5.725  22.664 -0.1913 -0.1230  0.0568
  460BOLB   C3B11027  20.130   5.473  22.337  0.0467 -0.0448  0.0422
  460BOLB   C4B11028  20.132   5.075  22.170 -0.3714 -0.0628  0.1544
  460BOLB   NC211029  22.769   3.843  21.818  0.0230  0.0492  0.3873
  460BOLB   PO211030  23.024   4.185  21.941 -0.0426 -0.1727  0.0499
  460BOLB   GL311031  22.625   4.354  21.906  0.0412 -0.0733  0.1857
  460BOLB   GL411032  22.751   4.607  22.148  0.3412 -0.1227 -0.1961
  460BOLB   C1C11033  22.200   4.485  22.074 -0.0431  0.0499  0.1295
  460BOLB   C2C11034  21.781   4.785  22.057  0.2091  0.0631  0.0051
  460BOLB   C3C11035  21.808   5.117  22.227  0.2562 -0.0748  0.0976
  460BOLB   C4C11036  21.761   5.590  22.300 -0.0502 -0.2066 -0.0664
  460BOLB   C1D11037  22.573   4.439  22.510  0.0075 -0.2999  0.0605
  460BOLB   C2D11038  22.508   4.693  22.843  0.1474 -0.0856 -0.1381
  460BOLB   C3D11039  22.247   5.156  22.907 -0.2446  0.2374  0.1863
  460BOLB   C4D11040  21.879   5.332  22.708 -0.4205  0.1778 -0.0813
  461BOLB   NC111041  11.585   6.230  32.559  0.0958 -0.1509  0.0443
  461BOLB   PO111042  11.184   6.079  32.447  0.1644  0.1894  0.0002
  461BOLB   GL111043  10.852   5.730  32.694  0.1273 -0.3737  0.0883
  461BOLB   GL211044  10.972   5.632  33.027 -0.0732  0.3091  0.0577
  461BOLB   C1A11045  10.520   5.468  32.705  0.0182  0.3675 -0.0185
  461BOLB   C2A11046  10.510   5.221  33.019 -0.1142 -0.1904  0.1970
  461BOLB   C3A11047  10.689   4.893  33.263  0.2432 -0.0162 -0.1826
  461BOLB   C4A11048  10.735   4.480  33.376 -0.0268 -0.1462  0.1547
  461BOLB   C1B11049  11.143   5.238  33.178  0.1427 -0.3020 -0.1263
  461BOLB   C2B11050  11.081   4.934  32.937  0.0331  0.0967  0.2413
  461BOLB   C3B11051  10.814   4.520  32.867 -0.0709 -0.0400 -0.0381
  461BOLB   C4B11052  10.651   4.113  32.869  0.2145  0.0981  0.5623
  461BOLB   NC211053   9.305   2.483  33.708 -0.0643  0.1666 -0.2121
  461BOLB   PO211054   9.390   2.375  33.243  0.1473  0.4529  0.3309
  461BOLB   GL311055   9.662   2.631  33.411 -0.2560  0.1412 -0.3180
  461BOLB   GL411056   9.501   2.859  33.394  0.0932  0.2321 -0.2127
  461BOLB   C1C11057  10.031   2.892  33.389 -0.1480 -0.0855 -0.2848
  461BOLB   C2C11058  10.257   3.179  33.538 -0.2447 -0.0392 -0.1119
  461BOLB   C3C11059  10.604   3.522  33.449 -0.1700  0.0532  0.0984
  461BOLB   C4C11060  10.731   3.974  33.337 -0.1564 -0.2175 -0.7042
  461BOLB   C1D11061   9.723   3.287  33.506  0.0876  0.2320  0.3216
  461BOLB   C2D11062  10.010   3.612  33.307 -0.0914 -0.0633 -0.1504
  461BOLB   C3D11063  10.201   3.819  33.057 -0.2222  0.1323 -0.0436
  461BOLB   C4D11064  10.280   3.683  32.646 -0.3356  0.1151 -0.3349
  462BOLB   NC111065  22.414  15.392  31.458  0.2428  0.2088  0.2701
  462BOLB   PO111066  22.482  15.502  31.810 -0.3079  0.0436  0.0355
  462BOLB   GL111067  22.847  15.553  31.768  0.1738 -0.2101  0.1985
  462BOLB   GL211068  22.841  15.579  31.357  0.2033  0.1089 -0.1354
  462BOLB   C1A11069  23.217  15.507  31.991 -0.0836 -0.0096 -0.0602
  462BOLB   C2A11070  23.611  15.512  32.180  0.1506 -0.0805 -0.4250
  462BOLB   C3A11071  24.054  15.698  32.436  0.0158 -0.1616  0.1979
  462BOLB   C4A11072  24.470  15.969  32.550 -0.0286 -0.1161  0.2544
  462BOLB   C1B11073  23.267  15.523  31.424  0.0248 -0.2847  0.0911
  462BOLB   C2B11074  23.612  15.776  31.609 -0.0059  0.0253 -0.0103
  462BOLB   C3B11075  23.986  15.842  31.893 -0.4063 -0.0773 -0.0834
  462BOLB   C4B11076  24.235  16.136  32.036  0.1232 -0.1039 -0.0165
  462BOLB   NC211077  26.077  17.402  33.040 -0.1532  0.0301 -0.0868
  462BOLB   PO211078  25.952  17.214  33.527  0.0323 -0.3688  0.1170
  462BOLB   GL311079  25.752  17.148  33.847 -0.0663  0.0307  0.0253
  462BOLB   GL411080  25.961  17.277  34.125 -0.0087 -0.3203  0.1573
  462BOLB   C1C11081  25.458  16.777  33.781  0.3721 -0.1625  0.1704
  462BOLB   C2C11082  25.321  16.501  33.407 -0.0167 -0.0312 -0.0092
  462BOLB   C3C11083  24.954  16.380  33.192  0.1932  0.1945  0.3000
  462BOLB   C4C11084  24.658  16.066  33.043 -0.1518 -0.3564  0.1824
  462BOLB   C1D11085  25.432  17.247  34.180 -0.1574 -0.3604 -0.1516
  462BOLB   C2D11086  25.073  17.163  34.075  0.2351 -0.1845  0.0152
  462BOLB   C3D11087  24.978  16.790  33.697 -0.0367 -0.0328 -0.0252
  462BOLB   C4D11088  24.599  16.754  33.412 -0.1069  0.2595  0.3095
  463BOLB   NC111089  15.214  18.362  37.439  0.0364  0.1147  0.0894
  463BOLB   PO111090  15.576  18.404  37.193 -0.4753 -0.2115 -0.2020
  463BOLB   GL111091  15.526  18.719  37.426  0.0049 -0.2454 -0.0266
  463BOLB   GL211092  15.302  18.885  37.341  0.1114 -0.2375 -0.1243
  463BOLB   C1A11093  15.428  18.987  37.787 -0.1982  0.2106 -0.4932
  463BOLB   C2A11094  15.521  19.166  38.184 -0.3542 -0.1030  0.4303
  463BOLB   C3A11095  15.200  19.341  38.557  0.1942 -0.0081 -0.1121
  463BOLB   C4A11096  15.067  19.632  38.859 -0.1185 -0.0086 -0.1520
  463BOLB   C1B11097  15.330  19.278  37.422 -0.0111 -0.2596  0.4146
  463BOLB   C2B11098  15.331  19.768  37.132  0.0132  0.1168 -0.0182
  463BOLB   C3B11099  15.584  20.001  36.990  0.1280 -0.0203 -0.3540
  463BOLB   C4B11100  15.995  20.255  37.133 -0.1555 -0.1502  0.1988
  463BOLB   NC211101  14.999  22.001  39.543  0.1264 -0.2346  0.2197
  463BOLB   PO211102  15.442  22.027  39.519 -0.2205  0.1669  0.3178
  463BOLB   GL311103  15.324  21.650  39.404  0.0247  0.2617 -0.3347
  463BOLB   GL411104  15.550  21.574  39.276 -0.2570  0.5464 -0.0083
  463BOLB   C1C11105  15.109  21.337  39.347  0.3072  0.0879 -0.2284
  463BOLB   C2C11106  15.082  20.860  39.225 -0.1037 -0.1935  0.0977
  463BOLB   C3C11107  15.119  20.491  39.089  0.4380 -0.0660 -0.1497
  463BOLB   C4C11108  15.086  20.054  39.103 -0.1662  0.0396 -0.2337
  463BOLB   C1D11109  15.553  21.117  39.166 -0.0862  0.0218  0.0877
  463BOLB   C2D11110  15.481  20.683  38.912 -0.1571 -0.3727  0.0127
  463BOLB   C3D11111  15.315  20.643  38.571  0.1120  0.1530 -0.0582
  463BOLB   C4D11112  15.296  20.380  38.286  0.1135 -0.1683  0.0545
  464BOLB   NC111113  20.825  17.252  29.372  0.0509 -0.0360 -0.0092
  464BOLB   PO111114  20.839  17.718  29.339  0.0079  0.0413 -0.1571
  464BOLB   GL111115  21.061  17.985  29.422 -0.0545  0.0356 -0.2346
  464BOLB   GL211116  21.162  18.025  29.087  0.1192 -0.2150 -0.3277
  464BOLB   C1A11117  21.384  18.203  29.660  0.0583 -0.0425 -0.1456
  464BOLB   C2A11118  21.855  18.290  29.666  0.1690 -0.0373  0.4951
  464BOLB   C3A11119  22.238  18.385  29.564  0.1828 -0.1278 -0.3207
  464BOLB   C4A11120  22.657  18.331  29.282 -0.1258 -0.0006  0.8247
  464BOLB   C1B11121  21.385  18.415  29.203 -0.3908 -0.1614 -0.0984
  464BOLB   C2B11122  21.642  18.812  28.988 -0.1247 -0.0606  0.0227
  464BOLB   C3B11123  22.005  18.851  28.732  0.1618 -0.0555 -0.1323
  464BOLB   C4B11124  22.232  19.055  28.368  0.2869  0.2061  0.2530
  464BOLB   NC211125  24.955  19.747  29.195 -0.1217 -0.1158  0.1968
  464BOLB   PO211126  24.659  19.406  29.038 -0.0170 -0.0380 -0.0532
  464BOLB   GL311127  24.323  19.211  29.181  0.1873 -0.0361 -0.0309
  464BOLB   GL411128  24.043  19.354  29.103  0.0167 -0.2211  0.1565
  464BOLB   C1C11129  24.014  18.956  29.472  0.0970  0.0968 -0.3044
  464BOLB   C2C11130  23.666  18.675  29.419 -0.3336  0.0798 -0.2238
  464BOLB   C3C11131  23.479  18.307  29.475  0.2913 -0.1078 -0.0284
  464BOLB   C4C11132  23.072  18.149  29.450  0.0289 -0.0794 -0.2964
  464BOLB   C1D11133  23.582  19.029  29.082  0.1613  0.0331 -0.4748
  464BOLB   C2D11134  23.197  19.184  29.039 -0.3048 -0.0341  0.1981
  464BOLB   C3D11135  22.801  19.184  29.102 -0.2826  0.3238 -0.2297
  464BOLB   C4D11136  22.351  19.201  29.006  0.0259 -0.2913  0.2911
  465BOLB   NC111137  22.866  15.038  33.958 -0.0371  0.1272  0.0966
  465BOLB   PO111138  22.808  14.936  34.371  0.1775  0.2113  0.0406
  465BOLB   GL111139  23.235  14.856  34.388  0.0852 -0.0907 -0.1852
  465BOLB   GL211140  23.370  14.958  34.095  0.0272 -0.0002  0.1900
  465BOLB   C1A11141  23.685  15.004  34.513 -0.0935  0.0153 -0.0834
  465BOLB   C2A11142  24.065  15.000  34.348  0.1641 -0.0865 -0.1125
  465BOLB   C3A11143  24.413  14.930  34.458  0.0529 -0.3878 -0.0207
  465BOLB   C4A11144  24.549  14.521  34.507 -0.0908 -0.0135  0.0818
  465BOLB   C1B11145  23.485  15.353  34.192 -0.1360 -0.2325 -0.3235
  465BOLB   C2B11146  23.821  15.598  34.234 -0.1796  0.2272  0.0323
  465BOLB   C3B11147  24.282  15.460  34.315 -0.5061  0.1549 -0.1520
  465BOLB   C4B11148  24.405  15.836  34.343  0.0020  0.0997  0.3002
  465BOLB   NC211149  26.694  15.640  34.605 -0.0940  0.0224  0.0918
  465BOLB   PO211150  26.741  15.232  34.522  0.0160 -0.0748  0.2766
  465BOLB   GL311151  26.288  15.098  34.470 -0.3273 -0.2443  0.1925
  465BOLB   GL411152  26.272  15.326  34.343 -0.1335  0.1320  0.2126
  465BOLB   C1C11153  26.120  14.605  34.457  0.0499 -0.0015 -0.3293
  465BOLB   C2C11154  25.786  14.329  34.600  0.0703  0.0435 -0.0142
  465BOLB   C3C11155  25.348  14.415  34.578  0.1022  0.0952 -0.0899
  465BOLB   C4C11156  24.894  14.360  34.652  0.0306  0.0446  0.2171
  465BOLB   C1D11157  25.999  15.528  33.966  0.0802  0.0621  0.0227
  465BOLB   C2D11158  25.634  15.462  33.560 -0.0847  0.0464  0.1755
  465BOLB   C3D11159  25.257  15.721  33.503 -0.0829 -0.0154  0.0351
  465BOLB   C4D11160  24.822  15.872  33.461 -0.3923 -0.1567 -0.1643
  466BOLB   NC111161  13.326  17.225  21.521  0.2188 -0.0540 -0.3571
  466BOLB   PO111162  13.023  17.173  21.849 -0.0539  0.1046 -0.1089
  466BOLB   GL111163  12.846  17.115  21.413  0.0523  0.2051  0.3128
  466BOLB   GL211164  12.596  16.971  21.354 -0.0992  0.0901  0.0489
  466BOLB   C1A11165  12.793  17.148  20.841 -0.1532  0.0033  0.3072
  466BOLB   C2A11166  12.555  17.063  20.441  0.2730 -0.0856  0.0483
  466BOLB   C3A11167  12.377  17.190  20.166 -0.1261  0.0030 -0.2719
  466BOLB   C4A11168  12.140  16.997  19.989 -0.3765  0.0701  0.0975
  466BOLB   C1B11169  12.369  17.179  21.112 -0.4178  0.1852  0.2671
  466BOLB   C2B11170  12.246  17.328  20.766  0.0217  0.2009 -0.0289
  466BOLB   C3B11171  12.185  17.745  20.545 -0.0216  0.1516  0.5133
  466BOLB   C4B11172  12.126  18.072  20.326  0.0009  0.0607 -0.1239
  466BOLB   NC211173  11.780  17.635  17.106  0.1639 -0.2574 -0.3584
  466BOLB   PO211174  11.598  17.237  17.465  0.4891 -0.1156 -0.0428
  466BOLB   GL311175  11.819  17.253  17.890  0.0880  0.0055 -0.0555
  466BOLB   GL411176  11.984  16.968  17.890 -0.0549 -0.2474  0.3031
  466BOLB   C1C11177  11.948  17.350  18.351  0.1363  0.0996 -0.3607
  466BOLB   C2C11178  11.948  17.221  18.764 -0.1833  0.0803 -0.2019
  466BOLB   C3C11179  11.991  17.225  19.255 -0.0290  0.2696  0.0621
  466BOLB   C4C11180  12.059  17.017  19.564  0.0734 -0.0320 -0.0812
  466BOLB   C1D11181  12.059  16.654  18.216  0.1683  0.0256  0.0741
  466BOLB   C2D11182  12.410  16.399  18.551  0.1671 -0.0599  0.2192
  466BOLB   C3D11183  12.455  16.116  18.866  0.1899  0.0455  0.0584
  466BOLB   C4D11184  12.619  15.691  18.844 -0.0885  0.0798  0.0663
  467BOLB   NC111185  23.845  11.126  31.529 -0.2550  0.0828 -0.2917
  467BOLB   PO111186  23.723  10.807  31.701 -0.1143 -0.0023 -0.2323
  467BOLB   GL111187  24.158  10.769  31.740  0.1152  0.1194  0.1496
  467BOLB   GL211188  24.342  10.731  31.390  0.1933  0.0107  0.0124
  467BOLB   C1A11189  24.638  10.813  31.838  0.0955 -0.0837 -0.1588
  467BOLB   C2A11190  24.956  11.104  31.825  0.0633 -0.1050 -0.5045
  467BOLB   C3A11191  25.389  11.134  31.678  0.2386  0.2796  0.2880
  467BOLB   C4A11192  25.689  10.876  31.630 -0.2334  0.0097  0.0590
  467BOLB   C1B11193  24.667  10.466  31.403  0.0699 -0.0214 -0.3342
  467BOLB   C2B11194  24.969  10.309  31.722 -0.1706 -0.2504 -0.0285
  467BOLB   C3B11195  25.127  10.676  32.010 -0.0866 -0.0515  0.3078
  467BOLB   C4B11196  25.551  10.834  32.098  0.0147 -0.1490 -0.1738
  467BOLB   NC211197   0.645  10.914  30.740 -0.1457 -0.4389 -0.3044
  467BOLB   PO211198   0.914  10.852  31.046  0.3078  0.0816  0.1490
  467BOLB   GL311199   0.483  10.856  31.184  0.2606  0.2156 -0.1268
  467BOLB   GL411200   0.399  10.567  31.238 -0.1226 -0.0339 -0.0045
  467BOLB   C1C11201   0.011  10.801  31.061 -0.2646 -0.0175 -0.1577
  467BOLB   C2C11202  26.765  10.614  31.096  0.0906 -0.0625 -0.0166
  467BOLB   C3C11203  26.364  10.649  31.087 -0.1864 -0.4333 -0.3044
  467BOLB   C4C11204  26.025  10.683  31.404  0.1148 -0.0655  0.1275
  467BOLB   C1D11205   0.098  10.471  31.547  0.1419  0.0537  0.0898
  467BOLB   C2D11206  26.727  10.246  31.414  0.1887 -0.1645 -0.1535
  467BOLB   C3D11207  26.291  10.315  31.512  0.3199 -0.0553 -0.1084
  467BOLB   C4D11208  25.904  10.127  31.438  0.0933  0.1867 -0.1764
  468BOLB   NC111209  22.462   7.288  30.963 -0.2245  0.1328  0.0104
  468BOLB   PO111210  22.416   7.294  31.418  0.0510 -0.0022  0.0679
  468BOLB   GL111211  22.751   6.954  31.411 -0.1342  0.2823  0.3021
  468BOLB   GL211212  22.708   6.652  31.287 -0.4729 -0.2008 -0.0641
  468BOLB   C1A11213  23.158   6.870  31.545 -0.1157  0.2112 -0.0599
  468BOLB   C2A11214  23.523   6.716  31.614  0.2464 -0.0960  0.1956
  468BOLB   C3A11215  23.946   6.463  31.790 -0.0652 -0.1564 -0.1379
  468BOLB   C4A11216  24.182   6.506  32.243  0.1297 -0.1480  0.2199
  468BOLB   C1B11217  23.050   6.619  31.152 -0.2030  0.3372 -0.0203
  468BOLB   C2B11218  23.345   6.260  31.190  0.0906 -0.2204 -0.1503
  468BOLB   C3B11219  23.854   6.168  31.428 -0.2549 -0.1176 -0.0205
  468BOLB   C4B11220  23.944   5.728  31.419 -0.0002  0.1295  0.0598
  468BOLB   NC211221  26.570   5.934  33.542  0.0736  0.0452 -0.0502
  468BOLB   PO211222  26.315   6.099  33.246  0.3023  0.2059  0.3232
  468BOLB   GL311223  25.937   6.356  33.043 -0.0826  0.0542 -0.1084
  468BOLB   GL411224  25.763   6.134  32.847 -0.3329 -0.1546 -0.0523
  468BOLB   C1C11225  25.527   6.634  32.982  0.0775 -0.0987 -0.3932
  468BOLB   C2C11226  25.176   6.782  32.942 -0.2370  0.2860 -0.0865
  468BOLB   C3C11227  24.773   6.859  32.978  0.1154 -0.0562  0.0252
  468BOLB   C4C11228  24.361   6.841  32.592 -0.1417  0.0161 -0.1501
  468BOLB   C1D11229  25.359   6.182  32.874  0.0851 -0.2216  0.2725
  468BOLB   C2D11230  24.960   6.351  32.953  0.0560 -0.0191  0.0621
  468BOLB   C3D11231  24.674   6.346  33.200 -0.3071  0.3426  0.1393
  468BOLB   C4D11232  24.326   6.540  33.040 -0.1176  0.1102 -0.2037
  469BOLB   NC111233  18.809   6.136  33.898  0.1043  0.1012 -0.1284
  469BOLB   PO111234  19.189   6.226  34.113 -0.0183  0.0682  0.0794
  469BOLB   GL111235  19.567   5.972  34.148 -0.0253  0.1689 -0.0889
  469BOLB   GL211236  19.627   5.657  33.975  0.2326  0.1980  0.3139
  469BOLB   C1A11237  19.920   5.534  34.309  0.0265  0.2194  0.2127
  469BOLB   C2A11238  20.147   5.201  34.542 -0.0265 -0.2254  0.1937
  469BOLB   C3A11239  20.242   4.870  34.727  0.0293  0.2302  0.1184
  469BOLB   C4A11240  20.578   4.482  34.754 -0.1185  0.2444 -0.2242
  469BOLB   C1B11241  19.831   5.210  33.803  0.1073 -0.0750  0.0580
  469BOLB   C2B11242  19.911   4.792  33.915 -0.1312 -0.0487  0.1579
  469BOLB   C3B11243  19.764   4.301  34.009  0.1607  0.2435 -0.0752
  469BOLB   C4B11244  19.974   3.978  34.275  0.2511 -0.1246  0.1054
  469BOLB   NC211245  20.503   2.201  35.107 -0.2366 -0.0589  0.0067
  469BOLB   PO211246  20.928   2.184  34.967  0.1750 -0.1625  0.1855
  469BOLB   GL311247  20.794   2.599  34.986 -0.2075  0.0752 -0.2871
  469BOLB   GL411248  21.158   2.697  35.105  0.1431  0.0275 -0.0640
  469BOLB   C1C11249  20.578   2.987  35.121 -0.1267 -0.0990 -0.1170
  469BOLB   C2C11250  20.661   3.459  35.257  0.0280 -0.1954 -0.0820
  469BOLB   C3C11251  20.463   3.781  35.275  0.0139 -0.2698  0.0374
  469BOLB   C4C11252  20.635   4.123  35.053  0.0338 -0.0129 -0.3016
  469BOLB   C1D11253  21.408   3.025  35.006  0.2002  0.2261  0.2278
  469BOLB   C2D11254  21.348   3.229  34.692 -0.2411 -0.1773  0.4002
  469BOLB   C3D11255  21.084   3.535  34.410  0.0183 -0.1507  0.4976
  469BOLB   C4D11256  20.882   3.825  34.214  0.1565  0.0963 -0.1036
  470BOLB   NC111257  11.269   9.494  23.881 -0.0203  0.0226 -0.0212
  470BOLB   PO111258  11.183   9.055  23.614 -0.0507  0.2146 -0.1511
  470BOLB   GL111259  10.944   9.006  23.216  0.0525  0.0760 -0.2522
  470BOLB   GL211260  10.711   9.146  23.172  0.1080  0.1835  0.0661
  470BOLB   C1A11261  10.874   8.777  22.807 -0.0388  0.2659 -0.1704
  470BOLB   C2A11262  10.579   8.825  22.591  0.2167 -0.4399  0.2106
  470BOLB   C3A11263  10.226   8.839  22.316 -0.2566  0.4049  0.0079
  470BOLB   C4A11264  10.021   8.789  21.867 -0.0603  0.2503  0.1152
  470BOLB   C1B11265  10.399   8.814  23.236 -0.0849  0.0564 -0.2527
  470BOLB   C2B11266  10.245   8.542  22.937  0.0002 -0.2232 -0.1475
  470BOLB   C3B11267  10.098   8.414  22.527  0.2552  0.1332  0.1255
  470BOLB   C4B11268   9.825   8.325  22.244  0.2892  0.1853  0.1966
  470BOLB   NC211269   7.904   9.274  19.896 -0.1760 -0.1623  0.1230
  470BOLB   PO211270   8.214   9.377  20.148  0.0474  0.1805 -0.1607
  470BOLB   GL311271   8.454   9.322  20.469  0.0026 -0.0824  0.0393
  470BOLB   GL411272   8.413   9.486  20.888 -0.0418  0.1170  0.0125
  470BOLB   C1C11273   8.823   9.201  20.689  0.1418  0.1824  0.1680
  470BOLB   C2C11274   9.174   8.995  20.881 -0.3319  0.3070 -0.3314
  470BOLB   C3C11275   9.391   9.098  21.222  0.1489  0.1727 -0.0956
  470BOLB   C4C11276   9.731   9.043  21.473 -0.0532 -0.1020 -0.3192
  470BOLB   C1D11277   8.726   9.696  20.879  0.1453 -0.0387  0.1685
  470BOLB   C2D11278   8.982   9.991  20.942 -0.2176  0.1740 -0.0202
  470BOLB   C3D11279   9.433  10.024  21.051  0.1667 -0.1314 -0.0622
  470BOLB   C4D11280   9.787   9.752  21.042 -0.1210 -0.2948  0.0554
  471BOLB   NC111281  23.049  10.119  31.224 -0.3004 -0.0802 -0.3679
  471BOLB   PO111282  23.254   9.883  30.877 -0.1753  0.1413 -0.1046
  471BOLB   GL111283  23.735   9.692  31.013  0.0051 -0.1337  0.3178
  471BOLB   GL211284  23.926   9.841  30.832  0.1376 -0.0360 -0.4898
  471BOLB   C1A11285  23.890   9.356  31.387  0.2099 -0.1223  0.2007
  471BOLB   C2A11286  24.341   9.214  31.418  0.2685 -0.1287 -0.0333
  471BOLB   C3A11287  24.699   9.073  31.593  0.1922 -0.1437  0.2284
  471BOLB   C4A11288  25.034   8.905  31.717 -0.1026 -0.1771 -0.1903
  471BOLB   C1B11289  24.178   9.468  30.848 -0.0321 -0.0925 -0.0903
  471BOLB   C2B11290  24.563   9.252  30.923 -0.0491 -0.2743 -0.0346
  471BOLB   C3B11291  24.885   9.209  30.707 -0.0884 -0.0906 -0.2765
  471BOLB   C4B11292  25.218   9.208  30.395 -0.0699  0.1091  0.2306
  471BOLB   NC211293   0.089   7.606  31.122 -0.1943 -0.1604 -0.2108
  471BOLB   PO211294  26.858   7.706  31.471  0.1081 -0.2813 -0.1871
  471BOLB   GL311295  26.898   8.091  31.392  0.3162  0.0503  0.3461
  471BOLB   GL411296  26.960   8.095  31.090  0.0719  0.1496 -0.0587
  471BOLB   C1C11297  26.510   8.334  31.374 -0.0380 -0.2033 -0.2899
  471BOLB   C2C11298  26.156   8.539  31.329 -0.2104 -0.1409  0.1105
  471BOLB   C3C11299  25.745   8.700  31.082 -0.0469 -0.2626  0.0418
  471BOLB   C4C11300  25.307   8.744  31.353  0.0588  0.0454 -0.0163
  471BOLB   C1D11301  26.625   8.232  30.870 -0.1319  0.1386  0.2603
  471BOLB   C2D11302  26.286   8.284  30.884  0.0505  0.3238  0.3502
  471BOLB   C3D11303  25.821   8.202  30.867  0.3047  0.0863 -0.1582
  471BOLB   C4D11304  25.409   8.295  31.050 -0.0652 -0.0396  0.2546
  472BOLB   NC111305  11.176  11.035  38.043  0.1828 -0.1354 -0.0282
  472BOLB   PO111306  10.780  10.765  38.042 -0.1604  0.1278 -0.0353
  472BOLB   GL111307  10.713  10.376  38.269 -0.1319 -0.1218 -0.1397
  472BOLB   GL211308  10.972  10.081  38.320  0.0451 -0.2130  0.0354
  472BOLB   C1A11309  10.698  10.362  38.700  0.0824 -0.1419 -0.1805
  472BOLB   C2A11310  10.654  10.376  39.045  0.1204  0.0512 -0.2076
  472BOLB   C3A11311  10.181  10.507  39.250  0.2487  0.3916  0.0044
  472BOLB   C4A11312  10.110  10.529  39.624  0.1014  0.1103 -0.0267
  472BOLB   C1B11313  10.580   9.898  38.431 -0.2890 -0.1780  0.3115
  472BOLB   C2B11314  10.322   9.921  38.670 -0.0625  0.2355 -0.2517
  472BOLB   C3B11315  10.175   9.922  39.127 -0.0826 -0.1103  0.1395
  472BOLB   C4B11316  10.372  10.030  39.536  0.0514 -0.1726  0.0925
  472BOLB   NC211317   8.255   9.938  41.952 -0.0849 -0.2030  0.2365
  472BOLB   PO211318   8.659  10.175  41.724 -0.0798  0.1220  0.1711
  472BOLB   GL311319   8.887  10.197  41.357  0.0738 -0.0535 -0.2564
  472BOLB   GL411320   9.156  10.195  41.462 -0.1216  0.2544  0.0477
  472BOLB   C1C11321   9.113  10.202  40.919  0.0092 -0.1114 -0.0311
  472BOLB   C2C11322   9.496  10.226  40.706 -0.2567  0.1280  0.3985
  472BOLB   C3C11323   9.819  10.286  40.426 -0.2960 -0.2679  0.0551
  472BOLB   C4C11324   9.938  10.343  39.978 -0.3587 -0.1897  0.0017
  472BOLB   C1D11325   9.483  10.272  41.304  0.3331  0.0052  0.1364
  472BOLB   C2D11326   9.736  10.508  40.997 -0.1534  0.2334  0.1445
  472BOLB   C3D11327  10.056  10.591  40.753 -0.3589 -0.0748  0.0059
  472BOLB   C4D11328  10.283  10.510  40.326 -0.3579 -0.3239 -0.1944
  473BOLB   NC111329  12.854   6.565  35.656  0.1012  0.2147 -0.0797
  473BOLB   PO111330  12.368   6.600  35.797 -0.2630 -0.2539  0.0896
  473BOLB   GL111331  12.200   6.263  35.883  0.3227 -0.2869 -0.0181
  473BOLB   GL211332  12.141   6.328  36.228 -0.0516 -0.1579 -0.0021
  473BOLB   C1A11333  11.933   5.920  35.994 -0.1678 -0.0038  0.2858
  473BOLB   C2A11334  11.912   5.588  36.235 -0.1531  0.0829 -0.1531
  473BOLB   C3A11335  11.952   5.245  36.478 -0.2589  0.3537 -0.2762
  473BOLB   C4A11336  11.952   4.985  36.810  0.2948  0.0639  0.0378
  473BOLB   C1B11337  11.921   6.213  36.477 -0.0306  0.2431  0.3018
  473BOLB   C2B11338  11.866   6.074  36.836  0.0284 -0.1804  0.1092
  473BOLB   C3B11339  11.609   5.692  37.074 -0.0440 -0.0543 -0.0250
  473BOLB   C4B11340  11.224   5.562  37.331 -0.2293  0.1057 -0.0985
  473BOLB   NC211341  10.863   3.464  38.750 -0.3478 -0.1669 -0.2228
  473BOLB   PO211342  10.860   3.359  38.338 -0.1210 -0.1915  0.0946
  473BOLB   GL311343  11.067   3.766  38.056 -0.0671  0.2189  0.2244
  473BOLB   GL411344  10.991   3.791  37.756 -0.1862  0.0414  0.4108
  473BOLB   C1C11345  11.478   3.983  37.813  0.2463 -0.1412 -0.0177
  473BOLB   C2C11346  11.634   4.172  37.619 -0.1047 -0.0577  0.0029
  473BOLB   C3C11347  11.717   4.526  37.420  0.3330  0.2000 -0.0081
  473BOLB   C4C11348  11.754   4.698  37.069  0.3143 -0.2991  0.1259
  473BOLB   C1D11349  11.134   4.064  37.410  0.3320 -0.1985 -0.0733
  473BOLB   C2D11350  11.284   4.495  37.080  0.0206 -0.2027  0.0431
  473BOLB   C3D11351  11.379   4.853  36.795 -0.3791 -0.1369  0.1927
  473BOLB   C4D11352  11.620   4.869  36.427  0.2713 -0.4652 -0.3819
  474BOLB   NC111353  22.010   3.697  37.442  0.0702  0.0671 -0.1350
  474BOLB   PO111354  22.400   3.798  37.460 -0.3048  0.1682 -0.2332
  474BOLB   GL111355  22.205   4.010  37.106 -0.0824  0.0096 -0.0131
  474BOLB   GL211356  22.200   4.335  37.223  0.0685 -0.0079 -0.0830
  474BOLB   C1A11357  22.054   4.161  36.625  0.1489 -0.0734  0.2940
  474BOLB   C2A11358  21.877   4.605  36.643 -0.0444  0.0361 -0.2235
  474BOLB   C3A11359  21.713   4.730  36.251  0.1395  0.0942  0.0056
  474BOLB   C4A11360  21.618   4.571  35.895 -0.0548 -0.1641  0.0251
  474BOLB   C1B11361  21.790   4.434  37.107 -0.1592 -0.3138  0.0889
  474BOLB   C2B11362  21.411   4.606  36.934  0.1515  0.0384 -0.4624
  474BOLB   C3B11363  21.261   4.765  36.564  0.0959 -0.1269  0.0367
  474BOLB   C4B11364  21.205   5.248  36.604  0.0309  0.3049 -0.1215
  474BOLB   NC211365  22.193   2.502  35.447  0.1068 -0.0350 -0.0332
  474BOLB   PO211366  21.825   2.486  35.662  0.0377 -0.1485  0.2416
  474BOLB   GL311367  21.863   2.892  35.597 -0.0492 -0.0414 -0.0989
  474BOLB   GL411368  22.010   3.112  35.769 -0.0809  0.0431  0.0282
  474BOLB   C1C11369  21.716   3.208  35.344  0.3566 -0.5157 -0.0828
  474BOLB   C2C11370  21.827   3.720  35.240  0.1802 -0.0380 -0.1188
  474BOLB   C3C11371  21.501   3.963  35.360  0.0608  0.1222  0.5739
  474BOLB   C4C11372  21.547   4.315  35.515  0.0705 -0.2815 -0.2641
  474BOLB   C1D11373  21.902   3.593  35.702 -0.0220 -0.1680  0.1659
  474BOLB   C2D11374  21.572   3.938  35.856 -0.0523  0.0346  0.2482
  474BOLB   C3D11375  21.767   4.129  36.199  0.0721  0.3881  0.3426
  474BOLB   C4D11376  22.103   4.444  36.043 -0.2633  0.4485  0.2546
  475BOLB   NC111377  16.342  24.811  32.170 -0.4272 -0.0129  0.1278
  475BOLB   PO111378  16.653  24.871  32.459 -0.0678  0.3874 -0.5429
  475BOLB   GL111379  16.846  24.525  32.198  0.0782 -0.1372 -0.0237
  475BOLB   GL211380  16.766  24.465  31.812  0.0862 -0.1538 -0.2543
  475BOLB   C1A11381  17.030  24.193  32.033  0.3233 -0.1039 -0.2033
  475BOLB   C2A11382  16.931  23.751  32.033 -0.1596 -0.0393  0.0012
  475BOLB   C3A11383  16.793  23.394  32.023 -0.1470 -0.0786  0.1277
  475BOLB   C4A11384  16.527  23.106  32.333 -0.2489  0.3636 -0.1448
  475BOLB   C1B11385  16.465  24.183  32.036  0.1752 -0.3177 -0.1086
  475BOLB   C2B11386  16.444  23.877  32.326 -0.0287  0.1009 -0.1946
  475BOLB   C3B11387  16.323  23.515  32.128 -0.1718  0.1314 -0.0761
  475BOLB   C4B11388  16.071  23.167  31.888 -0.1814  0.4689 -0.1581
  475BOLB   NC211389  16.189  25.019  33.566 -0.1598 -0.0515  0.0843
  475BOLB   PO211390  16.167  24.534  33.725  0.2114 -0.5329  0.0131
  475BOLB   GL311391  16.165  24.061  33.717 -0.2401 -0.0488 -0.2083
  475BOLB   GL411392  16.052  23.959  33.959  0.4121  0.0002  0.0825
  475BOLB   C1C11393  16.133  23.627  33.641 -0.0671 -0.0914  0.0356
  475BOLB   C2C11394  16.274  23.276  33.359 -0.0246  0.2598 -0.0718
  475BOLB   C3C11395  16.436  22.909  33.114  0.3126 -0.0920 -0.1599
  475BOLB   C4C11396  16.621  23.013  32.728 -0.0616 -0.2554 -0.0943
  475BOLB   C1D11397  15.694  23.750  33.880 -0.3482  0.1182  0.1753
  475BOLB   C2D11398  15.595  23.330  33.769  0.0544 -0.1436 -0.3179
  475BOLB   C3D11399  15.717  22.827  34.002 -0.3821  0.1780  0.1426
  475BOLB   C4D11400  15.392  22.514  34.116 -0.2055 -0.0742  0.1786
  476BOLB   NC111401  14.269   6.605  24.202 -0.0533  0.2229 -0.1209
  476BOLB   PO111402  14.060   6.120  24.082 -0.2528  0.1692 -0.0003
  476BOLB   GL111403  14.187   5.826  23.787  0.1344 -0.1497  0.1728
  476BOLB   GL211404  13.991   5.824  23.508 -0.1038 -0.2516 -0.0151
  476BOLB   C1A11405  14.051   5.393  23.784  0.1611 -0.1079  0.4397
  476BOLB   C2A11406  14.131   4.953  23.584  0.1783 -0.0105 -0.1401
  476BOLB   C3A11407  14.446   4.553  23.406 -0.0005 -0.1841 -0.0064
  476BOLB   C4A11408  14.311   4.320  23.002 -0.4347 -0.0263 -0.5694
  476BOLB   C1B11409  13.699   5.546  23.520 -0.2998 -0.2395 -0.0773
  476BOLB   C2B11410  13.686   5.113  23.498 -0.1391 -0.3533 -0.2458
  476BOLB   C3B11411  13.286   5.009  23.606  0.0221  0.2885 -0.0605
  476BOLB   C4B11412  13.014   5.137  23.757 -0.0239 -0.0930  0.1566
  476BOLB   NC211413  14.141   2.868  20.919 -0.1390  0.1865  0.2713
  476BOLB   PO211414  14.171   2.521  21.199  0.0458  0.0339  0.0551
  476BOLB   GL311415  14.413   2.930  21.392  0.0563  0.3371  0.0310
  476BOLB   GL411416  14.214   3.262  21.356  0.1062 -0.2453 -0.0001
  476BOLB   C1C11417  14.691   3.278  21.536 -0.2567  0.1196  0.1310
  476BOLB   C2C11418  14.618   3.542  21.907  0.1648  0.0033 -0.1509
  476BOLB   C3C11419  14.541   3.709  22.396  0.1353  0.3808 -0.0250
  476BOLB   C4C11420  14.496   4.156  22.601  0.0772 -0.1552 -0.1830
  476BOLB   C1D11421  14.138   3.379  21.713 -0.0261 -0.0037  0.0245
  476BOLB   C2D11422  14.182   3.833  21.869  0.0513  0.0024  0.4583
  476BOLB   C3D11423  14.425   4.064  22.061  0.1318  0.1312 -0.0713
  476BOLB   C4D11424  14.565   4.456  22.240  0.0131 -0.2009  0.1758
  477BOLB   NC111425   6.642   4.967  25.694 -0.0236 -0.2255 -0.0498
  477BOLB   PO111426   6.505   5.405  25.650 -0.1676 -0.0765  0.0286
  477BOLB   GL111427   6.861   5.720  25.716  0.1032 -0.2112 -0.1528
  477BOLB   GL211428   7.059   5.926  25.439  0.1675  0.1990  0.2534
  477BOLB   C1A11429   6.917   5.990  26.020 -0.0271 -0.2483 -0.2454
  477BOLB   C2A11430   6.989   6.424  26.003  0.0833  0.3049  0.2795
  477BOLB   C3A11431   7.193   6.809  26.190  0.2184  0.0211 -0.0281
  477BOLB   C4A11432   7.548   6.912  26.119  0.4394  0.0520 -0.0373
  477BOLB   C1B11433   7.333   6.040  25.720 -0.3106  0.0488 -0.1206
  477BOLB   C2B11434   7.575   6.384  25.969 -0.1814  0.1747 -0.1488
  477BOLB   C3B11435   8.005   6.473  26.077  0.3169 -0.1838  0.3802
  477BOLB   C4B11436   8.467   6.646  26.039  0.0486 -0.2725 -0.1467
  477BOLB   NC211437   6.648   5.930  24.511  0.2341  0.2696 -0.1601
  477BOLB   PO211438   6.506   6.386  24.361 -0.1899  0.0524  0.5230
  477BOLB   GL311439   6.809   6.622  24.517 -0.0702 -0.0011 -0.0034
  477BOLB   GL411440   7.180   6.642  24.346  0.0142 -0.3151  0.1490
  477BOLB   C1C11441   7.138   6.770  24.889 -0.2017  0.0546  0.0683
  477BOLB   C2C11442   7.394   6.932  25.163  0.0080 -0.3780 -0.3932
  477BOLB   C3C11443   7.799   6.928  25.335 -0.1484  0.1785  0.0503
  477BOLB   C4C11444   7.836   6.873  25.752 -0.2260 -0.1193  0.0630
  477BOLB   C1D11445   7.395   6.489  24.545 -0.2739  0.2273  0.0646
  477BOLB   C2D11446   7.588   6.148  24.585  0.1225 -0.1921  0.0004
  477BOLB   C3D11447   7.880   5.775  24.652  0.0685  0.2928  0.3376
  477BOLB   C4D11448   8.289   5.663  24.499 -0.1752 -0.0050 -0.1778
  478BOLB   NC111449  11.459   5.433  30.475  0.0222 -0.0668  0.0932
  478BOLB   PO111450  11.692   5.151  30.763 -0.3080  0.0143  0.2429
  478BOLB   GL111451  11.460   4.869  30.449 -0.1498  0.1455  0.0111
  478BOLB   GL211452  11.213   5.016  30.475 -0.1246 -0.0938  0.0902
  478BOLB   C1A11453  11.270   4.381  30.490  0.2528  0.2908  0.0176
  478BOLB   C2A11454  11.205   3.991  30.280  0.0298 -0.0389 -0.2118
  478BOLB   C3A11455  11.211   3.623  30.328 -0.1501 -0.3331 -0.0516
  478BOLB   C4A11456  11.208   3.206  30.334  0.0486  0.1290 -0.0126
  478BOLB   C1B11457  10.886   4.654  30.503  0.2886 -0.3456 -0.1571
  478BOLB   C2B11458  10.760   4.348  30.518 -0.1837 -0.3974  0.1489
  478BOLB   C3B11459  10.689   4.014  30.177 -0.0225 -0.2012  0.0453
  478BOLB   C4B11460  10.314   4.043  29.908  0.0121 -0.0367  0.0734
  478BOLB   NC211461  10.440   0.888  29.900  0.0445 -0.0324  0.1609
  478BOLB   PO211462  10.543   1.210  29.577 -0.1390  0.1171 -0.3751
  478BOLB   GL311463  10.834   1.575  29.834 -0.0346  0.3526  0.2977
  478BOLB   GL411464  10.651   1.814  30.166  0.2377  0.3213  0.1481
  478BOLB   C1C11465  11.122   1.690  30.207  0.0722  0.0626 -0.3473
  478BOLB   C2C11466  11.281   1.838  30.468  0.0914 -0.2738  0.0964
  478BOLB   C3C11467  11.297   2.309  30.330 -0.0744  0.0110  0.1047
  478BOLB   C4C11468  11.280   2.747  30.448 -0.2064  0.1559 -0.0552
  478BOLB   C1D11469  10.676   2.170  30.017 -0.0644  0.3659 -0.0267
  478BOLB   C2D11470  10.875   2.543  30.249 -0.2261 -0.1535  0.0945
  478BOLB   C3D11471  10.768   3.009  30.184  0.3802 -0.0238  0.0072
  478BOLB   C4D11472  10.745   3.449  30.266 -0.1269  0.1921  0.0916
  479BOLB   NC111473  20.791  15.083  22.958  0.0736  0.1107  0.1431
  479BOLB   PO111474  20.413  15.386  23.163 -0.1283 -0.1046 -0.3038
  479BOLB   GL111475  20.836  15.356  23.483  0.1138  0.2101  0.2320
  479BOLB   GL211476  20.851  15.072  23.660  0.1467  0.3399 -0.2761
  479BOLB   C1A11477  21.276  15.577  23.634  0.2605 -0.2890  0.1115
  479BOLB   C2A11478  21.323  15.904  23.884  0.2286  0.0590  0.1634
  479BOLB   C3A11479  21.723  16.093  24.031 -0.2823  0.1634  0.0158
  479BOLB   C4A11480  22.029  15.985  24.293 -0.1203  0.4203 -0.0365
  479BOLB   C1B11481  21.010  15.295  24.025  0.0834 -0.2431 -0.0542
  479BOLB   C2B11482  21.374  15.467  24.142  0.2948  0.5339 -0.0556
  479BOLB   C3B11483  21.543  15.768  24.332  0.0581  0.1820  0.1063
  479BOLB   C4B11484  21.459  16.306  24.405  0.0372 -0.0599  0.2292
  479BOLB   NC211485  24.581  17.020  25.813 -0.0811  0.2556  0.2165
  479BOLB   PO211486  24.155  17.073  25.680  0.1945  0.1067  0.2028
  479BOLB   GL311487  23.759  16.901  25.630  0.1981 -0.3161 -0.0784
  479BOLB   GL411488  23.926  16.630  25.658 -0.0250 -0.1002 -0.0093
  479BOLB   C1C11489  23.407  16.704  25.427  0.2890 -0.3868 -0.0244
  479BOLB   C2C11490  23.099  16.577  25.076 -0.0791  0.4150 -0.1648
  479BOLB   C3C11491  22.692  16.519  24.944  0.1482  0.1952 -0.0716
  479BOLB   C4C11492  22.389  16.312  24.584  0.1442  0.1456  0.0257
  479BOLB   C1D11493  23.513  16.659  25.925 -0.1807 -0.0870 -0.0513
  479BOLB   C2D11494  23.191  16.379  26.050 -0.0622 -0.1093  0.0794
  479BOLB   C3D11495  22.945  16.008  25.923 -0.0497 -0.1414 -0.0909
  479BOLB   C4D11496  22.941  15.599  25.916 -0.1297 -0.0723  0.2617
  480BOLB   NC111497  16.870   4.022  27.819 -0.0621  0.0541  0.2641
  480BOLB   PO111498  16.701   4.104  27.480  0.3457 -0.0801 -0.0684
  480BOLB   GL111499  16.852   3.871  27.136 -0.2360  0.0707 -0.1039
  480BOLB   GL211500  17.245   3.969  27.045 -0.0974 -0.0031 -0.0073
  480BOLB   C1A11501  16.790   3.524  26.814 -0.1067  0.0720  0.1199
  480BOLB   C2A11502  16.813   3.146  26.660 -0.0889 -0.0411  0.0195
  480BOLB   C3A11503  16.691   2.801  26.461 -0.0050 -0.0558  0.2712
  480BOLB   C4A11504  16.895   2.383  26.474 -0.0698 -0.2111  0.0547
  480BOLB   C1B11505  17.126   3.907  26.684 -0.0189  0.1048 -0.1754
  480BOLB   C2B11506  17.123   3.503  26.412  0.0086  0.0488  0.2702
  480BOLB   C3B11507  17.264   3.053  26.480  0.0989  0.1302  0.1509
  480BOLB   C4B11508  17.202   2.702  26.296  0.1238  0.1600  0.0394
  480BOLB   NC211509  18.760   0.555  26.071 -0.4473 -0.1054  0.2503
  480BOLB   PO211510  18.354   0.611  26.326 -0.0859  0.0279 -0.0580
  480BOLB   GL311511  17.963   0.775  26.557  0.2463  0.0932  0.1335
  480BOLB   GL411512  18.238   0.965  26.631 -0.0828 -0.1130  0.3798
  480BOLB   C1C11513  17.716   1.064  26.808  0.2193  0.1654  0.2249
  480BOLB   C2C11514  17.458   1.289  26.629 -0.0814 -0.0002  0.0157
  480BOLB   C3C11515  17.128   1.696  26.582  0.2095 -0.1108 -0.2778
  480BOLB   C4C11516  17.105   2.123  26.666  0.3165  0.1892 -0.0303
  480BOLB   C1D11517  18.542   1.363  26.611 -0.0654 -0.0972  0.1038
  480BOLB   C2D11518  18.607   1.770  26.756  0.2562 -0.0843 -0.1997
  480BOLB   C3D11519  18.399   2.159  26.722  0.0504  0.1011  0.1750
  480BOLB   C4D11520  18.536   2.586  26.903  0.3971 -0.2595 -0.3089
  481BOLB   NC111521  11.157   9.756  37.964  0.2065  0.2582  0.0356
  481BOLB   PO111522  10.898  10.200  37.826 -0.1576 -0.0877 -0.1645
  481BOLB   GL111523  10.417   9.994  37.967 -0.1380 -0.0739 -0.1274
  481BOLB   GL211524  10.228   9.728  37.787  0.2001 -0.2219 -0.0706
  481BOLB   C1A11525  10.114   9.926  38.202  0.1275  0.0440  0.3104
  481BOLB   C2A11526   9.886  10.099  38.571  0.0094 -0.0056  0.4991
  481BOLB   C3A11527   9.773  10.370  38.957  0.0693  0.2487  0.0382
  481BOLB   C4A11528   9.769  10.299  39.378  0.0935  0.0546 -0.0015
  481BOLB   C1B11529   9.867   9.549  37.992  0.0813 -0.3036  0.1579
  481BOLB   C2B11530   9.779   9.229  38.213 -0.0176  0.0343 -0.0587
  481BOLB   C3B11531   9.715   8.881  38.496  0.0426  0.0604 -0.0705
  481BOLB   C4B11532   9.562   8.656  38.589  0.1272 -0.3345  0.1787
  481BOLB   NC211533   8.462   8.851  41.300 -0.3682  0.2024 -0.1188
  481BOLB   PO211534   8.865   8.627  41.210  0.2012  0.0035  0.1576
  481BOLB   GL311535   8.969   8.790  40.831  0.1440 -0.3794  0.1101
  481BOLB   GL411536   8.929   8.699  40.511 -0.0805 -0.2548 -0.0763
  481BOLB   C1C11537   9.162   9.221  40.697  0.1402 -0.1394 -0.0341
  481BOLB   C2C11538   9.221   9.529  40.280  0.2213  0.0639 -0.3792
  481BOLB   C3C11539   9.588   9.867  40.018 -0.0751  0.0427 -0.2631
  481BOLB   C4C11540   9.899   9.933  39.642 -0.1803 -0.1043 -0.2748
  481BOLB   C1D11541   9.126   8.898  40.196 -0.1064  0.2736  0.3519
  481BOLB   C2D11542   9.216   8.893  39.772 -0.1981  0.3841 -0.0312
  481BOLB   C3D11543   9.390   9.093  39.530  0.1183 -0.0378  0.2871
  481BOLB   C4D11544   9.436   9.354  39.187 -0.1643  0.0052 -0.2884
  482BOLB   NC111545  23.240   9.179  29.784 -0.0309 -0.1331 -0.0253
  482BOLB   PO111546  23.522   9.274  29.404  0.1003  0.1890  0.0904
  482BOLB   GL111547  24.027   9.235  29.300  0.1806 -0.3036  0.1282
  482BOLB   GL211548  24.188   9.621  29.217  0.2893 -0.1945 -0.2350
  482BOLB   C1A11549  24.437   9.201  29.127  0.1502  0.2475  0.0795
  482BOLB   C2A11550  24.773   8.989  28.996 -0.2985  0.0923  0.2584
  482BOLB   C3A11551  24.833   8.899  28.572 -0.1208  0.3261 -0.0756
  482BOLB   C4A11552  25.036   8.889  28.146 -0.1587 -0.2356 -0.0158
  482BOLB   C1B11553  24.565   9.669  28.923  0.0177 -0.5003  0.2355
  482BOLB   C2B11554  24.838   9.453  28.739  0.0591  0.1717  0.0586
  482BOLB   C3B11555  25.203   9.250  28.723  0.1486 -0.0413 -0.0431
  482BOLB   C4B11556  25.520   9.136  29.082 -0.1985  0.1644  0.1081
  482BOLB   NC211557   0.357   7.837  28.233 -0.0236  0.3276 -0.1070
  482BOLB   PO211558   0.103   8.025  27.855 -0.2432 -0.0012 -0.1044
  482BOLB   GL311559  26.751   8.163  27.867 -0.0713  0.1180  0.2492
  482BOLB   GL411560  26.587   8.383  27.639  0.0615  0.1229 -0.1084
  482BOLB   C1C11561  26.447   8.210  28.074  0.2032 -0.0271 -0.1962
  482BOLB   C2C11562  25.970   8.225  27.969 -0.0017 -0.1366  0.2705
  482BOLB   C3C11563  25.607   8.323  27.790  0.1464 -0.0322  0.0728
  482BOLB   C4C11564  25.196   8.643  27.804 -0.2582 -0.2326  0.0894
  482BOLB   C1D11565  26.214   8.610  27.448 -0.2716 -0.1020  0.1528
  482BOLB   C2D11566  25.837   8.595  27.247  0.0183 -0.2344 -0.1995
  482BOLB   C3D11567  25.462   8.728  27.385  0.1655 -0.0535 -0.0088
  482BOLB   C4D11568  25.167   9.044  27.343 -0.0792  0.2408 -0.1320
  483BOLB   NC111569   9.238  13.117  24.501 -0.2474  0.3636 -0.0198
  483BOLB   PO111570   9.069  12.695  24.606  0.2605 -0.1326  0.1998
  483BOLB   GL111571   8.820  12.786  24.387  0.1165  0.0013  0.0186
  483BOLB   GL211572   8.637  12.994  24.519  0.4848 -0.1704  0.1137
  483BOLB   C1A11573   8.559  12.659  24.130  0.1421 -0.0693 -0.0829
  483BOLB   C2A11574   8.156  12.742  23.914 -0.1117  0.1543 -0.2449
  483BOLB   C3A11575   7.857  12.816  23.700 -0.1268 -0.0753 -0.2376
  483BOLB   C4A11576   7.753  13.195  23.462  0.3993 -0.1026 -0.0436
  483BOLB   C1B11577   8.260  13.035  24.369  0.0806  0.0292  0.1540
  483BOLB   C2B11578   7.848  12.948  24.321 -0.4718 -0.0008 -0.1542
  483BOLB   C3B11579   7.660  13.209  24.022 -0.0247  0.0965  0.0064
  483BOLB   C4B11580   7.392  13.422  23.729 -0.1242 -0.1243 -0.0951
  483BOLB   NC211581   5.906  12.433  22.083 -0.0679  0.0838 -0.0025
  483BOLB   PO211582   6.041  12.785  21.876 -0.1860 -0.1539 -0.2260
  483BOLB   GL311583   6.323  13.005  22.317  0.0265 -0.1151  0.1029
  483BOLB   GL411584   6.489  13.317  22.340  0.1485 -0.1883 -0.0135
  483BOLB   C1C11585   6.594  12.955  22.657  0.1532 -0.3755 -0.0668
  483BOLB   C2C11586   6.915  12.912  22.727  0.1505  0.0565  0.0163
  483BOLB   C3C11587   7.181  13.092  22.997  0.0062 -0.1078  0.0544
  483BOLB   C4C11588   7.361  13.155  23.284  0.2109  0.0409  0.0617
  483BOLB   C1D11589   6.794  13.489  22.034  0.1096  0.0699  0.0920
  483BOLB   C2D11590   7.206  13.614  21.948 -0.0823 -0.1213 -0.1596
  483BOLB   C3D11591   7.544  13.568  22.256  0.1942  0.1133  0.2934
  483BOLB   C4D11592   7.878  13.332  22.372  0.1031  0.1914 -0.0870
  484BOLB   NC111593  17.408  20.117  32.620  0.0580  0.0764 -0.0144
  484BOLB   PO111594  17.079  20.258  32.429 -0.0992 -0.2547  0.1880
  484BOLB   GL111595  17.320  20.624  32.482  0.0132  0.2284  0.2089
  484BOLB   GL211596  17.531  20.826  32.172 -0.2257 -0.3146 -0.3760
  484BOLB   C1A11597  17.422  21.051  32.740  0.0521 -0.0142  0.3395
  484BOLB   C2A11598  17.584  21.479  32.981 -0.3893 -0.1703  0.0567
  484BOLB   C3A11599  17.576  21.825  33.291 -0.0115  0.0429 -0.1787
  484BOLB   C4A11600  17.436  22.200  33.389  0.1679  0.0486 -0.1198
  484BOLB   C1B11601  17.401  21.187  32.113 -0.2753 -0.0379 -0.1396
  484BOLB   C2B11602  17.297  21.503  32.434  0.0823 -0.0358 -0.1186
  484BOLB   C3B11603  17.347  21.819  32.702 -0.2525 -0.0980  0.2023
  484BOLB   C4B11604  17.186  22.172  32.472 -0.2314 -0.1041  0.2286
  484BOLB   NC211605  18.173  25.019  33.741  0.1822 -0.2095  0.2549
  484BOLB   PO211606  18.200  24.580  33.864 -0.3752  0.1887 -0.0388
  484BOLB   GL311607  17.997  24.163  33.649  0.0186  0.0683  0.1773
  484BOLB   GL411608  17.604  24.022  33.816  0.0822 -0.0478 -0.0994
  484BOLB   C1C11609  18.021  23.698  33.576  0.0160 -0.1651 -0.1684
  484BOLB   C2C11610  17.953  23.268  33.533  0.0864 -0.0057 -0.3150
  484BOLB   C3C11611  17.895  22.867  33.448 -0.2325 -0.0866 -0.0851
  484BOLB   C4C11612  17.602  22.503  33.671  0.0958  0.2716 -0.2383
  484BOLB   C1D11613  17.425  23.641  33.660  0.1053 -0.0454 -0.0616
  484BOLB   C2D11614  17.153  23.295  33.749 -0.1067  0.1556 -0.0161
  484BOLB   C3D11615  17.147  22.822  33.787  0.1997 -0.1218  0.2766
  484BOLB   C4D11616  17.098  22.378  33.792 -0.0615 -0.1531 -0.0767
  485BOLB   NC111617  10.212  10.532  23.763 -0.2364  0.2673  0.0955
  485BOLB   PO111618  10.025  10.193  24.014 -0.1764 -0.1161  0.1915
  485BOLB   GL111619   9.690  10.158  23.756 -0.3054  0.3642  0.3864
  485BOLB   GL211620   9.648   9.963  23.451  0.0637  0.0833  0.0806
  485BOLB   C1A11621   9.433  10.429  23.573 -0.0661 -0.0547  0.1320
  485BOLB   C2A11622   9.176  10.430  23.229  0.0152  0.0323 -0.0403
  485BOLB   C3A11623   9.222  10.416  22.751 -0.0524  0.0937 -0.2599
  485BOLB   C4A11624   8.962  10.206  22.385 -0.2944  0.2462  0.1197
  485BOLB   C1B11625   9.278   9.861  23.147  0.2409 -0.1608 -0.2734
  485BOLB   C2B11626   8.921  10.026  23.052 -0.1815 -0.1483 -0.0987
  485BOLB   C3B11627   8.541  10.299  22.867  0.0213  0.4730  0.1375
  485BOLB   C4B11628   8.154  10.436  22.691  0.3435  0.1696 -0.0657
  485BOLB   NC211629   7.189   9.320  21.283 -0.1051 -0.1146  0.3588
  485BOLB   PO211630   7.532   9.464  20.936  0.1707 -0.0977 -0.0266
  485BOLB   GL311631   7.908   9.521  21.048 -0.1152 -0.1561 -0.1547
  485BOLB   GL411632   7.919   9.480  21.315 -0.1257  0.1533  0.0446
  485BOLB   C1C11633   8.228   9.836  21.208 -0.0013 -0.2276 -0.0735
  485BOLB   C2C11634   8.281   9.868  21.660 -0.3450 -0.0041  0.2605
  485BOLB   C3C11635   8.607   9.930  21.916  0.0451  0.0798 -0.1347
  485BOLB   C4C11636   8.831   9.896  22.102  0.3667  0.2759  0.2799
  485BOLB   C1D11637   8.281   9.390  21.393  0.4127  0.2975 -0.0389
  485BOLB   C2D11638   8.699   9.624  21.413  0.0622  0.2154  0.3252
  485BOLB   C3D11639   9.127   9.897  21.502 -0.2706  0.0751 -0.1561
  485BOLB   C4D11640   9.559   9.742  21.473  0.1541 -0.1849 -0.0183
  486BOLB   NC111641  11.100   7.122  33.002  0.0760 -0.0934  0.2618
  486BOLB   PO111642  10.881   6.734  33.165 -0.2232  0.3784  0.0495
  486BOLB   GL111643  10.648   6.464  33.493  0.1137 -0.1155 -0.1441
  486BOLB   GL211644  10.704   6.110  33.460 -0.0895 -0.3435 -0.0677
  486BOLB   C1A11645  10.240   6.287  33.490 -0.2653  0.0231  0.0223
  486BOLB   C2A11646  10.017   5.976  33.628  0.1214 -0.0498 -0.0643
  486BOLB   C3A11647  10.062   5.529  33.865  0.2473  0.1602 -0.3628
  486BOLB   C4A11648   9.895   5.250  34.150 -0.0839  0.1723 -0.0134
  486BOLB   C1B11649  10.679   5.682  33.398  0.1553  0.2918 -0.0729
  486BOLB   C2B11650  10.520   5.293  33.613  0.2254 -0.0342 -0.2224
  486BOLB   C3B11651  10.613   4.852  33.762  0.2047 -0.2006 -0.2303
  486BOLB   C4B11652  10.641   4.490  34.055  0.1030 -0.2516 -0.0064
  486BOLB   NC211653   7.508   4.750  34.430 -0.0920 -0.1291  0.1795
  486BOLB   PO211654   7.699   4.530  34.698 -0.1421  0.2362 -0.2394
  486BOLB   GL311655   7.952   4.716  34.261 -0.1380 -0.1123 -0.0312
  486BOLB   GL411656   7.890   5.069  34.382 -0.2620 -0.1221 -0.1700
  486BOLB   C1C11657   8.323   4.877  34.185 -0.2594  0.2507 -0.1387
  486BOLB   C2C11658   8.667   5.206  34.390 -0.1471 -0.0590 -0.0699
  486BOLB   C3C11659   9.146   5.181  34.563 -0.0680  0.1885  0.2189
  486BOLB   C4C11660   9.649   5.117  34.479 -0.0855 -0.2084 -0.3123
  486BOLB   C1D11661   7.780   5.526  34.356 -0.0574 -0.3702  0.1064
  486BOLB   C2D11662   7.961   5.943  34.377 -0.0944  0.0766 -0.4738
  486BOLB   C3D11663   8.182   6.356  34.459  0.2378  0.2754 -0.1042
  486BOLB   C4D11664   8.571   6.662  34.426  0.0602  0.3164  0.0254
  487BOLB   NC111665  16.999  16.755  38.172  0.0304  0.3462 -0.1646
  487BOLB   PO111666  16.849  17.115  38.481  0.4243  0.1517 -0.2083
  487BOLB   GL111667  17.063  17.521  38.691 -0.1768  0.1647  0.1575
  487BOLB   GL211668  16.881  17.747  38.754  0.3133  0.1633 -0.1180
  487BOLB   C1A11669  17.274  17.751  39.029 -0.2126  0.1427  0.2161
  487BOLB   C2A11670  17.434  17.835  39.437  0.1399 -0.0357  0.3553
  487BOLB   C3A11671  17.532  18.114  39.696  0.0704 -0.2519 -0.0839
  487BOLB   C4A11672  17.240  18.532  39.476  0.0392  0.1164 -0.2349
  487BOLB   C1B11673  16.923  18.108  38.965 -0.2099  0.1521  0.3668
  487BOLB   C2B11674  16.992  18.063  39.469 -0.1980 -0.1641  0.0910
  487BOLB   C3B11675  16.686  17.883  39.781  0.0373 -0.0826 -0.2217
  487BOLB   C4B11676  16.467  17.769  40.152  0.2437 -0.0835  0.0013
  487BOLB   NC211677  18.247  20.536  40.171  0.2545 -0.0917 -0.1240
  487BOLB   PO211678  17.829  20.527  40.208  0.1427 -0.0268  0.2823
  487BOLB   GL311679  17.700  20.387  39.841 -0.2098 -0.2402 -0.0527
  487BOLB   GL411680  17.410  20.353  39.989 -0.0557  0.1966  0.1294
  487BOLB   C1C11681  17.611  20.125  39.494 -0.1465  0.0428  0.0238
  487BOLB   C2C11682  17.254  19.793  39.384 -0.0373 -0.2390 -0.0723
  487BOLB   C3C11683  17.348  19.358  39.348 -0.1441 -0.0910  0.2064
  487BOLB   C4C11684  17.119  19.008  39.554  0.2734  0.0365 -0.1876
  487BOLB   C1D11685  17.179  20.254  39.746  0.1208  0.3648 -0.2476
  487BOLB   C2D11686  17.239  20.402  39.342 -0.2821 -0.2930 -0.0695
  487BOLB   C3D11687  17.307  20.277  38.951  0.2981  0.1372 -0.1251
  487BOLB   C4D11688  17.711  20.429  38.912 -0.2146  0.4033  0.2153
  488BOLB   NC111689  16.857  20.160  33.686  0.1005  0.0954 -0.0468
  488BOLB   PO111690  16.846  20.253  34.163 -0.1362 -0.0127  0.1102
  488BOLB   GL111691  16.972  20.621  33.901  0.0250 -0.1638 -0.0428
  488BOLB   GL211692  17.186  20.507  33.657  0.1706  0.0446 -0.1013
  488BOLB   C1A11693  16.816  20.965  34.022  0.2129 -0.0769  0.0559
  488BOLB   C2A11694  16.897  21.336  34.144 -0.1964 -0.2484 -0.1152
  488BOLB   C3A11695  16.728  21.678  34.394 -0.4134  0.0693 -0.0643
  488BOLB   C4A11696  16.708  22.024  34.713  0.0081 -0.3635 -0.3193
  488BOLB   C1B11697  17.467  20.810  33.835 -0.1835  0.1268  0.1305
  488BOLB   C2B11698  17.583  21.183  33.990  0.0705 -0.1074 -0.1727
  488BOLB   C3B11699  17.711  21.615  34.127  0.1547  0.1321  0.0783
  488BOLB   C4B11700  18.009  21.889  34.460 -0.2429  0.1479  0.0260
  488BOLB   NC211701  18.241  24.026  35.109  0.4144  0.0503 -0.0703
  488BOLB   PO211702  17.865  24.177  35.404 -0.0492  0.0323  0.1926
  488BOLB   GL311703  17.815  23.767  35.089 -0.3033 -0.1587 -0.3304
  488BOLB   GL411704  18.000  23.666  34.779 -0.2407 -0.2188 -0.3110
  488BOLB   C1C11705  17.568  23.423  34.818 -0.3481 -0.3210  0.0160
  488BOLB   C2C11706  17.130  23.270  34.782 -0.0423 -0.0806 -0.1021
  488BOLB   C3C11707  16.946  22.867  34.790 -0.1267 -0.1349  0.2217
  488BOLB   C4C11708  16.802  22.489  34.719 -0.1875  0.0122 -0.1621
  488BOLB   C1D11709  17.841  23.488  34.418  0.3251  0.3859 -0.0250
  488BOLB   C2D11710  17.991  23.102  34.217  0.1184  0.0890 -0.0535
  488BOLB   C3D11711  18.081  22.676  34.000  0.5168  0.2174  0.0994
  488BOLB   C4D11712  17.965  22.264  34.063  0.0782  0.1037  0.1355
  489BOLB   NC111713  12.980   8.032  37.320  0.0500 -0.1791 -0.0418
  489BOLB   PO111714  13.323   7.725  37.461  0.2072  0.3853  0.0355
  489BOLB   GL111715  13.056   7.507  37.768  0.1760  0.3860  0.2409
  489BOLB   GL211716  12.801   7.660  37.988  0.0744 -0.0234  0.3386
  489BOLB   C1A11717  13.036   7.082  38.118 -0.1397 -0.0834 -0.0849
  489BOLB   C2A11718  13.157   6.655  38.291  0.1613 -0.1295  0.3545
  489BOLB   C3A11719  13.177   6.216  38.368 -0.0349 -0.1361 -0.2303
  489BOLB   C4A11720  13.048   5.848  38.611  0.5313 -0.2279 -0.0395
  489BOLB   C1B11721  12.614   7.262  37.982  0.1007 -0.3235  0.0669
  489BOLB   C2B11722  12.453   6.987  38.269  0.1995  0.2596  0.1585
  489BOLB   C3B11723  12.222   6.928  38.588 -0.2485  0.0415 -0.1151
  489BOLB   C4B11724  11.830   6.896  38.843 -0.0201 -0.3382 -0.0735
  489BOLB   NC211725  11.519   4.530  39.880 -0.1976 -0.0521  0.3522
  489BOLB   PO211726  11.870   4.258  39.997  0.1567  0.1472 -0.1715
  489BOLB   GL311727  12.015   4.640  39.864  0.0031 -0.0152 -0.0910
  489BOLB   GL411728  11.773   4.909  39.661  0.2147 -0.1434  0.1478
  489BOLB   C1C11729  12.394   4.889  39.623  0.3224 -0.3367 -0.1186
  489BOLB   C2C11730  12.322   5.224  39.326  0.0092 -0.1286 -0.0033
  489BOLB   C3C11731  12.620   5.369  39.104 -0.2071  0.1127 -0.0047
  489BOLB   C4C11732  12.943   5.685  38.996  0.3078 -0.0874  0.0317
  489BOLB   C1D11733  11.845   4.579  39.357  0.3324  0.1600  0.0085
  489BOLB   C2D11734  11.626   4.361  39.126  0.1802  0.0433  0.1635
  489BOLB   C3D11735  11.366   4.187  38.825 -0.3320 -0.0186 -0.1096
  489BOLB   C4D11736  11.343   4.046  38.392 -0.1345  0.1961  0.0769
  490BOLB   NC111737  19.551   7.176  22.174  0.1502  0.0423  0.1457
  490BOLB   PO111738  19.928   7.500  22.072 -0.0271  0.0493  0.1465
  490BOLB   GL111739  20.077   7.137  21.959  0.1681 -0.0732 -0.0578
  490BOLB   GL211740  20.282   7.056  22.183 -0.2926  0.0864  0.2331
  490BOLB   C1A11741  20.250   6.866  21.680 -0.1894  0.1696 -0.1381
  490BOLB   C2A11742  20.554   6.770  21.381 -0.0152 -0.1681 -0.4519
  490BOLB   C3A11743  20.787   6.413  21.112  0.1632  0.3256  0.0644
  490BOLB   C4A11744  20.770   5.976  20.937  0.0188  0.0861  0.1838
  490BOLB   C1B11745  20.445   6.644  22.149 -0.0852  0.3450  0.1951
  490BOLB   C2B11746  20.665   6.448  21.845  0.1250  0.0502 -0.1004
  490BOLB   C3B11747  20.908   6.121  21.532  0.3121 -0.2975 -0.0872
  490BOLB   C4B11748  21.215   6.065  21.209 -0.0935  0.1243  0.1237
  490BOLB   NC211749  21.179   3.701  20.082  0.0866 -0.3731 -0.0688
  490BOLB   PO211750  21.278   4.060  20.027 -0.2602 -0.1023  0.1497
  490BOLB   GL311751  20.834   4.290  20.193 -0.1295  0.1037 -0.1710
  490BOLB   GL411752  20.660   4.001  20.264  0.1638 -0.0259 -0.4720
  490BOLB   C1C11753  20.568   4.568  20.420 -0.2577  0.3718 -0.3597
  490BOLB   C2C11754  20.536   4.805  20.682 -0.0485 -0.2311  0.1135
  490BOLB   C3C11755  20.610   5.274  20.865  0.1010  0.1383 -0.0270
  490BOLB   C4C11756  20.775   5.594  20.743 -0.0293  0.0079 -0.3708
  490BOLB   C1D11757  20.823   4.194  20.718  0.0369  0.1845  0.1936
  490BOLB   C2D11758  20.649   4.483  21.015 -0.1165  0.3322 -0.0803
  490BOLB   C3D11759  20.335   4.781  21.115 -0.1097 -0.2015 -0.2244
  490BOLB   C4D11760  20.214   5.272  21.129 -0.1235  0.2974 -0.1358
  491BOLB   NC111761  10.129  19.419  31.413  0.1877  0.0472 -0.2549
  491BOLB   PO111762   9.909  19.807  31.355 -0.1214  0.1448  0.2316
  491BOLB   GL111763   9.492  19.911  31.307 -0.1114  0.2114 -0.2323
  491BOLB   GL211764   9.382  19.986  31.058  0.1432 -0.0812  0.1301
  491BOLB   C1A11765   9.427  20.274  31.527  0.1532 -0.0647 -0.3218
  491BOLB   C2A11766   9.149  20.625  31.617  0.2458 -0.1520 -0.0969
  491BOLB   C3A11767   8.903  20.827  31.865  0.6304 -0.0804  0.0010
  491BOLB   C4A11768   8.602  21.165  32.008  0.2018 -0.3233  0.0022
  491BOLB   C1B11769   9.036  20.272  31.227 -0.3936  0.0635 -0.0605
  491BOLB   C2B11770   8.629  20.501  31.225  0.1772 -0.1584 -0.4074
  491BOLB   C3B11771   8.404  20.781  31.007  0.0045  0.1051  0.2961
  491BOLB   C4B11772   8.032  21.054  31.138  0.0674  0.0658  0.1705
  491BOLB   NC211773   6.781  22.893  33.044 -0.0562 -0.1072  0.3418
  491BOLB   PO211774   7.050  23.005  32.703 -0.2017  0.1082 -0.3055
  491BOLB   GL311775   7.467  22.791  32.745 -0.0322  0.3396 -0.3153
  491BOLB   GL411776   7.542  22.386  32.940  0.0221  0.4571 -0.0087
  491BOLB   C1C11777   7.748  22.605  32.517 -0.2438  0.3430 -0.0566
  491BOLB   C2C11778   7.959  22.249  32.290 -0.4379 -0.0522 -0.0501
  491BOLB   C3C11779   8.160  21.860  32.133  0.2128  0.2814 -0.1924
  491BOLB   C4C11780   8.396  21.447  32.010  0.0295  0.5127  0.0108
  491BOLB   C1D11781   7.860  22.203  32.787  0.0127 -0.4634  0.1001
  491BOLB   C2D11782   8.282  21.966  32.629 -0.0554  0.1339 -0.0825
  491BOLB   C3D11783   8.613  21.664  32.808 -0.4629 -0.0428 -0.1495
  491BOLB   C4D11784   8.992  21.717  33.116  0.1767  0.2688  0.0226
  492BOLB   NC111785  18.914   4.312  28.243  0.0635  0.0769 -0.4473
  492BOLB   PO111786  19.345   4.547  28.073  0.0750  0.1187 -0.0145
  492BOLB   GL111787  19.333   4.120  28.091 -0.0427 -0.0930  0.1759
  492BOLB   GL211788  19.365   4.168  28.402  0.3141 -0.2003  0.0983
  492BOLB   C1A11789  19.683   3.785  28.122 -0.2567 -0.1149  0.1380
  492BOLB   C2A11790  19.992   3.492  27.946  0.1175 -0.1386 -0.0881
  492BOLB   C3A11791  20.087   3.224  27.611 -0.2911 -0.2090  0.0344
  492BOLB   C4A11792  20.137   2.858  27.442 -0.1518 -0.1609 -0.1061
  492BOLB   C1B11793  19.545   3.837  28.629 -0.0480 -0.0536  0.2810
  492BOLB   C2B11794  19.781   3.499  28.483  0.1548 -0.1995  0.1820
  492BOLB   C3B11795  20.050   3.117  28.299 -0.0707  0.0866 -0.0845
  492BOLB   C4B11796  20.396   3.024  28.038 -0.0395  0.3546 -0.1696
  492BOLB   NC211797  20.724   0.988  26.477 -0.1200  0.1359  0.1257
  492BOLB   PO211798  20.351   0.733  26.558 -0.0685  0.0207  0.1204
  492BOLB   GL311799  20.185   1.187  26.572 -0.1391  0.1011 -0.0692
  492BOLB   GL411800  20.373   1.372  26.346 -0.2722 -0.1949 -0.1988
  492BOLB   C1C11801  20.096   1.600  26.730  0.0280 -0.0130 -0.1154
  492BOLB   C2C11802  19.911   1.954  26.675 -0.2452 -0.0671  0.0637
  492BOLB   C3C11803  19.795   2.330  26.995  0.1320 -0.3060  0.3122
  492BOLB   C4C11804  19.915   2.542  27.364  0.2735  0.2852 -0.2886
  492BOLB   C1D11805  20.324   1.743  26.214 -0.1137  0.3694 -0.0989
  492BOLB   C2D11806  20.221   2.115  26.255  0.3157 -0.3828  0.0240
  492BOLB   C3D11807  20.277   2.570  26.325 -0.0526 -0.1967 -0.2223
  492BOLB   C4D11808  20.334   3.026  26.211 -0.0171 -0.1963 -0.0110
  493BOLB   NC111809  12.526  21.057  29.755 -0.0211 -0.1064  0.1666
  493BOLB   PO111810  12.413  21.462  29.615  0.0204 -0.1534 -0.0462
  493BOLB   GL111811  12.822  21.652  29.460  0.1595  0.0307  0.0132
  493BOLB   GL211812  12.917  21.661  29.166 -0.2858 -0.2768  0.0481
  493BOLB   C1A11813  12.898  22.022  29.499  0.0694 -0.0637  0.1252
  493BOLB   C2A11814  13.019  22.337  29.245  0.0310  0.1471  0.3052
  493BOLB   C3A11815  13.263  22.804  29.194  0.3824  0.0581 -0.1361
  493BOLB   C4A11816  13.058  23.123  28.923  0.2615  0.1786 -0.1125
  493BOLB   C1B11817  12.899  21.927  28.992  0.1011  0.0487 -0.0455
  493BOLB   C2B11818  12.618  22.215  28.838 -0.6134 -0.0138 -0.0513
  493BOLB   C3B11819  12.282  22.457  28.763 -0.1666  0.1388 -0.2157
  493BOLB   C4B11820  11.928  22.391  28.643 -0.2793  0.0606  0.0727
  493BOLB   NC211821  12.563  25.481  29.325  0.0402 -0.1477 -0.0046
  493BOLB   PO211822  12.256  25.334  29.035 -0.2912 -0.0530  0.0605
  493BOLB   GL311823  12.130  24.897  29.044 -0.4084 -0.0638  0.3098
  493BOLB   GL411824  11.782  24.868  28.871 -0.3071 -0.4686  0.2926
  493BOLB   C1C11825  12.361  24.459  29.279  0.1746  0.0726  0.0501
  493BOLB   C2C11826  12.716  24.202  29.230  0.0788  0.1158 -0.3258
  493BOLB   C3C11827  12.606  23.765  29.246 -0.0160  0.1245  0.1107
  493BOLB   C4C11828  12.756  23.445  29.118 -0.0254  0.2356  0.2160
  493BOLB   C1D11829  12.072  24.444  28.881  0.1876 -0.1498 -0.1596
  493BOLB   C2D11830  12.178  24.009  29.007 -0.1659  0.1904  0.1147
  493BOLB   C3D11831  12.304  23.549  28.860  0.2606  0.1812  0.2228
  493BOLB   C4D11832  12.297  23.177  29.078 -0.1708  0.1433 -0.0237
  494BOLB   NC111833  16.709   5.167  24.446 -0.0020  0.3278 -0.1008
  494BOLB   PO111834  16.297   5.173  24.235 -0.1390 -0.1355  0.0218
  494BOLB   GL111835  16.409   4.790  24.129  0.2651  0.0750 -0.1546
  494BOLB   GL211836  16.347   4.789  23.804 -0.1271  0.0390  0.0948
  494BOLB   C1A11837  16.650   4.456  24.114 -0.0646 -0.1405  0.1229
  494BOLB   C2A11838  16.807   4.259  23.639 -0.0061  0.0669  0.1411
  494BOLB   C3A11839  17.197   4.307  23.426 -0.0184 -0.0077  0.2360
  494BOLB   C4A11840  17.246   4.094  23.027 -0.0902  0.0091 -0.2573
  494BOLB   C1B11841  16.543   4.567  23.391 -0.2462 -0.3793  0.1394
  494BOLB   C2B11842  16.800   4.343  23.010 -0.0867  0.1210 -0.1473
  494BOLB   C3B11843  16.676   4.095  22.655 -0.1368 -0.0993  0.0486
  494BOLB   C4B11844  16.940   3.758  22.661 -0.0023  0.0412  0.0082
  494BOLB   NC211845  17.711   1.904  21.403 -0.1054  0.3316 -0.0138
  494BOLB   PO211846  18.061   2.069  21.633  0.2860  0.1236 -0.1843
  494BOLB   GL311847  17.774   2.416  21.838  0.1685  0.0862 -0.3247
  494BOLB   GL411848  17.523   2.562  21.701 -0.0240  0.0624 -0.1740
  494BOLB   C1C11849  17.892   2.820  22.076  0.3015 -0.2083  0.2484
  494BOLB   C2C11850  17.764   3.207  22.241  0.2112  0.5533  0.0577
  494BOLB   C3C11851  17.728   3.572  22.385 -0.0278  0.0291  0.2221
  494BOLB   C4C11852  17.476   3.780  22.756  0.0695  0.2519  0.2593
  494BOLB   C1D11853  17.470   2.963  21.794 -0.0438  0.2710  0.0588
  494BOLB   C2D11854  17.413   3.402  21.918 -0.0325 -0.2272 -0.1316
  494BOLB   C3D11855  17.554   3.851  21.819  0.1867  0.0014 -0.0028
  494BOLB   C4D11856  17.803   3.859  21.441 -0.1154 -0.0638 -0.0426
  495BOLB   NC111857  22.135  13.224  26.017  0.0295 -0.1206 -0.2377
  495BOLB   PO111858  22.460  12.968  25.888 -0.0620  0.1651 -0.2316
  495BOLB   GL111859  22.775  13.251  26.062  0.1980  0.3141  0.2432
  495BOLB   GL211860  22.636  13.425  25.726 -0.0193 -0.1747 -0.1101
  495BOLB   C1A11861  23.193  13.469  26.005  0.1268  0.0796 -0.0309
  495BOLB   C2A11862  23.579  13.320  25.998 -0.4759 -0.1459  0.2461
  495BOLB   C3A11863  23.978  13.279  25.888  0.1423 -0.2183 -0.0325
  495BOLB   C4A11864  24.313  13.522  26.022  0.1122 -0.0826  0.1560
  495BOLB   C1B11865  22.929  13.721  25.523 -0.1027  0.0447  0.2463
  495BOLB   C2B11866  23.171  14.139  25.439  0.2675 -0.1307  0.2118
  495BOLB   C3B11867  23.458  14.448  25.304 -0.3021  0.1506 -0.1277
  495BOLB   C4B11868  23.764  14.581  25.440 -0.1384  0.3543  0.4495
  495BOLB   NC211869  26.678  13.880  25.112  0.0867  0.2701 -0.1070
  495BOLB   PO211870  26.227  13.834  24.940 -0.0863 -0.1524  0.3124
  495BOLB   GL311871  25.980  13.873  25.320  0.1873 -0.0650 -0.2772
  495BOLB   GL411872  26.160  13.749  25.506  0.0349 -0.1346 -0.1023
  495BOLB   C1C11873  25.539  13.995  25.292 -0.0458 -0.1204  0.1043
  495BOLB   C2C11874  25.162  14.006  25.273  0.1467  0.0981  0.0192
  495BOLB   C3C11875  24.854  13.931  25.535 -0.3711  0.0968  0.1662
  495BOLB   C4C11876  24.520  13.635  25.758  0.2314 -0.0004 -0.0927
  495BOLB   C1D11877  25.717  13.600  25.573  0.0943 -0.0581  0.1850
  495BOLB   C2D11878  25.384  13.505  25.650  0.0762  0.1440  0.0788
  495BOLB   C3D11879  24.955  13.298  25.738  0.6424 -0.1688 -0.0385
  495BOLB   C4D11880  24.743  12.908  25.893 -0.1796 -0.0512 -0.0260
  496BOLB   NC111881  16.404   6.146  22.467  0.1845 -0.2670  0.2236
  496BOLB   PO111882  15.975   6.171  22.416 -0.4363 -0.0587  0.2350
  496BOLB   GL111883  15.747   5.986  22.158  0.2031 -0.0620  0.0817
  496BOLB   GL211884  15.514   6.030  21.969  0.2895 -0.0952 -0.0097
  496BOLB   C1A11885  15.843   5.500  22.154 -0.0391  0.1729 -0.1122
  496BOLB   C2A11886  16.095   5.119  21.970 -0.1081 -0.2578 -0.2956
  496BOLB   C3A11887  16.023   4.722  21.990 -0.0714  0.2665  0.0332
  496BOLB   C4A11888  15.957   4.279  21.946 -0.0573  0.2359 -0.4575
  496BOLB   C1B11889  15.479   5.917  21.593  0.1657  0.0885  0.3720
  496BOLB   C2B11890  15.683   5.616  21.391  0.0988 -0.3262 -0.3572
  496BOLB   C3B11891  15.896   5.217  21.323 -0.3397  0.1486 -0.1784
  496BOLB   C4B11892  15.994   5.065  21.010  0.4147 -0.2297 -0.2264
  496BOLB   NC211893  15.488   2.098  21.178  0.0937 -0.0430 -0.2171
  496BOLB   PO211894  15.525   2.397  20.843 -0.2326 -0.6564  0.0329
  496BOLB   GL311895  15.380   2.567  21.274 -0.1363 -0.1143 -0.3532
  496BOLB   GL411896  15.049   2.720  21.213  0.0294 -0.5099  0.1124
  496BOLB   C1C11897  15.542   2.856  21.445  0.2196  0.0625  0.4192
  496BOLB   C2C11898  15.464   3.167  21.775 -0.0451  0.2187  0.1152
  496BOLB   C3C11899  15.508   3.503  22.040 -0.2129 -0.3378  0.2295
  496BOLB   C4C11900  15.899   3.852  22.017  0.3598  0.0224  0.1540
  496BOLB   C1D11901  15.129   3.240  21.156  0.0901 -0.3024  0.0223
  496BOLB   C2D11902  15.147   3.533  21.469 -0.3373 -0.0559 -0.0466
  496BOLB   C3D11903  14.934   3.833  21.664 -0.0941  0.1282 -0.2163
  496BOLB   C4D11904  14.893   4.273  21.818  0.0687  0.1163 -0.3427
  497BOLB   NC111905  20.304  14.990  36.549 -0.0986 -0.0460 -0.1956
  497BOLB   PO111906  20.555  15.434  36.650 -0.1393 -0.1654 -0.1198
  497BOLB   GL111907  20.923  15.637  36.868  0.0484 -0.0830  0.0227
  497BOLB   GL211908  21.178  15.819  36.824 -0.1355 -0.0482 -0.2181
  497BOLB   C1A11909  21.174  15.518  37.275  0.1381 -0.4252 -0.2144
  497BOLB   C2A11910  21.605  15.661  37.484 -0.1186  0.1261 -0.0957
  497BOLB   C3A11911  22.093  15.710  37.651  0.2210 -0.0895  0.0068
  497BOLB   C4A11912  22.507  15.906  37.805 -0.0663  0.2019  0.0514
  497BOLB   C1B11913  21.505  15.919  37.021  0.0045 -0.2199 -0.1029
  497BOLB   C2B11914  21.931  16.044  37.250  0.0676 -0.2661  0.0871
  497BOLB   C3B11915  22.082  16.237  37.595  0.0467 -0.0542  0.2435
  497BOLB   C4B11916  21.914  16.181  37.995  0.0677  0.2592  0.2934
  497BOLB   NC211917  24.410  16.083  39.821  0.1444  0.0904  0.1122
  497BOLB   PO211918  24.076  16.239  39.826 -0.1350 -0.2726 -0.2206
  497BOLB   GL311919  23.824  16.107  39.499  0.0484 -0.1638  0.0579
  497BOLB   GL411920  23.914  16.310  39.198 -0.1386 -0.4527  0.3413
  497BOLB   C1C11921  23.512  15.967  39.200  0.1128  0.1029 -0.2566
  497BOLB   C2C11922  23.307  16.002  38.685 -0.2813  0.0234 -0.4271
  497BOLB   C3C11923  23.019  15.812  38.538 -0.1561  0.0696 -0.2368
  497BOLB   C4C11924  22.823  15.741  38.122 -0.0128  0.0305 -0.0765
  497BOLB   C1D11925  23.888  15.893  38.891 -0.0133  0.0358 -0.0868
  497BOLB   C2D11926  23.902  15.931  38.466  0.0755  0.4116  0.1512
  497BOLB   C3D11927  23.894  15.727  38.139 -0.0266  0.1816  0.0436
  497BOLB   C4D11928  23.645  15.442  38.029  0.0343 -0.3666 -0.0224
  498BOLB   NC111929  19.660   7.242  21.661 -0.1910 -0.2959 -0.1932
  498BOLB   PO111930  19.834   7.745  21.585 -0.2059 -0.1101 -0.1301
  498BOLB   GL111931  20.102   7.729  21.257  0.1944 -0.1986 -0.2078
  498BOLB   GL211932  20.319   8.031  21.174 -0.0915  0.1816 -0.0555
  498BOLB   C1A11933  19.978   7.755  20.788 -0.3251 -0.3067 -0.0383
  498BOLB   C2A11934  20.043   7.437  20.508  0.2919 -0.0744 -0.0473
  498BOLB   C3A11935  20.339   7.241  20.181 -0.1843 -0.3720 -0.0264
  498BOLB   C4A11936  20.572   6.888  20.009 -0.1349 -0.0680  0.2833
  498BOLB   C1B11937  20.483   7.882  20.831 -0.0971  0.1095  0.0558
  498BOLB   C2B11938  20.530   7.482  20.582 -0.1014  0.0694  0.0382
  498BOLB   C3B11939  20.730   7.103  20.581  0.2481 -0.0658  0.2025
  498BOLB   C4B11940  20.739   6.655  20.635 -0.4108 -0.0799  0.0903
  498BOLB   NC211941  21.270   5.152  18.823  0.2026  0.1180  0.0505
  498BOLB   PO211942  21.134   5.234  18.471 -0.3673 -0.0405  0.2217
  498BOLB   GL311943  20.907   5.512  18.826 -0.2638  0.1449  0.0491
  498BOLB   GL411944  20.654   5.257  18.932  0.1057 -0.0116  0.0013
  498BOLB   C1C11945  20.882   5.686  19.117 -0.2257 -0.2308  0.0401
  498BOLB   C2C11946  20.783   5.694  19.456 -0.0578  0.0584 -0.1693
  498BOLB   C3C11947  20.784   6.025  19.829 -0.0860 -0.1444  0.1220
  498BOLB   C4C11948  20.831   6.532  19.931 -0.1006  0.1069  0.0203
  498BOLB   C1D11949  20.352   5.630  19.094 -0.3140  0.3304  0.3480
  498BOLB   C2D11950  20.457   6.051  19.105 -0.2241  0.0938  0.2059
  498BOLB   C3D11951  20.373   6.390  19.441 -0.4199 -0.1770 -0.0836
  498BOLB   C4D11952  20.366   6.405  19.816 -0.1879  0.1950  0.3039
  499BOLB   NC111953  12.215   8.144  37.460  0.0556  0.1712  0.3381
  499BOLB   PO111954  12.564   7.987  37.583 -0.0834  0.0766  0.0635
  499BOLB   GL111955  12.323   8.210  37.903 -0.0294 -0.2001  0.0977
  499BOLB   GL211956  11.947   8.048  37.873 -0.0365  0.1890 -0.4450
  499BOLB   C1A11957  12.321   8.012  38.314 -0.0943  0.2668 -0.2789
  499BOLB   C2A11958  12.338   7.830  38.746 -0.1395  0.0201 -0.5284
  499BOLB   C3A11959  12.195   7.741  39.133  0.0562 -0.2211 -0.2695
  499BOLB   C4A11960  11.966   7.773  39.421 -0.1225 -0.1516  0.2478
  499BOLB   C1B11961  11.701   7.816  38.117 -0.0776  0.1555  0.2149
  499BOLB   C2B11962  11.402   7.781  38.462 -0.2856 -0.0800  0.0991
  499BOLB   C3B11963  11.136   7.524  38.761  0.2184  0.0851 -0.0670
  499BOLB   C4B11964  10.974   7.249  39.042  0.1180  0.2936 -0.1481
  499BOLB   NC211965  11.093   6.494  41.319  0.0354 -0.0713  0.0048
  499BOLB   PO211966  11.263   6.028  41.139 -0.1638 -0.1284 -0.1605
  499BOLB   GL311967  11.380   6.169  40.676  0.1224 -0.2702 -0.0969
  499BOLB   GL411968  11.431   6.504  40.807  0.0497 -0.0284  0.3070
  499BOLB   C1C11969  11.300   6.543  40.316  0.2363  0.0424 -0.0894
  499BOLB   C2C11970  11.614   6.858  40.146 -0.0504 -0.4070  0.0268
  499BOLB   C3C11971  11.698   7.295  40.017  0.2338 -0.1755  0.0305
  499BOLB   C4C11972  11.852   7.561  39.799 -0.1393  0.2550  0.1514
  499BOLB   C1D11973  11.858   6.521  40.560 -0.0003  0.1060 -0.2812
  499BOLB   C2D11974  12.161   6.654  40.219  0.0015  0.1758  0.1712
  499BOLB   C3D11975  12.377   6.821  39.938  0.0618  0.4025  0.0476
  499BOLB   C4D11976  12.601   6.925  39.611  0.4269  0.1624 -0.0414
  500BOLB   NC111977  22.436  14.329  36.014 -0.1929 -0.0300  0.0887
  500BOLB   PO111978  22.199  14.195  36.424 -0.5347 -0.0744 -0.1563
  500BOLB   GL111979  22.558  14.389  36.576 -0.0662  0.0645 -0.1060
  500BOLB   GL211980  22.891  14.274  36.689 -0.0973  0.1998 -0.1345
  500BOLB   C1A11981  22.744  14.616  37.027  0.4882 -0.2764  0.0495
  500BOLB   C2A11982  23.089  14.506  37.299 -0.0946 -0.2369 -0.3438
  500BOLB   C3A11983  23.568  14.318  37.263  0.3232 -0.2070 -0.1609
  500BOLB   C4A11984  23.786  13.962  37.412  0.1648 -0.2172 -0.2118
  500BOLB   C1B11985  23.293  14.097  36.908 -0.0861  0.0272 -0.1716
  500BOLB   C2B11986  23.776  14.205  36.796  0.2387  0.1502  0.0440
  500BOLB   C3B11987  24.233  14.031  36.704  0.1777 -0.0061 -0.0829
  500BOLB   C4B11988  24.415  13.818  36.393 -0.2946  0.0247 -0.2331
  500BOLB   NC211989  25.523  12.893  38.914 -0.1363  0.2274 -0.0144
  500BOLB   PO211990  25.082  13.092  39.123  0.1313  0.0458  0.1501
  500BOLB   GL311991  24.799  13.260  38.888  0.1474  0.1108  0.0034
  500BOLB   GL411992  24.930  13.219  38.571  0.0089  0.2719 -0.1755
  500BOLB   C1C11993  24.377  13.437  38.608 -0.0875 -0.0319  0.0575
  500BOLB   C2C11994  24.121  13.323  38.424 -0.0872  0.3681 -0.0838
  500BOLB   C3C11995  23.883  13.429  38.025  0.0631  0.2014 -0.1033
  500BOLB   C4C11996  23.718  13.631  37.632 -0.1079  0.1151  0.2115
  500BOLB   C1D11997  24.541  12.962  38.481 -0.1918 -0.0322  0.1913
  500BOLB   C2D11998  24.266  12.806  38.282  0.0757  0.2968 -0.2197
  500BOLB   C3D11999  23.852  12.846  38.161 -0.0100 -0.0275 -0.2824
  500BOLB   C4D12000  23.421  12.991  38.348  0.1054 -0.4586 -0.2434
  501BOLB   NC112001  20.358  15.774  37.049 -0.1417 -0.1493 -0.1356
  501BOLB   PO112002  20.384  16.204  37.241  0.1575  0.2516  0.2628
  501BOLB   GL112003  20.689  16.459  37.365 -0.1664  0.3314 -0.1513
  501BOLB   GL212004  20.585  16.328  37.716  0.0905  0.0532 -0.1612
  501BOLB   C1A12005  20.944  16.574  37.468 -0.0025 -0.1099 -0.0369
  501BOLB   C2A12006  21.264  16.723  37.849  0.3434  0.1753 -0.0185
  501BOLB   C3A12007  21.481  16.821  38.222 -0.1959  0.0942  0.0718
  501BOLB   C4A12008  21.581  17.132  38.282 -0.1177  0.1009  0.0618
  501BOLB   C1B12009  20.545  16.217  38.143 -0.0023  0.0496  0.0557
  501BOLB   C2B12010  20.809  15.959  38.308 -0.0637 -0.0252  0.2884
  501BOLB   C3B12011  21.335  15.865  38.342  0.1974 -0.1906  0.2550
  501BOLB   C4B12012  21.701  15.907  38.500 -0.4071  0.0855 -0.0263
  501BOLB   NC212013  21.958  19.194  39.585  0.0485  0.1830 -0.0904
  501BOLB   PO212014  22.403  18.946  39.668 -0.0583  0.1780  0.0988
  501BOLB   GL312015  22.133  18.795  39.385 -0.1173  0.2454 -0.2825
  501BOLB   GL412016  22.035  18.965  39.112  0.0872 -0.2953  0.1952
  501BOLB   C1C12017  21.986  18.389  39.308  0.1667 -0.0802 -0.0668
  501BOLB   C2C12018  21.651  18.019  39.135  0.1958 -0.1240 -0.1359
  501BOLB   C3C12019  21.570  17.762  38.779  0.0389 -0.0825  0.2824
  501BOLB   C4C12020  21.348  17.536  38.459 -0.1741 -0.1255 -0.0664
  501BOLB   C1D12021  22.008  18.598  38.885  0.0671 -0.3126 -0.4053
  501BOLB   C2D12022  21.787  18.334  38.752  0.0614 -0.1662 -0.2695
  501BOLB   C3D12023  21.498  18.166  38.397 -0.0185  0.0280 -0.1469
  501BOLB   C4D12024  21.232  17.899  38.110  0.1781 -0.2143 -0.2881
  502BOLB   NC112025  12.282  15.049  38.999 -0.1202  0.2686 -0.1146
  502BOLB   PO112026  12.564  15.055  39.243 -0.0699 -0.0084 -0.0930
  502BOLB   GL112027  12.379  15.253  39.562 -0.1264  0.3238 -0.3431
  502BOLB   GL212028  12.178  15.349  39.392  0.3384  0.0593  0.1330
  502BOLB   C1A12029  12.008  15.079  39.807 -0.0205 -0.1464 -0.1002
  502BOLB   C2A12030  11.877  15.151  40.212  0.2029 -0.1485 -0.1941
  502BOLB   C3A12031  11.959  15.152  40.683 -0.2333  0.1861 -0.1642
  502BOLB   C4A12032  12.213  15.182  41.053  0.0411  0.3687 -0.0140
  502BOLB   C1B12033  11.926  15.666  39.672 -0.0716  0.3904  0.0446
  502BOLB   C2B12034  11.599  15.587  39.974 -0.0912  0.3137 -0.3067
  502BOLB   C3B12035  11.264  15.599  40.117 -0.1949 -0.0285  0.1066
  502BOLB   C4B12036  10.972  15.844  40.418  0.0076  0.1680  0.0874
  502BOLB   NC212037  12.555  15.287  42.889 -0.1923 -0.1204 -0.1244
  502BOLB   PO212038  12.329  15.010  43.068  0.0108  0.0977  0.1334
  502BOLB   GL312039  12.137  14.627  42.860  0.1054  0.0018 -0.0741
  502BOLB   GL412040  12.394  14.389  42.805  0.1543 -0.1087 -0.3017
  502BOLB   C1C12041  11.956  14.679  42.485 -0.1724  0.0777 -0.0262
  502BOLB   C2C12042  11.807  14.638  41.993 -0.0373 -0.1734  0.1226
  502BOLB   C3C12043  11.749  14.837  41.691 -0.1921 -0.0151 -0.3223
  502BOLB   C4C12044  12.063  14.930  41.441 -0.1575  0.0378 -0.2752
  502BOLB   C1D12045  12.495  14.646  42.453  0.0240 -0.2728  0.2782
  502BOLB   C2D12046  12.697  14.401  42.092  0.2656  0.1350 -0.2110
  502BOLB   C3D12047  12.668  14.163  41.758 -0.0051 -0.0065 -0.1994
  502BOLB   C4D12048  12.651  14.053  41.279 -0.4012 -0.1635  0.3147
  503BOLB   NC112049  13.608  20.908  27.611  0.1317  0.1798 -0.2034
  503BOLB   PO112050  13.621  20.958  28.037  0.3432 -0.1391 -0.1816
  503BOLB   GL112051  13.484  21.396  27.875  0.1535 -0.0764 -0.0259
  503BOLB   GL212052  13.166  21.390  27.919  0.0685 -0.0934 -0.0971
  503BOLB   C1A12053  13.524  21.731  27.640 -0.3298 -0.1337  0.0470
  503BOLB   C2A12054  13.727  22.136  27.489  0.0829 -0.2690  0.3615
  503BOLB   C3A12055  14.000  22.532  27.352  0.1162  0.3006 -0.3783
  503BOLB   C4A12056  14.267  22.989  27.256 -0.1395 -0.1792 -0.3278
  503BOLB   C1B12057  13.117  21.885  27.848 -0.0163 -0.2094  0.3530
  503BOLB   C2B12058  13.143  22.211  28.031  0.1547 -0.1196  0.1227
  503BOLB   C3B12059  13.331  22.519  28.263 -0.0047  0.1863  0.2600
  503BOLB   C4B12060  13.402  22.884  28.481  0.2309  0.0252  0.2435
  503BOLB   NC212061  13.902  25.276  27.232 -0.0987 -0.1675 -0.0890
  503BOLB   PO212062  13.520  25.341  27.120 -0.3108  0.0569 -0.0707
  503BOLB   GL312063  13.448  24.939  27.047 -0.4070 -0.1609 -0.0075
  503BOLB   GL412064  13.450  24.686  26.763  0.2006  0.2230 -0.2162
  503BOLB   C1C12065  13.603  24.431  27.195  0.1044  0.1494 -0.0012
  503BOLB   C2C12066  13.823  24.059  27.369 -0.2530  0.0028  0.1002
  503BOLB   C3C12067  14.158  23.683  27.527 -0.0132  0.0122  0.1276
  503BOLB   C4C12068  14.326  23.313  27.499 -0.2749 -0.0764  0.0666
  503BOLB   C1D12069  13.366  24.301  26.780 -0.0582 -0.3830 -0.1998
  503BOLB   C2D12070  13.435  23.867  26.833  0.1360 -0.2230 -0.1407
  503BOLB   C3D12071  13.393  23.444  26.885 -0.2027  0.1423  0.1322
  503BOLB   C4D12072  13.306  23.046  26.992 -0.0558  0.0883  0.2797
  504BOLB   NC112073  11.978  17.106  22.736 -0.0145 -0.1695  0.1851
  504BOLB   PO112074  11.741  17.494  22.691 -0.3167  0.2290  0.2409
  504BOLB   GL112075  11.579  17.530  22.277  0.0867 -0.3355 -0.0514
  504BOLB   GL212076  11.493  17.150  22.130  0.1535 -0.1679  0.2622
  504BOLB   C1A12077  11.583  17.478  21.727 -0.3342  0.1450 -0.0668
  504BOLB   C2A12078  11.509  17.579  21.393 -0.2150  0.2355 -0.2164
  504BOLB   C3A12079  11.687  17.858  21.227  0.0180 -0.1201 -0.2090
  504BOLB   C4A12080  11.690  18.333  21.120 -0.1569 -0.0762 -0.0921
  504BOLB   C1B12081  11.145  17.149  21.872  0.1466 -0.2137  0.0396
  504BOLB   C2B12082  10.725  16.942  21.760  0.0144 -0.2141 -0.1505
  504BOLB   C3B12083  10.373  16.566  21.822  0.2430 -0.3393 -0.2703
  504BOLB   C4B12084  10.315  16.106  21.722  0.1673  0.0444 -0.0421
  504BOLB   NC212085  10.501  18.936  19.099  0.1441 -0.2847  0.0914
  504BOLB   PO212086  10.077  18.902  19.337  0.0080  0.0345 -0.0517
  504BOLB   GL312087  10.296  18.668  19.590 -0.0715 -0.3275  0.3948
  504BOLB   GL412088  10.240  18.328  19.448  0.3406  0.0150  0.0218
  504BOLB   C1C12089  10.691  18.659  19.646 -0.0407  0.2596  0.0430
  504BOLB   C2C12090  10.929  18.550  20.000  0.2528  0.4052 -0.4101
  504BOLB   C3C12091  11.226  18.467  20.392 -0.2734  0.0775  0.2485
  504BOLB   C4C12092  11.565  18.575  20.676  0.1434  0.1853 -0.1208
  504BOLB   C1D12093  10.327  18.032  19.758  0.3060 -0.3343 -0.1029
  504BOLB   C2D12094  10.257  17.976  20.170  0.0607 -0.1215 -0.0216
  504BOLB   C3D12095  10.441  17.821  20.507  0.0401  0.4931 -0.0231
  504BOLB   C4D12096  10.795  17.646  20.726 -0.0232  0.2938 -0.0773
  505BOLB   NC112097  22.792   7.946  30.377  0.0914  0.2382  0.0727
  505BOLB   PO112098  22.927   8.274  30.665  0.0355 -0.4348 -0.0712
  505BOLB   GL112099  23.227   8.169  30.538 -0.2448 -0.1346  0.1586
  505BOLB   GL212100  23.258   7.821  30.309  0.3219 -0.0019  0.1399
  505BOLB   C1A12101  23.677   8.093  30.487 -0.0327 -0.0508  0.0302
  505BOLB   C2A12102  24.063   8.137  30.721  0.4490  0.3734 -0.0607
  505BOLB   C3A12103  24.297   7.870  30.967  0.2052  0.0829 -0.1065
  505BOLB   C4A12104  24.507   7.544  31.248  0.1842 -0.1435  0.1932
  505BOLB   C1B12105  23.598   7.458  30.185 -0.2741  0.2177 -0.0035
  505BOLB   C2B12106  23.970   7.355  30.109  0.1150  0.0207  0.0819
  505BOLB   C3B12107  24.311   7.171  29.841 -0.1102 -0.3164  0.3056
  505BOLB   C4B12108  24.605   7.000  29.528 -0.4858  0.0159  0.1928
  505BOLB   NC212109  26.827   5.988  31.949  0.3378 -0.5430 -0.0501
  505BOLB   PO212110  26.322   6.048  32.239 -0.1158  0.0836  0.1151
  505BOLB   GL312111  26.081   6.270  31.917 -0.0982 -0.4136  0.0930
  505BOLB   GL412112  25.954   5.960  31.743  0.2429 -0.1162 -0.1612
  505BOLB   C1C12113  25.659   6.325  31.954  0.5750  0.1634  0.1958
  505BOLB   C2C12114  25.370   6.673  31.582  0.0197  0.2803 -0.3128
  505BOLB   C3C12115  25.076   6.962  31.385  0.2320 -0.0790  0.2905
  505BOLB   C4C12116  24.717   7.197  31.481  0.0645  0.3434  0.1309
  505BOLB   C1D12117  25.493   6.089  31.542  0.1649  0.1212  0.0415
  505BOLB   C2D12118  25.153   6.176  31.592  0.1054  0.3474 -0.2630
  505BOLB   C3D12119  24.713   6.206  31.466 -0.1225  0.1977 -0.0274
  505BOLB   C4D12120  24.470   6.402  31.817 -0.2233 -0.0806  0.2106
  506BOLB   NC112121  23.878   9.240  17.186  0.0530  0.2766  0.1141
  506BOLB   PO112122  23.523   9.343  17.258  0.1027  0.1828  0.2845
  506BOLB   GL112123  23.132   9.453  17.495 -0.4433 -0.0506 -0.0137
  506BOLB   GL212124  22.835   9.444  17.286 -0.1059  0.0185 -0.1741
  506BOLB   C1A12125  22.905   9.727  17.745  0.0981  0.1477  0.0134
  506BOLB   C2A12126  22.571   9.699  17.979  0.0451  0.0030 -0.0537
  506BOLB   C3A12127  22.212   9.801  18.207  0.0465 -0.0859 -0.2662
  506BOLB   C4A12128  22.019   9.522  18.538  0.0636 -0.0655 -0.3694
  506BOLB   C1B12129  22.520   9.048  17.293 -0.2526 -0.3608  0.2167
  506BOLB   C2B12130  22.153   9.056  17.352 -0.0823  0.0377  0.2630
  506BOLB   C3B12131  22.037   8.815  17.532 -0.2497 -0.1064 -0.2422
  506BOLB   C4B12132  21.761   8.861  17.837  0.1386 -0.2376 -0.0860
  506BOLB   NC212133  24.153   7.974  18.323  0.1739 -0.0704  0.2714
  506BOLB   PO212134  23.701   7.881  18.463  0.0861  0.0383 -0.1018
  506BOLB   GL312135  23.291   8.169  18.254  0.1490  0.1847 -0.2629
  506BOLB   GL412136  23.422   8.316  18.509 -0.1308  0.3013 -0.1078
  506BOLB   C1C12137  22.915   8.384  18.080 -0.1132  0.0188 -0.0638
  506BOLB   C2C12138  22.512   8.498  17.901  0.3408 -0.1692  0.0552
  506BOLB   C3C12139  22.249   8.843  17.994  0.0793 -0.0681 -0.2291
  506BOLB   C4C12140  22.008   9.123  18.293 -0.4293 -0.2382  0.0812
  506BOLB   C1D12141  23.573   8.712  18.754 -0.2758 -0.0473  0.1299
  506BOLB   C2D12142  23.330   9.144  19.023  0.0623 -0.1113  0.0801
  506BOLB   C3D12143  23.201   9.436  19.309  0.1736 -0.0013 -0.0720
  506BOLB   C4D12144  23.022   9.766  19.591  0.1334  0.0471 -0.0746
  507BOLB   NC112145   8.277  10.032  28.613 -0.2123  0.1983  0.0172
  507BOLB   PO112146   7.962  10.004  28.351 -0.1986 -0.4928 -0.1327
  507BOLB   GL112147   7.570  10.007  28.186  0.0021  0.2770  0.0692
  507BOLB   GL212148   7.509  10.243  27.849 -0.1208 -0.1084 -0.1137
  507BOLB   C1A12149   7.208   9.904  27.952  0.1584  0.2540 -0.0869
  507BOLB   C2A12150   6.961   9.754  27.568 -0.0346 -0.1351  0.2334
  507BOLB   C3A12151   6.833   9.336  27.447 -0.2388 -0.0878  0.2192
  507BOLB   C4A12152   7.022   8.988  27.353  0.1538 -0.3161 -0.0423
  507BOLB   C1B12153   7.134  10.578  27.758  0.0999  0.1213 -0.2890
  507BOLB   C2B12154   6.758  10.867  27.703  0.1492  0.0803 -0.1929
  507BOLB   C3B12155   6.758  11.311  27.571  0.0563 -0.2275  0.1845
  507BOLB   C4B12156   6.610  11.746  27.613 -0.1763  0.1521 -0.1307
  507BOLB   NC212157   5.433   6.950  26.882 -0.2595  0.0979  0.2199
  507BOLB   PO212158   5.697   6.901  26.545 -0.1219  0.0718  0.1282
  507BOLB   GL312159   6.078   7.236  26.525 -0.0872  0.0164  0.2297
  507BOLB   GL412160   6.385   7.176  26.333  0.1066 -0.2049  0.3134
  507BOLB   C1C12161   6.377   7.645  26.708 -0.0319  0.2689 -0.0404
  507BOLB   C2C12162   6.543   7.978  26.735 -0.1413  0.1384  0.2526
  507BOLB   C3C12163   6.798   8.399  26.844 -0.2875 -0.0955 -0.1669
  507BOLB   C4C12164   6.921   8.791  27.068 -0.0363  0.3678 -0.1395
  507BOLB   C1D12165   6.729   7.283  26.653 -0.2676 -0.1493  0.3727
  507BOLB   C2D12166   6.982   7.548  26.830 -0.0643 -0.0555  0.0113
  507BOLB   C3D12167   7.117   7.950  26.759  0.2487 -0.0934 -0.2486
  507BOLB   C4D12168   7.495   8.341  26.889  0.5355  0.2127  0.2852
  508BOLB   NC112169  19.054   5.521  25.045  0.1055 -0.2189  0.0026
  508BOLB   PO112170  19.259   5.183  25.229  0.3910 -0.1051 -0.1290
  508BOLB   GL112171  19.496   4.905  25.108  0.5375  0.0196  0.1931
  508BOLB   GL212172  19.424   4.833  24.844  0.1095 -0.4120  0.0147
  508BOLB   C1A12173  19.605   4.497  25.262  0.0362  0.0466  0.0861
  508BOLB   C2A12174  19.854   4.120  25.133  0.3254  0.0749  0.1964
  508BOLB   C3A12175  19.984   3.765  25.330  0.0845  0.3475  0.2853
  508BOLB   C4A12176  19.989   3.337  25.418 -0.1302 -0.0976 -0.3064
  508BOLB   C1B12177  19.595   4.516  24.795 -0.1167 -0.1873 -0.1087
  508BOLB   C2B12178  20.019   4.282  24.684 -0.0521 -0.0586 -0.2094
  508BOLB   C3B12179  19.956   3.845  24.635  0.0915  0.0315 -0.2750
  508BOLB   C4B12180  20.051   3.507  24.856  0.1201 -0.0783 -0.2284
  508BOLB   NC212181  20.067   1.114  25.469 -0.0153  0.0101  0.4482
  508BOLB   PO212182  20.169   1.188  25.875 -0.0875 -0.3119  0.0845
  508BOLB   GL312183  20.489   1.556  25.792 -0.1130  0.1112  0.3916
  508BOLB   GL412184  20.300   1.587  25.446 -0.4529 -0.0366  0.1665
  508BOLB   C1C12185  20.549   2.021  25.829  0.1535 -0.0917 -0.1001
  508BOLB   C2C12186  20.479   2.482  25.745  0.3062  0.0718 -0.4710
  508BOLB   C3C12187  20.285   2.755  25.800  0.1284  0.1077  0.5230
  508BOLB   C4C12188  20.332   3.124  25.551 -0.0611 -0.0145  0.2278
  508BOLB   C1D12189  20.368   1.929  25.317 -0.2742  0.2024 -0.0659
  508BOLB   C2D12190  20.245   2.327  25.264  0.1546  0.0474  0.2265
  508BOLB   C3D12191  20.056   2.677  25.351  0.1895 -0.3594  0.1355
  508BOLB   C4D12192  19.757   2.919  25.523 -0.3566  0.0359 -0.1446
  509BOLB   NC112193  21.097  17.924  33.102  0.0491  0.0751  0.0905
  509BOLB   PO112194  21.128  18.149  33.577  0.3284 -0.3425  0.2607
  509BOLB   GL112195  21.521  18.217  33.347 -0.0105  0.1096 -0.2153
  509BOLB   GL212196  21.638  18.042  33.075  0.1129 -0.3365 -0.0148
  509BOLB   C1A12197  21.756  18.710  33.377 -0.3063  0.4591  0.1157
  509BOLB   C2A12198  21.964  18.949  33.624  0.0053 -0.0615  0.3262
  509BOLB   C3A12199  22.172  18.986  34.068  0.0840  0.0452 -0.1375
  509BOLB   C4A12200  22.334  19.129  34.348 -0.1272  0.1607  0.1977
  509BOLB   C1B12201  22.083  18.176  33.075  0.0825 -0.3191 -0.2060
  509BOLB   C2B12202  22.447  18.357  32.848 -0.1340 -0.0293  0.0232
  509BOLB   C3B12203  22.346  18.840  32.762  0.0016  0.0804 -0.2243
  509BOLB   C4B12204  22.461  19.104  32.430  0.4708 -0.3393  0.0877
  509BOLB   NC212205  24.288  20.330  35.744  0.0802  0.0919  0.0709
  509BOLB   PO212206  23.850  20.528  35.903  0.1910  0.4032  0.2589
  509BOLB   GL312207  23.710  20.279  35.584  0.1472 -0.4138  0.0046
  509BOLB   GL412208  23.603  20.043  35.730 -0.0007 -0.1547 -0.1270
  509BOLB   C1C12209  23.570  20.035  35.161 -0.2095 -0.1669  0.2574
  509BOLB   C2C12210  23.269  19.889  34.902  0.2331  0.2310  0.1223
  509BOLB   C3C12211  22.910  19.675  34.695  0.0215 -0.3127  0.2509
  509BOLB   C4C12212  22.585  19.453  34.516  0.1141  0.0097  0.3945
  509BOLB   C1D12213  23.546  19.705  35.933  0.1991  0.3612 -0.2666
  509BOLB   C2D12214  23.172  19.495  36.041  0.0859  0.2134  0.0003
  509BOLB   C3D12215  22.980  18.976  36.079 -0.5356 -0.0309 -0.0348
  509BOLB   C4D12216  22.973  18.550  36.257  0.2963  0.1911 -0.0489
  510BOLB   NC112217   8.185  14.799  28.911 -0.0363  0.0243  0.2272
  510BOLB   PO112218   7.685  14.769  28.779 -0.1987 -0.1553 -0.0287
  510BOLB   GL112219   7.323  14.926  29.066  0.1292 -0.1361  0.0477
  510BOLB   GL212220   7.344  14.827  29.282 -0.1899  0.0328 -0.0550
  510BOLB   C1A12221   6.881  15.261  28.894 -0.3224  0.0437 -0.1048
  510BOLB   C2A12222   6.562  15.403  28.589 -0.0455  0.1828  0.0052
  510BOLB   C3A12223   6.354  15.509  28.245 -0.1937 -0.2125 -0.0190
  510BOLB   C4A12224   6.018  15.395  28.059  0.1117  0.0291  0.1998
  510BOLB   C1B12225   7.139  15.301  29.352 -0.0036  0.0482  0.1865
  510BOLB   C2B12226   6.871  15.494  29.432  0.2934 -0.2490 -0.0151
  510BOLB   C3B12227   6.456  15.565  29.119 -0.2287  0.0899  0.1392
  510BOLB   C4B12228   6.009  15.834  29.141  0.0628  0.0198  0.2001
  510BOLB   NC212229   3.491  15.145  28.226 -0.0959 -0.1524 -0.3549
  510BOLB   PO212230   3.630  15.321  28.534 -0.1893  0.0520 -0.0786
  510BOLB   GL312231   4.038  15.294  28.252  0.1852 -0.0176 -0.0960
  510BOLB   GL412232   4.083  14.977  28.061 -0.2598 -0.2329 -0.2088
  510BOLB   C1C12233   4.457  15.248  28.247  0.2169 -0.1335  0.2087
  510BOLB   C2C12234   4.914  15.125  28.166  0.1529 -0.2220 -0.0924
  510BOLB   C3C12235   5.294  14.969  28.208 -0.2249  0.4274 -0.1279
  510BOLB   C4C12236   5.732  15.100  27.958 -0.1831  0.0708 -0.0455
  510BOLB   C1D12237   4.478  14.850  28.033 -0.3427 -0.0138  0.0483
  510BOLB   C2D12238   4.862  14.558  28.186 -0.0917  0.3004  0.3620
  510BOLB   C3D12239   5.290  14.460  28.393  0.2573  0.0484  0.0190
  510BOLB   C4D12240   5.650  14.194  28.462  0.2728 -0.0388  0.2136
  511BOLB   NC112241  11.463   9.265  37.261  0.0003  0.3134 -0.3610
  511BOLB   PO112242  11.192   9.601  37.409 -0.1333  0.0670  0.1903
  511BOLB   GL112243  10.926   9.361  37.658  0.0922 -0.2628  0.5795
  511BOLB   GL212244  10.744   9.469  37.994 -0.0584 -0.1912 -0.2049
  511BOLB   C1A12245  10.824   8.962  37.848  0.1838  0.0576  0.1386
  511BOLB   C2A12246  10.703   9.060  38.285 -0.1740  0.0606  0.1323
  511BOLB   C3A12247  10.552   8.959  38.657 -0.0787  0.1311  0.1308
  511BOLB   C4A12248  10.063   8.979  38.827  0.4331  0.0255  0.0311
  511BOLB   C1B12249  10.395   9.455  38.210 -0.0883 -0.0364  0.1587
  511BOLB   C2B12250   9.998   9.528  38.504 -0.1029 -0.1227 -0.2218
  511BOLB   C3B12251   9.831   9.529  38.915 -0.0719 -0.3960  0.0694
  511BOLB   C4B12252   9.639   9.819  39.165 -0.0910  0.0135 -0.3346
  511BOLB   NC212253   8.720   7.808  40.539 -0.3261  0.0286  0.0889
  511BOLB   PO212254   8.732   8.211  40.528 -0.0397  0.0148 -0.1951
  511BOLB   GL312255   8.602   8.532  40.167  0.1327 -0.1053 -0.0609
  511BOLB   GL412256   8.397   8.887  40.270  0.2407  0.0716  0.4799
  511BOLB   C1C12257   8.680   8.684  39.770 -0.3290 -0.2442  0.1941
  511BOLB   C2C12258   8.909   8.844  39.398 -0.0454 -0.0445 -0.1118
  511BOLB   C3C12259   9.251   8.860  39.102  0.1805  0.2878 -0.1008
  511BOLB   C4C12260   9.678   8.920  38.972 -0.2053 -0.2205 -0.2044
  511BOLB   C1D12261   8.724   9.146  40.083 -0.0907  0.0554 -0.1498
  511BOLB   C2D12262   9.039   9.342  39.880  0.0667  0.3646 -0.2247
  511BOLB   C3D12263   8.937   9.365  39.397 -0.0176 -0.2584 -0.1001
  511BOLB   C4D12264   9.040   9.263  38.964 -0.0526  0.0654  0.0479
  512BOLB   NC112265  15.507   5.372  35.300 -0.0157  0.0652  0.1974
  512BOLB   PO112266  15.794   5.497  35.639  0.1020 -0.1342  0.1171
  512BOLB   GL112267  15.804   5.071  35.673  0.0734 -0.1715 -0.2538
  512BOLB   GL212268  15.462   5.001  35.772  0.2847  0.2312  0.1635
  512BOLB   C1A12269  15.823   4.663  35.806  0.1062 -0.1066  0.3842
  512BOLB   C2A12270  15.769   4.400  35.995 -0.1005  0.2492 -0.0043
  512BOLB   C3A12271  15.772   4.107  36.155  0.0092  0.1040  0.1723
  512BOLB   C4A12272  15.885   3.818  36.511  0.0155  0.2540  0.0932
  512BOLB   C1B12273  15.558   4.842  36.147  0.0420  0.2225  0.1759
  512BOLB   C2B12274  15.421   4.538  36.474 -0.0845 -0.1219 -0.1945
  512BOLB   C3B12275  15.587   4.161  36.712 -0.2039  0.1852 -0.2362
  512BOLB   C4B12276  15.400   4.047  37.164  0.1104 -0.1921 -0.1680
  512BOLB   NC212277  16.050   2.640  38.494  0.3198 -0.3416 -0.0019
  512BOLB   PO212278  15.831   2.846  38.830 -0.6525  0.2188 -0.1320
  512BOLB   GL312279  15.976   3.195  38.452  0.2957  0.1639 -0.0558
  512BOLB   GL412280  15.966   3.468  38.490  0.0387 -0.0902 -0.1700
  512BOLB   C1C12281  15.954   3.417  38.035 -0.0261 -0.1185 -0.0492
  512BOLB   C2C12282  16.013   3.531  37.570 -0.0063  0.3355 -0.0216
  512BOLB   C3C12283  16.161   3.475  37.170 -0.2152 -0.0365 -0.0429
  512BOLB   C4C12284  16.189   3.573  36.743  0.1680  0.3250 -0.1177
  512BOLB   C1D12285  15.648   3.672  38.335 -0.3463  0.1086 -0.1317
  512BOLB   C2D12286  15.592   4.005  38.069 -0.5394 -0.0637  0.1350
  512BOLB   C3D12287  15.675   4.359  38.162 -0.3069 -0.3883  0.3716
  512BOLB   C4D12288  15.515   4.699  38.172 -0.0141  0.2234  0.0564
  513BOLB   NC112289  16.921  15.054  39.384  0.0193 -0.2251  0.2993
  513BOLB   PO112290  17.218  14.696  39.314  0.0722  0.0432  0.2725
  513BOLB   GL112291  17.184  14.749  39.745  0.0533  0.3377 -0.0814
  513BOLB   GL212292  17.196  15.042  39.906 -0.1115 -0.0250 -0.3628
  513BOLB   C1A12293  17.153  14.651  40.193 -0.0111  0.0308 -0.2933
  513BOLB   C2A12294  16.991  14.754  40.610  0.0476  0.2630 -0.0680
  513BOLB   C3A12295  17.051  14.737  41.021  0.1283 -0.1248  0.3303
  513BOLB   C4A12296  17.169  15.026  41.443 -0.2177  0.2013 -0.1166
  513BOLB   C1B12297  17.515  14.958  40.180  0.3320  0.3382 -0.1169
  513BOLB   C2B12298  17.581  14.937  40.606  0.2234 -0.3451 -0.2203
  513BOLB   C3B12299  17.742  15.199  40.740 -0.1832  0.1626 -0.0037
  513BOLB   C4B12300  17.778  15.630  40.734 -0.0150  0.0092 -0.0392
  513BOLB   NC212301  19.102  15.835  43.695 -0.1479 -0.1660  0.1110
  513BOLB   PO212302  18.970  15.785  43.254 -0.0314  0.0298 -0.0092
  513BOLB   GL312303  18.739  15.778  42.868 -0.0574  0.1096 -0.1613
  513BOLB   GL412304  18.464  15.849  42.919 -0.0901 -0.3875 -0.2225
  513BOLB   C1C12305  18.471  15.441  42.614 -0.0273  0.0867 -0.4111
  513BOLB   C2C12306  18.288  15.187  42.392  0.0594  0.0739  0.3425
  513BOLB   C3C12307  17.927  15.156  41.921  0.0823  0.0451  0.1946
  513BOLB   C4C12308  17.519  15.154  41.699 -0.0385 -0.0962  0.1555
  513BOLB   C1D12309  18.179  16.039  42.645 -0.1905  0.4129  0.1108
  513BOLB   C2D12310  18.197  16.281  42.261  0.0716 -0.0197  0.0673
  513BOLB   C3D12311  18.081  16.242  41.771  0.1607 -0.1129 -0.2801
  513BOLB   C4D12312  18.212  15.965  41.328 -0.1610  0.3094  0.0251
  514BOLB   NC112313  22.353   7.153  27.644  0.0881  0.0623  0.1045
  514BOLB   PO112314  22.328   6.712  27.527  0.2470  0.2186 -0.0196
  514BOLB   GL112315  22.730   6.554  27.738 -0.4423 -0.1224  0.1911
  514BOLB   GL212316  22.618   6.247  27.848  0.0950 -0.0427  0.1734
  514BOLB   C1A12317  23.112   6.364  27.590 -0.2333 -0.0663  0.0959
  514BOLB   C2A12318  23.481   6.337  27.509  0.0437 -0.0266  0.3768
  514BOLB   C3A12319  23.862   6.236  27.855 -0.1498  0.1593  0.2291
  514BOLB   C4A12320  24.320   6.060  27.820 -0.0975 -0.0014  0.1050
  514BOLB   C1B12321  22.955   5.943  27.725 -0.2795  0.3233  0.0948
  514BOLB   C2B12322  23.272   5.757  27.488 -0.3394  0.1700 -0.0445
  514BOLB   C3B12323  23.661   5.808  27.525  0.2666  0.0246 -0.0117
  514BOLB   C4B12324  23.992   6.021  27.417 -0.1476  0.1226 -0.1359
  514BOLB   NC212325  25.912   5.296  26.660 -0.2621  0.1000 -0.1153
  514BOLB   PO212326  26.397   5.344  26.689 -0.0568  0.2077  0.2787
  514BOLB   GL312327  26.069   5.678  26.837 -0.3957  0.0587  0.2631
  514BOLB   GL412328  25.863   5.562  27.098  0.1787  0.2994  0.1916
  514BOLB   C1C12329  25.700   5.957  26.884 -0.1049 -0.0873  0.0547
  514BOLB   C2C12330  25.258   5.832  26.786  0.0636 -0.1516  0.0266
  514BOLB   C3C12331  24.944   5.815  27.138  0.2950 -0.0515  0.1784
  514BOLB   C4C12332  24.635   6.050  27.445  0.1958  0.0092 -0.0455
  514BOLB   C1D12333  25.540   5.771  27.317 -0.3155  0.3885  0.1310
  514BOLB   C2D12334  25.375   6.036  27.663  0.1070 -0.0677  0.1745
  514BOLB   C3D12335  25.161   6.276  27.815 -0.1694 -0.0801 -0.2682
  514BOLB   C4D12336  24.717   6.502  27.874  0.0188 -0.1630  0.1389
  515BOLB   NC112337  10.399   7.336  30.071  0.0983 -0.0429 -0.0027
  515BOLB   PO112338  10.104   7.154  30.287  0.0539  0.2233 -0.0962
  515BOLB   GL112339   9.601   7.089  30.176  0.2766 -0.0591  0.0578
  515BOLB   GL212340   9.328   7.057  30.389 -0.0336  0.0891  0.1611
  515BOLB   C1A12341   9.213   6.964  29.914 -0.2388  0.0739 -0.0551
  515BOLB   C2A12342   8.772   6.987  29.907 -0.1050 -0.1240  0.1764
  515BOLB   C3A12343   8.340   6.949  29.973 -0.0961 -0.3318  0.1195
  515BOLB   C4A12344   7.833   7.036  30.151 -0.1702 -0.3232 -0.0157
  515BOLB   C1B12345   8.986   6.816  30.353  0.2509 -0.0028  0.1898
  515BOLB   C2B12346   8.601   6.546  30.333 -0.1348 -0.1458  0.0217
  515BOLB   C3B12347   8.292   6.460  30.020  0.0910 -0.1781  0.1203
  515BOLB   C4B12348   7.979   6.654  29.812 -0.2484  0.1945 -0.1066
  515BOLB   NC212349   5.566   5.943  29.547 -0.4671  0.0472  0.1618
  515BOLB   PO212350   5.878   5.744  29.867 -0.2469 -0.2303  0.2162
  515BOLB   GL312351   6.136   6.080  29.853 -0.1751  0.1623  0.0151
  515BOLB   GL412352   5.947   6.263  29.616  0.1258  0.0054  0.0986
  515BOLB   C1C12353   6.589   6.150  29.820  0.0683  0.1367  0.1363
  515BOLB   C2C12354   6.835   6.429  29.614  0.1957  0.0310 -0.0828
  515BOLB   C3C12355   7.220   6.668  29.642 -0.0717  0.2468 -0.2287
  515BOLB   C4C12356   7.466   6.959  29.950 -0.1435 -0.0990 -0.2653
  515BOLB   C1D12357   6.267   6.518  29.692  0.1595 -0.3610 -0.0022
  515BOLB   C2D12358   6.611   6.838  29.617  0.1542 -0.0547  0.1667
  515BOLB   C3D12359   6.934   7.195  29.741  0.0122 -0.2513 -0.1107
  515BOLB   C4D12360   7.321   7.389  29.560 -0.1007  0.4010 -0.0455
  516BOLB   NC112361  18.508   8.141  38.272 -0.0783  0.0385 -0.0207
  516BOLB   PO112362  18.537   8.576  38.457  0.0935  0.0370 -0.0098
  516BOLB   GL112363  18.649   8.264  38.740  0.0105  0.0263 -0.0742
  516BOLB   GL212364  18.665   7.992  38.696  0.2536 -0.2457 -0.2892
  516BOLB   C1A12365  18.782   8.216  39.153  0.0264  0.0531 -0.0324
  516BOLB   C2A12366  18.820   7.959  39.479  0.2013 -0.1674 -0.1208
  516BOLB   C3A12367  19.007   7.684  39.656 -0.0269  0.3383  0.1561
  516BOLB   C4A12368  19.131   7.692  40.152 -0.1289 -0.0118  0.1894
  516BOLB   C1B12369  18.651   7.672  39.035  0.2566 -0.0527  0.2183
  516BOLB   C2B12370  18.582   7.438  39.389 -0.0650  0.0981 -0.1696
  516BOLB   C3B12371  18.656   7.165  39.793  0.1590 -0.2493  0.2977
  516BOLB   C4B12372  18.426   7.081  40.153 -0.0457 -0.1287  0.0584
  516BOLB   NC212373  19.843   6.001  42.099  0.1561 -0.2742 -0.2692
  516BOLB   PO212374  19.558   6.306  41.879  0.1258  0.0298  0.0884
  516BOLB   GL312375  19.270   6.594  41.869  0.1758 -0.0318 -0.1789
  516BOLB   GL412376  19.114   6.514  41.620 -0.2668  0.1222 -0.0308
  516BOLB   C1C12377  19.295   7.006  41.705  0.0858  0.1225 -0.0413
  516BOLB   C2C12378  19.383   7.208  41.293 -0.1929 -0.1235  0.0519
  516BOLB   C3C12379  19.203   7.374  40.928  0.0091  0.2319  0.1318
  516BOLB   C4C12380  19.311   7.561  40.542  0.2207  0.2342  0.0818
  516BOLB   C1D12381  19.470   6.570  41.317  0.3000  0.0364 -0.0495
  516BOLB   C2D12382  19.320   6.829  40.929  0.4518 -0.4598  0.0586
  516BOLB   C3D12383  19.101   7.032  40.633 -0.3117  0.0311  0.0952
  516BOLB   C4D12384  18.937   7.221  40.250  0.4253 -0.0799 -0.3359
  517BOLB   NC112385  19.773  14.296  38.106 -0.1326  0.0399  0.2251
  517BOLB   PO112386  19.828  14.769  38.226 -0.1942  0.0358  0.1097
  517BOLB   GL112387  20.145  14.606  38.290 -0.0296 -0.1274 -0.0302
  517BOLB   GL212388  20.169  14.459  38.601 -0.1393  0.0204  0.3662
  517BOLB   C1A12389  20.566  14.791  38.460 -0.4488 -0.1965 -0.1474
  517BOLB   C2A12390  20.904  14.988  38.796 -0.4084  0.1766  0.1001
  517BOLB   C3A12391  20.947  14.972  39.317  0.0795  0.1652 -0.3086
  517BOLB   C4A12392  21.091  15.327  39.497 -0.1266 -0.2879 -0.6061
  517BOLB   C1B12393  20.222  14.738  38.900  0.5165 -0.0955 -0.1844
  517BOLB   C2B12394  20.331  14.699  39.344  0.3008 -0.1209  0.1397
  517BOLB   C3B12395  20.479  14.806  39.731 -0.1612  0.0921  0.1903
  517BOLB   C4B12396  20.500  14.894  40.066 -0.0549  0.0057  0.0452
  517BOLB   NC212397  21.769  17.160  41.320  0.0175  0.1216  0.1417
  517BOLB   PO212398  21.742  16.682  41.195 -0.0654  0.0714  0.0434
  517BOLB   GL312399  21.794  16.652  40.867 -0.0083  0.1648  0.0914
  517BOLB   GL412400  21.544  16.904  40.767 -0.3014  0.0054  0.1200
  517BOLB   C1C12401  21.825  16.492  40.470 -0.2057 -0.0230 -0.1655
  517BOLB   C2C12402  21.790  16.270  40.121 -0.4771  0.0499 -0.1957
  517BOLB   C3C12403  21.466  16.209  39.706 -0.0226 -0.1089 -0.0109
  517BOLB   C4C12404  21.230  15.751  39.650  0.0424 -0.2583 -0.0492
  517BOLB   C1D12405  21.577  17.194  40.523  0.0021  0.0392 -0.1702
  517BOLB   C2D12406  21.373  17.332  40.095  0.0949 -0.2201  0.1742
  517BOLB   C3D12407  21.450  17.257  39.691  0.1029 -0.1727 -0.1032
  517BOLB   C4D12408  21.503  17.044  39.287 -0.2257  0.3253  0.0293
  518BOLB   NC112409  17.102   5.442  34.670 -0.4120  0.1252  0.1534
  518BOLB   PO112410  16.646   5.530  34.607  0.0603  0.0022  0.1283
  518BOLB   GL112411  16.747   5.081  34.803 -0.1416 -0.0775  0.0979
  518BOLB   GL212412  17.051   4.926  34.589  0.0128 -0.0288  0.2339
  518BOLB   C1A12413  16.711   4.590  34.779  0.1719  0.3548 -0.4633
  518BOLB   C2A12414  17.015   4.196  34.792  0.2137  0.2221 -0.0166
  518BOLB   C3A12415  17.185   3.812  35.054  0.0604 -0.1371  0.1241
  518BOLB   C4A12416  17.454   3.475  35.294 -0.3708 -0.0429  0.1434
  518BOLB   C1B12417  17.388   4.619  34.592 -0.1320 -0.0121 -0.1422
  518BOLB   C2B12418  17.487   4.152  34.871 -0.2720 -0.3785 -0.2043
  518BOLB   C3B12419  17.827   3.827  35.004  0.1835  0.1550  0.1985
  518BOLB   C4B12420  17.970   3.456  35.172  0.0522 -0.1345  0.3564
  518BOLB   NC212421  18.862   1.202  35.599  0.4905  0.2852 -0.2045
  518BOLB   PO212422  18.506   1.381  35.926 -0.1294 -0.0303 -0.2859
  518BOLB   GL312423  18.313   1.761  35.751 -0.1000  0.0936  0.3954
  518BOLB   GL412424  18.379   2.084  35.972 -0.0868 -0.0123  0.0590
  518BOLB   C1C12425  18.324   2.015  35.384  0.0308 -0.5619 -0.1255
  518BOLB   C2C12426  18.188   2.512  35.356 -0.1251 -0.0633 -0.0847
  518BOLB   C3C12427  17.809   2.780  35.345 -0.2746  0.1499  0.1704
  518BOLB   C4C12428  17.753   3.125  35.428  0.0976 -0.0574 -0.0573
  518BOLB   C1D12429  18.706   2.263  35.605 -0.2908  0.2377 -0.3906
  518BOLB   C2D12430  18.769   2.726  35.579 -0.1182 -0.0056  0.1384
  518BOLB   C3D12431  18.462   2.996  35.528 -0.0309  0.0401 -0.0120
  518BOLB   C4D12432  18.150   3.215  35.752 -0.0722  0.3808  0.0988
  519BOLB   NC112433  19.646  18.069  27.939  0.2702 -0.3122 -0.1015
  519BOLB   PO112434  19.783  18.415  28.261  0.0205 -0.1766 -0.3541
  519BOLB   GL112435  19.654  18.824  28.341  0.1801 -0.2023 -0.0320
  519BOLB   GL212436  19.817  18.725  28.670  0.0779  0.4324 -0.0392
  519BOLB   C1A12437  19.622  19.183  28.154 -0.3046 -0.4890  0.0682
  519BOLB   C2A12438  19.695  19.609  27.939  0.0238  0.0257  0.1275
  519BOLB   C3A12439  19.823  19.909  27.596 -0.3414 -0.1377 -0.1172
  519BOLB   C4A12440  19.951  20.140  27.324 -0.3114 -0.0099  0.2185
  519BOLB   C1B12441  20.227  18.856  28.590 -0.0923 -0.0145  0.3987
  519BOLB   C2B12442  20.713  18.911  28.697 -0.0834  0.0610  0.2022
  519BOLB   C3B12443  21.158  19.001  28.614  0.0358  0.0069  0.1263
  519BOLB   C4B12444  21.409  19.291  28.763 -0.1794 -0.0977 -0.0347
  519BOLB   NC212445  21.760  20.946  26.243  0.3780 -0.0840 -0.1066
  519BOLB   PO212446  21.420  20.992  25.834 -0.0493 -0.0726 -0.3032
  519BOLB   GL312447  21.147  20.995  26.150 -0.2218  0.2396 -0.1217
  519BOLB   GL412448  21.249  21.131  26.452 -0.3675 -0.3179 -0.1526
  519BOLB   C1C12449  20.866  20.774  26.406 -0.1364  0.1348 -0.1882
  519BOLB   C2C12450  20.609  20.834  26.901  0.0784  0.3353  0.2950
  519BOLB   C3C12451  20.397  20.872  27.206 -0.2767  0.0322  0.1798
  519BOLB   C4C12452  20.070  20.632  27.278  0.0631 -0.3414 -0.2006
  519BOLB   C1D12453  20.973  21.288  26.827  0.3447 -0.1652  0.3620
  519BOLB   C2D12454  20.679  21.346  27.108 -0.0036  0.2881 -0.0202
  519BOLB   C3D12455  20.296  21.507  27.329  0.4079 -0.2807  0.0445
  519BOLB   C4D12456  19.955  21.717  27.569 -0.1253 -0.2315 -0.0222
  520BOLB   NC112457   9.841  12.914  23.920  0.0013  0.1740 -0.0109
  520BOLB   PO112458   9.434  12.718  24.207 -0.2103 -0.0015  0.1190
  520BOLB   GL112459   9.081  13.073  24.010 -0.1214 -0.0174  0.1601
  520BOLB   GL212460   9.039  13.285  23.875 -0.2462 -0.2889  0.0159
  520BOLB   C1A12461   8.597  13.132  23.979 -0.1524  0.0517  0.2017
  520BOLB   C2A12462   8.144  13.285  23.932  0.3523  0.1430 -0.0919
  520BOLB   C3A12463   7.873  13.630  23.690 -0.3515 -0.0062  0.1804
  520BOLB   C4A12464   7.600  13.922  23.656  0.1445 -0.1194  0.0093
  520BOLB   C1B12465   8.901  13.021  23.568  0.2446 -0.0264  0.2063
  520BOLB   C2B12466   8.682  12.808  23.278 -0.2741  0.0471  0.1709
  520BOLB   C3B12467   8.486  12.848  22.872 -0.0404  0.2928  0.0812
  520BOLB   C4B12468   8.150  12.809  22.580  0.2241  0.0303 -0.0284
  520BOLB   NC212469   5.619  15.946  23.057  0.0663  0.1233  0.0825
  520BOLB   PO212470   5.897  15.607  22.777 -0.1983 -0.0007  0.2665
  520BOLB   GL312471   5.984  15.126  22.828 -0.2924 -0.0877 -0.1162
  520BOLB   GL412472   6.309  15.014  22.692  0.3003 -0.1160 -0.0341
  520BOLB   C1C12473   6.082  14.680  23.007  0.1164  0.0973 -0.0253
  520BOLB   C2C12474   6.463  14.366  23.073 -0.0704 -0.0718 -0.3461
  520BOLB   C3C12475   6.692  14.103  23.293 -0.0126 -0.1478  0.1328
  520BOLB   C4C12476   7.170  14.072  23.567 -0.0082  0.3655  0.0731
  520BOLB   C1D12477   6.519  14.964  23.138 -0.0506  0.1418 -0.2260
  520BOLB   C2D12478   6.709  14.684  23.392  0.2086 -0.0507  0.1197
  520BOLB   C3D12479   6.917  14.475  23.704  0.4297 -0.0485  0.2091
  520BOLB   C4D12480   7.337  14.320  23.942  0.0512  0.3235 -0.3696
  521BOLB   NC112481  21.100  13.340  24.508 -0.1622  0.1688 -0.0992
  521BOLB   PO112482  21.258  13.789  24.090  0.2917 -0.1696  0.1216
  521BOLB   GL112483  21.550  14.019  24.223  0.0682 -0.1905 -0.0160
  521BOLB   GL212484  21.447  14.352  24.410 -0.3743 -0.2671  0.0580
  521BOLB   C1A12485  21.919  14.205  24.163  0.0701  0.1949 -0.1597
  521BOLB   C2A12486  22.343  14.410  24.066 -0.1055 -0.1023 -0.1156
  521BOLB   C3A12487  22.695  14.762  24.082  0.2717  0.1761 -0.1842
  521BOLB   C4A12488  22.934  14.956  24.398  0.0200 -0.2194  0.1788
  521BOLB   C1B12489  21.531  14.583  24.713  0.0865 -0.0394  0.0192
  521BOLB   C2B12490  21.858  14.963  24.643  0.2236  0.0365 -0.0780
  521BOLB   C3B12491  21.920  15.230  24.286  0.0493  0.0776 -0.0071
  521BOLB   C4B12492  21.883  15.564  24.015  0.1509  0.0665 -0.1178
  521BOLB   NC212493  25.080  16.338  24.141 -0.1853  0.4336  0.3067
  521BOLB   PO212494  24.669  16.485  23.900 -0.0580  0.2307 -0.1172
  521BOLB   GL312495  24.359  16.168  24.161  0.0518  0.2898 -0.0937
  521BOLB   GL412496  24.109  16.401  24.152  0.0671  0.0362 -0.2654
  521BOLB   C1C12497  24.084  15.740  24.157  0.1452 -0.0188  0.1933
  521BOLB   C2C12498  23.677  15.571  24.373  0.3146  0.2422  0.0886
  521BOLB   C3C12499  23.130  15.623  24.436 -0.0451 -0.0558  0.2050
  521BOLB   C4C12500  22.842  15.327  24.409  0.1759  0.5128 -0.0891
  521BOLB   C1D12501  23.683  16.574  24.246 -0.0925  0.3100 -0.0250
  521BOLB   C2D12502  23.289  16.709  24.337 -0.4007  0.2260  0.2788
  521BOLB   C3D12503  22.921  16.544  24.523 -0.0683  0.0017 -0.0100
  521BOLB   C4D12504  22.838  16.027  24.641 -0.3134 -0.0336 -0.1756
  522BOLB   NC112505  18.250   4.045  29.517 -0.3589 -0.1304 -0.2454
  522BOLB   PO112506  18.139   3.944  29.024  0.4493  0.3294  0.2548
  522BOLB   GL112507  18.198   3.560  29.146 -0.3384 -0.0914 -0.3294
  522BOLB   GL212508  17.906   3.384  29.068  0.2942 -0.4196  0.0513
  522BOLB   C1A12509  18.472   3.102  29.330 -0.2439  0.1932  0.0378
  522BOLB   C2A12510  18.619   2.696  29.514 -0.0368 -0.1020 -0.3724
  522BOLB   C3A12511  18.884   2.477  29.764 -0.1578 -0.1514 -0.1105
  522BOLB   C4A12512  18.904   2.053  30.039  0.2868 -0.3250 -0.1218
  522BOLB   C1B12513  17.983   3.090  29.471  0.4034  0.1283  0.1234
  522BOLB   C2B12514  18.139   2.809  29.657 -0.0016 -0.0019 -0.1878
  522BOLB   C3B12515  18.436   2.527  29.979 -0.0961 -0.0172  0.1035
  522BOLB   C4B12516  18.736   2.600  30.248  0.0901  0.1398 -0.0626
  522BOLB   NC212517  19.154   0.524  28.948  0.0284  0.0336 -0.0155
  522BOLB   PO212518  19.541   0.427  29.069  0.1318 -0.1772 -0.0547
  522BOLB   GL312519  19.377   0.679  29.353 -0.0101 -0.0061  0.3217
  522BOLB   GL412520  19.080   0.880  29.306  0.1373 -0.2991 -0.0443
  522BOLB   C1C12521  19.487   0.904  29.638  0.0839  0.2385 -0.0537
  522BOLB   C2C12522  19.547   1.233  29.888  0.3256  0.0742  0.0388
  522BOLB   C3C12523  19.664   1.693  30.064 -0.0723  0.2253  0.4154
  522BOLB   C4C12524  19.298   1.945  30.199  0.0941  0.0766  0.0331
  522BOLB   C1D12525  18.998   1.297  29.388 -0.0287 -0.2404  0.0166
  522BOLB   C2D12526  18.877   1.513  29.689 -0.0625 -0.2214  0.0913
  522BOLB   C3D12527  18.565   1.452  29.978  0.0710  0.1885 -0.1818
  522BOLB   C4D12528  18.550   1.157  30.373 -0.1211  0.0428  0.0040
  523BOLB   NC112529  22.563   9.122  33.121  0.0305 -0.0886 -0.0456
  523BOLB   PO112530  22.631   8.828  33.511 -0.3248  0.2318  0.0883
  523BOLB   GL112531  23.029   8.774  33.650  0.1503 -0.3501 -0.1029
  523BOLB   GL212532  23.166   8.916  33.993 -0.0135  0.2670  0.0902
  523BOLB   C1A12533  23.450   8.583  33.680  0.0738  0.1068  0.0504
  523BOLB   C2A12534  23.855   8.262  33.732 -0.0459  0.3250  0.4108
  523BOLB   C3A12535  23.861   7.807  33.593  0.1076  0.0443  0.1493
  523BOLB   C4A12536  24.209   7.572  33.449 -0.0341  0.1697 -0.2102
  523BOLB   C1B12537  23.648   8.744  34.101  0.1504 -0.2918  0.0234
  523BOLB   C2B12538  23.908   9.073  34.157 -0.2146  0.1920  0.1009
  523BOLB   C3B12539  24.177   9.104  34.430  0.2152  0.1555  0.0468
  523BOLB   C4B12540  24.453   9.380  34.663  0.1287 -0.3466 -0.1272
  523BOLB   NC212541  25.850   6.098  33.618  0.0553 -0.1358 -0.0607
  523BOLB   PO212542  25.746   5.758  34.041 -0.1835  0.1355  0.1032
  523BOLB   GL312543  25.503   6.059  34.016  0.1002  0.2689  0.1825
  523BOLB   GL412544  25.237   5.905  33.945 -0.0376  0.0313  0.0920
  523BOLB   C1C12545  25.214   6.483  33.950 -0.1765  0.0960  0.1806
  523BOLB   C2C12546  24.886   6.667  34.016  0.2886 -0.1184  0.1124
  523BOLB   C3C12547  24.759   7.057  33.961  0.0682 -0.1792 -0.1026
  523BOLB   C4C12548  24.514   7.342  33.664 -0.0714 -0.0133  0.0791
  523BOLB   C1D12549  24.914   6.164  33.812  0.2749 -0.2275  0.1361
  523BOLB   C2D12550  24.608   6.431  33.711  0.0924 -0.0306  0.2371
  523BOLB   C3D12551  24.546   6.772  33.591  0.2781 -0.0486  0.0270
  523BOLB   C4D12552  24.388   7.000  33.236  0.0415 -0.1965  0.0939
  524BOLB   NC112553  12.491  20.219  27.876 -0.1920  0.0099 -0.0803
  524BOLB   PO112554  12.262  20.566  27.676  0.0149 -0.1023  0.4329
  524BOLB   GL112555  12.229  21.095  27.830  0.3000 -0.1415 -0.0778
  524BOLB   GL212556  11.958  21.052  27.634  0.0982 -0.2639  0.1570
  524BOLB   C1A12557  12.179  21.509  27.796 -0.1316 -0.2949 -0.1162
  524BOLB   C2A12558  12.188  21.965  27.744  0.1867  0.0968 -0.1638
  524BOLB   C3A12559  11.900  22.385  27.672 -0.2664 -0.0572 -0.0235
  524BOLB   C4A12560  11.818  22.757  27.395 -0.0237  0.1269  0.2110
  524BOLB   C1B12561  11.686  21.429  27.741  0.0692 -0.2635 -0.0622
  524BOLB   C2B12562  11.578  21.819  27.696 -0.0672 -0.0201  0.1640
  524BOLB   C3B12563  11.741  22.057  27.332 -0.0690 -0.3645  0.1060
  524BOLB   C4B12564  11.873  22.381  27.067 -0.0016 -0.1045 -0.0703
  524BOLB   NC212565  11.711  25.331  27.321  0.2188 -0.2123  0.1945
  524BOLB   PO212566  11.959  25.125  27.545 -0.1523 -0.0277  0.1031
  524BOLB   GL312567  11.910  24.770  27.702 -0.0471  0.0203  0.1372
  524BOLB   GL412568  12.108  24.604  27.395  0.1465  0.2871 -0.4861
  524BOLB   C1C12569  11.816  24.311  27.625 -0.2280  0.2936 -0.1362
  524BOLB   C2C12570  11.910  23.927  27.410 -0.0554 -0.0913 -0.0788
  524BOLB   C3C12571  11.880  23.579  27.413  0.0376  0.0131  0.0810
  524BOLB   C4C12572  11.769  23.162  27.431  0.2654  0.0054 -0.2684
  524BOLB   C1D12573  11.919  24.255  27.053 -0.2971 -0.0533  0.1314
  524BOLB   C2D12574  11.766  24.037  26.634 -0.2898 -0.0174 -0.2231
  524BOLB   C3D12575  11.249  24.028  26.478 -0.1220 -0.1160 -0.3028
  524BOLB   C4D12576  10.887  23.728  26.462  0.1134 -0.2455  0.0559
  525BOLB   NC112577  11.994  18.393  23.392 -0.1961 -0.1230 -0.0132
  525BOLB   PO112578  12.350  18.637  23.583 -0.0446  0.1296 -0.4132
  525BOLB   GL112579  12.225  19.079  23.351 -0.0051  0.2177 -0.0049
  525BOLB   GL212580  12.531  18.958  23.133 -0.1896 -0.1254 -0.2671
  525BOLB   C1A12581  12.063  19.554  23.291 -0.1492 -0.2168 -0.4520
  525BOLB   C2A12582  11.646  19.794  23.082  0.0575  0.1236  0.0904
  525BOLB   C3A12583  11.462  19.766  22.701 -0.2195  0.0491  0.1102
  525BOLB   C4A12584  11.291  20.156  22.581 -0.0936  0.0023  0.0419
  525BOLB   C1B12585  12.267  19.203  22.886  0.2441  0.1154  0.2536
  525BOLB   C2B12586  12.163  19.588  22.751  0.1155 -0.0698  0.1167
  525BOLB   C3B12587  12.033  19.971  22.790 -0.0450  0.4315 -0.3420
  525BOLB   C4B12588  11.758  20.221  22.779  0.0602 -0.0183  0.3653
  525BOLB   NC212589  10.921  21.661  20.531 -0.0148  0.2318 -0.2857
  525BOLB   PO212590  11.017  21.832  20.942 -0.2467 -0.2461 -0.1351
  525BOLB   GL312591  11.070  21.438  20.992 -0.1731 -0.0571 -0.2130
  525BOLB   GL412592  11.318  21.277  20.987 -0.0173  0.1642 -0.3323
  525BOLB   C1C12593  10.851  21.149  21.295 -0.1082 -0.0777 -0.2204
  525BOLB   C2C12594  11.277  20.908  21.305  0.3459  0.0390  0.0545
  525BOLB   C3C12595  11.516  20.679  21.752  0.2515  0.2026  0.2445
  525BOLB   C4C12596  11.450  20.506  22.228  0.1671 -0.0336  0.1149
  525BOLB   C1D12597  11.768  21.196  21.290 -0.2720 -0.2411 -0.3098
  525BOLB   C2D12598  12.014  21.116  21.639  0.0456  0.2023  0.2670
  525BOLB   C3D12599  12.234  20.980  22.060 -0.0096  0.0167 -0.1769
  525BOLB   C4D12600  12.510  21.097  22.329  0.0014  0.1981 -0.2566
  526BOLB   NC112601   9.717   7.874  29.134 -0.1999 -0.1530 -0.0077
  526BOLB   PO112602   9.343   7.640  29.337 -0.0516  0.1729  0.1045
  526BOLB   GL112603   9.231   7.280  29.435  0.1065 -0.0087  0.0314
  526BOLB   GL212604   8.904   7.338  29.536 -0.1441 -0.0452  0.1344
  526BOLB   C1A12605   9.003   6.774  29.496 -0.1015  0.0296 -0.2560
  526BOLB   C2A12606   8.660   6.514  29.647  0.1348  0.0074 -0.1502
  526BOLB   C3A12607   8.284   6.400  29.443 -0.2892  0.2930  0.0503
  526BOLB   C4A12608   7.813   6.321  29.297 -0.0752 -0.2966 -0.2606
  526BOLB   C1B12609   8.624   7.071  29.347 -0.0905  0.2727  0.0533
  526BOLB   C2B12610   8.226   6.896  29.395  0.0591  0.2931 -0.0501
  526BOLB   C3B12611   7.854   6.806  29.125 -0.0139 -0.2097 -0.0586
  526BOLB   C4B12612   7.809   6.571  28.725 -0.0106  0.0570 -0.0577
  526BOLB   NC212613   5.932   5.458  28.451 -0.1362 -0.0716  0.1985
  526BOLB   PO212614   6.073   5.176  28.820 -0.2478 -0.0111  0.0915
  526BOLB   GL312615   6.398   5.388  28.876 -0.0986  0.0670 -0.3120
  526BOLB   GL412616   6.655   5.166  28.699  0.1388  0.3307  0.2134
  526BOLB   C1C12617   6.655   5.648  29.110 -0.1275  0.1540 -0.0992
  526BOLB   C2C12618   6.871   5.761  29.536 -0.0417  0.0086  0.1215
  526BOLB   C3C12619   7.146   5.990  29.701  0.0727 -0.0916  0.1337
  526BOLB   C4C12620   7.272   6.218  29.409  0.1570 -0.3138 -0.1515
  526BOLB   C1D12621   6.993   5.350  28.878 -0.3021  0.2843  0.2160
  526BOLB   C2D12622   7.335   5.480  28.746  0.3420 -0.1407 -0.2733
  526BOLB   C3D12623   7.685   5.763  28.713 -0.2673  0.0454  0.1804
  526BOLB   C4D12624   8.014   5.989  28.876  0.0274  0.2882  0.3747
  527BOLB   NC112625  12.055  19.901  26.418  0.3146 -0.1341 -0.0223
  527BOLB   PO112626  12.066  20.325  26.335 -0.4181 -0.0045 -0.3536
  527BOLB   GL112627  11.780  20.695  26.274 -0.1703  0.2558 -0.1358
  527BOLB   GL212628  11.859  20.927  26.323  0.0134  0.0086 -0.0648
  527BOLB   C1A12629  11.725  20.963  25.860  0.1383 -0.2659  0.0752
  527BOLB   C2A12630  11.496  21.246  25.816  0.0389 -0.1232 -0.1294
  527BOLB   C3A12631  11.372  21.552  25.697 -0.0440 -0.1912 -0.0925
  527BOLB   C4A12632  11.017  21.869  25.553  0.3116 -0.0978 -0.1121
  527BOLB   C1B12633  11.879  21.428  26.091  0.0084 -0.2160  0.0420
  527BOLB   C2B12634  11.694  21.856  25.965  0.0772 -0.0945  0.0992
  527BOLB   C3B12635  11.492  22.235  26.012  0.0130  0.0971 -0.1825
  527BOLB   C4B12636  11.554  22.562  25.817 -0.0750 -0.3018  0.0479
  527BOLB   NC212637   9.947  23.810  26.091  0.0867  0.0456 -0.0146
  527BOLB   PO212638  10.112  23.863  25.647  0.1471  0.0022  0.0280
  527BOLB   GL312639   9.970  23.458  25.386  0.0463 -0.2182 -0.1591
  527BOLB   GL412640   9.660  23.231  25.409  0.1121 -0.0237 -0.0061
  527BOLB   C1C12641  10.142  23.031  25.359  0.0151  0.2123  0.2301
  527BOLB   C2C12642  10.329  22.641  25.364  0.0658  0.0710  0.2703
  527BOLB   C3C12643  10.490  22.243  25.350  0.1339  0.3280 -0.0692
  527BOLB   C4C12644  10.846  22.249  25.432  0.2303  0.0977 -0.0660
  527BOLB   C1D12645   9.707  22.791  25.456 -0.0773 -0.1131 -0.1256
  527BOLB   C2D12646   9.858  22.510  25.553  0.0738 -0.0118  0.0444
  527BOLB   C3D12647  10.196  22.362  25.753  0.0295  0.0558  0.0898
  527BOLB   C4D12648  10.484  22.055  25.777 -0.0651  0.2299 -0.1566
  528BOLB   NC112649  24.452   3.652  25.066 -0.1002 -0.1756 -0.0597
  528BOLB   PO112650  24.079   3.527  24.860 -0.1089  0.1652 -0.0234
  528BOLB   GL112651  23.845   3.758  24.687 -0.0188 -0.0924 -0.1823
  528BOLB   GL212652  23.792   4.051  24.501 -0.0805  0.2163 -0.0176
  528BOLB   C1A12653  23.388   3.833  24.764  0.1309  0.1053  0.0154
  528BOLB   C2A12654  22.966   3.707  24.457  0.0306 -0.0517  0.0380
  528BOLB   C3A12655  22.619   3.470  24.420 -0.0341 -0.2644  0.0069
  528BOLB   C4A12656  22.164   3.527  24.466  0.1918  0.2450  0.1202
  528BOLB   C1B12657  23.980   4.462  24.619  0.0206 -0.0031 -0.1429
  528BOLB   C2B12658  23.820   4.704  25.013 -0.0737  0.0098  0.1125
  528BOLB   C3B12659  23.501   4.975  24.916  0.1123 -0.1747  0.2868
  528BOLB   C4B12660  23.531   4.964  24.513  0.0013 -0.2429  0.1555
  528BOLB   NC212661  22.595   1.467  24.940 -0.1607  0.2245 -0.0358
  528BOLB   PO212662  22.225   1.768  24.956  0.0326  0.0534 -0.1093
  528BOLB   GL312663  21.794   2.062  24.891 -0.0619  0.0470 -0.2249
  528BOLB   GL412664  21.536   1.970  24.961  0.0560  0.2515  0.2039
  528BOLB   C1C12665  21.814   2.538  25.084 -0.1999  0.3526  0.0674
  528BOLB   C2C12666  21.634   2.881  25.061  0.0211  0.0804  0.0671
  528BOLB   C3C12667  21.516   3.276  24.923  0.1272  0.0333 -0.2127
  528BOLB   C4C12668  21.752   3.550  24.612 -0.0895 -0.1487  0.2511
  528BOLB   C1D12669  21.696   2.151  25.375 -0.0440  0.1318  0.0192
  528BOLB   C2D12670  21.486   2.550  25.617  0.0994  0.1051  0.2586
  528BOLB   C3D12671  21.466   3.033  25.704  0.0213  0.1044 -0.1253
  528BOLB   C4D12672  21.394   3.371  25.566  0.2243  0.3857 -0.3312
  529BOLB   NC112673  10.148  16.830  35.942 -0.1227  0.1039 -0.0970
  529BOLB   PO112674   9.922  17.254  35.626  0.1403  0.4253 -0.0117
  529BOLB   GL112675   9.567  17.353  35.644 -0.0313  0.2234 -0.0632
  529BOLB   GL212676   9.479  17.303  36.022 -0.1254 -0.1083  0.1252
  529BOLB   C1A12677   9.461  17.889  35.776 -0.0921  0.0722 -0.0229
  529BOLB   C2A12678   9.275  18.157  36.141 -0.1968  0.5209  0.2496
  529BOLB   C3A12679   9.133  18.279  36.493 -0.1129 -0.1416 -0.0483
  529BOLB   C4A12680   8.972  18.560  36.789  0.1517 -0.1747 -0.2577
  529BOLB   C1B12681   9.302  17.321  36.389 -0.1606 -0.2252  0.1272
  529BOLB   C2B12682   8.998  17.352  36.601  0.0337 -0.1837 -0.1465
  529BOLB   C3B12683   8.614  17.316  36.872 -0.3432 -0.0270 -0.2046
  529BOLB   C4B12684   8.238  17.478  36.985 -0.0936  0.2035 -0.0945
  529BOLB   NC212685   8.058  20.054  38.041 -0.0526  0.1740 -0.0590
  529BOLB   PO212686   8.149  20.452  38.014 -0.0127 -0.1168  0.3789
  529BOLB   GL312687   8.337  20.363  37.621 -0.0226  0.2854  0.1532
  529BOLB   GL412688   8.150  20.495  37.312 -0.1762 -0.3687  0.0817
  529BOLB   C1C12689   8.412  19.933  37.474  0.0574  0.1900  0.4142
  529BOLB   C2C12690   8.424  19.522  37.317 -0.0083  0.0027  0.0507
  529BOLB   C3C12691   8.656  19.214  37.172 -0.0036 -0.1387 -0.0800
  529BOLB   C4C12692   8.708  18.885  36.863 -0.1424  0.1928  0.1362
  529BOLB   C1D12693   8.246  20.249  36.995 -0.2261  0.5007  0.0492
  529BOLB   C2D12694   8.490  19.986  36.895 -0.1009  0.0856 -0.0823
  529BOLB   C3D12695   8.657  19.596  36.828 -0.3141  0.0515 -0.1440
  529BOLB   C4D12696   8.756  19.248  36.610 -0.2054 -0.0373  0.0364
  530BOLB   NC112697  18.027  19.521  29.788  0.0359 -0.0223 -0.0428
  530BOLB   PO112698  18.224  19.530  29.348 -0.4587 -0.1408  0.0633
  530BOLB   GL112699  18.426  19.876  28.990 -0.2000 -0.0346  0.0758
  530BOLB   GL212700  18.154  20.047  29.047  0.0592 -0.0699 -0.2012
  530BOLB   C1A12701  18.697  20.190  28.973 -0.0371 -0.1393 -0.3727
  530BOLB   C2A12702  19.064  20.454  28.795  0.2059  0.1659  0.2369
  530BOLB   C3A12703  19.392  20.647  28.619 -0.0523  0.0709 -0.1257
  530BOLB   C4A12704  19.707  20.982  28.482 -0.2102 -0.2317  0.1587
  530BOLB   C1B12705  18.299  20.451  28.957  0.2780 -0.1147  0.1427
  530BOLB   C2B12706  18.618  20.727  28.861 -0.0081 -0.0256 -0.3212
  530BOLB   C3B12707  18.907  20.930  28.563 -0.1742  0.1521  0.3128
  530BOLB   C4B12708  19.235  20.968  28.211  0.0345 -0.2135 -0.1530
  530BOLB   NC212709  21.255  22.808  28.474  0.0414 -0.0252 -0.1795
  530BOLB   PO212710  20.875  23.044  28.383 -0.0404 -0.1172 -0.2591
  530BOLB   GL312711  20.575  22.686  28.275 -0.1585 -0.2824  0.2165
  530BOLB   GL412712  20.308  22.738  28.388  0.2704  0.0864 -0.2020
  530BOLB   C1C12713  20.416  22.275  28.305 -0.1479 -0.5512 -0.2183
  530BOLB   C2C12714  20.397  21.900  28.281 -0.2631  0.2641  0.0559
  530BOLB   C3C12715  20.242  21.451  28.361  0.0846 -0.0302 -0.3308
  530BOLB   C4C12716  19.987  21.338  28.443  0.0291  0.2705  0.1304
  530BOLB   C1D12717  19.942  22.427  28.480 -0.3827  0.4313 -0.2932
  530BOLB   C2D12718  19.510  22.151  28.395 -0.2251 -0.0417  0.1418
  530BOLB   C3D12719  19.046  21.972  28.408 -0.5283 -0.1517  0.1609
  530BOLB   C4D12720  18.935  21.592  28.631  0.1864  0.2509 -0.1059
  531BOLB   NC112721  19.258  18.396  26.691 -0.0004  0.2172  0.0019
  531BOLB   PO112722  19.336  18.186  27.040 -0.1457  0.0791  0.4307
  531BOLB   GL112723  19.689  18.037  26.749  0.0964  0.0007 -0.0645
  531BOLB   GL212724  19.613  17.671  26.729  0.3549 -0.0801  0.1942
  531BOLB   C1A12725  20.118  18.235  26.759 -0.0864 -0.0460  0.0377
  531BOLB   C2A12726  20.305  18.582  26.935 -0.0595 -0.0424  0.2316
  531BOLB   C3A12727  20.731  18.636  26.918  0.2868 -0.1216 -0.3148
  531BOLB   C4A12728  20.966  18.960  26.711 -0.1405  0.3383  0.0953
  531BOLB   C1B12729  20.128  17.750  26.658 -0.0239 -0.0932 -0.1218
  531BOLB   C2B12730  20.447  17.888  26.448 -0.1262 -0.0337 -0.5272
  531BOLB   C3B12731  20.818  17.996  26.273  0.2517  0.1932 -0.3800
  531BOLB   C4B12732  21.328  17.910  26.321  0.0887 -0.0226 -0.0966
  531BOLB   NC212733  21.707  21.065  25.471  0.0190  0.1127 -0.0148
  531BOLB   PO212734  21.877  20.620  25.272 -0.1705 -0.2568 -0.0838
  531BOLB   GL312735  21.559  20.547  25.576  0.1898  0.0530 -0.0892
  531BOLB   GL412736  21.351  20.722  25.238 -0.0885 -0.0129  0.2763
  531BOLB   C1C12737  21.368  20.168  25.728  0.4240 -0.2163  0.2011
  531BOLB   C2C12738  21.412  19.933  26.087  0.1457  0.0528  0.0311
  531BOLB   C3C12739  21.320  19.596  26.296 -0.1707  0.0464  0.1547
  531BOLB   C4C12740  21.140  19.316  26.500 -0.2162  0.1032 -0.0983
  531BOLB   C1D12741  21.034  20.589  25.494 -0.1607 -0.1281  0.1925
  531BOLB   C2D12742  20.842  20.484  25.907 -0.0057  0.1883  0.0296
  531BOLB   C3D12743  20.587  20.367  26.208  0.0580  0.0034  0.0833
  531BOLB   C4D12744  20.302  20.579  26.486  0.4505 -0.1879  0.1616
  532BOLB   NC112745  13.150  13.131  20.331 -0.0508  0.2210  0.0166
  532BOLB   PO112746  13.609  13.263  20.293 -0.1908  0.2719 -0.0691
  532BOLB   GL112747  13.402  13.541  20.006 -0.1200  0.1259  0.2209
  532BOLB   GL212748  13.475  13.210  19.834  0.4822 -0.0877  0.1078
  532BOLB   C1A12749  13.145  13.628  19.629 -0.0325  0.3760 -0.1772
  532BOLB   C2A12750  12.890  13.738  19.429  0.0763 -0.1393 -0.2159
  532BOLB   C3A12751  12.622  13.706  19.191 -0.4075 -0.2258 -0.0691
  532BOLB   C4A12752  12.264  13.936  19.080 -0.3328  0.2301  0.0751
  532BOLB   C1B12753  13.202  13.148  19.503  0.1138 -0.3345  0.1711
  532BOLB   C2B12754  13.141  12.960  19.126 -0.3197 -0.0610  0.1074
  532BOLB   C3B12755  12.922  12.704  18.822  0.1323  0.0329 -0.1335
  532BOLB   C4B12756  12.645  12.455  18.642 -0.1898  0.0087 -0.2011
  532BOLB   NC212757  11.098  14.903  16.972 -0.0142 -0.1524  0.1297
  532BOLB   PO212758  11.101  14.680  17.328 -0.6866  0.2501 -0.4273
  532BOLB   GL312759  11.157  14.668  17.774 -0.1465 -0.2854 -0.2805
  532BOLB   GL412760  11.456  14.878  17.821 -0.1937 -0.1234 -0.1137
  532BOLB   C1C12761  11.304  14.536  18.136 -0.2993  0.2449  0.0751
  532BOLB   C2C12762  11.205  14.270  18.445 -0.0711  0.0342  0.5061
  532BOLB   C3C12763  11.599  14.036  18.679  0.0559 -0.1220  0.1208
  532BOLB   C4C12764  12.049  14.111  18.751 -0.2353  0.0676  0.3750
  532BOLB   C1D12765  11.582  14.924  18.240 -0.0885  0.0314  0.1265
  532BOLB   C2D12766  11.803  15.149  18.470  0.2021  0.2412 -0.1445
  532BOLB   C3D12767  11.895  15.530  18.594  0.2595 -0.0328  0.0005
  532BOLB   C4D12768  12.101  15.900  18.579 -0.0806 -0.0119 -0.0260
  533BOLB   NC112769   9.080   8.550  29.725  0.0045  0.0262  0.2275
  533BOLB   PO112770   8.819   8.369  29.462  0.0126  0.2226 -0.0512
  533BOLB   GL112771   8.549   8.144  29.540  0.0013 -0.1919 -0.2954
  533BOLB   GL212772   8.280   8.327  29.785  0.0542  0.2703  0.3182
  533BOLB   C1A12773   8.238   7.921  29.498  0.0637  0.0570  0.0332
  533BOLB   C2A12774   7.852   7.624  29.510  0.3226  0.0810 -0.2800
  533BOLB   C3A12775   7.533   7.593  29.184  0.0562  0.2971  0.0833
  533BOLB   C4A12776   7.156   7.633  28.902 -0.2538 -0.1554 -0.1151
  533BOLB   C1B12777   7.865   8.217  29.942 -0.2265  0.1363  0.3612
  533BOLB   C2B12778   7.591   8.005  30.075  0.3903 -0.0922 -0.0655
  533BOLB   C3B12779   7.170   8.005  30.372  0.0468 -0.2175  0.0886
  533BOLB   C4B12780   6.754   7.844  30.429  0.0653  0.0747 -0.0818
  533BOLB   NC212781   4.718   7.135  28.317  0.0056 -0.2801 -0.0487
  533BOLB   PO212782   4.881   6.630  28.147 -0.0526  0.1922  0.1670
  533BOLB   GL312783   5.169   6.978  28.253  0.4633 -0.0619 -0.0058
  533BOLB   GL412784   5.202   7.353  28.410  0.3173 -0.1724 -0.1957
  533BOLB   C1C12785   5.560   7.050  28.257  0.2413  0.4051 -0.1136
  533BOLB   C2C12786   5.937   7.217  28.363 -0.1190  0.1816  0.5705
  533BOLB   C3C12787   6.307   7.260  28.728  0.0703 -0.2999 -0.1468
  533BOLB   C4C12788   6.740   7.455  28.762  0.0209 -0.0278  0.1216
  533BOLB   C1D12789   5.541   7.507  28.121  0.0416  0.3649  0.1063
  533BOLB   C2D12790   5.677   7.845  28.059  0.1266  0.2483  0.1950
  533BOLB   C3D12791   6.011   8.197  28.280 -0.0907  0.1602 -0.2648
  533BOLB   C4D12792   6.077   8.424  28.656 -0.2587  0.2385 -0.2716
  534BOLB   NC112793  12.611  18.974  35.816 -0.1068 -0.1863 -0.1295
  534BOLB   PO112794  12.241  18.988  35.638  0.1272  0.1755 -0.1278
  534BOLB   GL112795  11.827  19.102  35.798 -0.1300 -0.1556  0.0515
  534BOLB   GL212796  11.765  18.875  35.933 -0.0314  0.1358 -0.1163
  534BOLB   C1A12797  11.525  19.420  35.952 -0.0126 -0.1478 -0.0840
  534BOLB   C2A12798  11.362  19.871  36.337 -0.1030  0.2653  0.0255
  534BOLB   C3A12799  11.247  19.839  36.836  0.1368 -0.1537  0.1275
  534BOLB   C4A12800  11.260  19.759  37.363 -0.5370 -0.0516 -0.0736
  534BOLB   C1B12801  11.534  18.967  36.265  0.0015 -0.1663  0.1884
  534BOLB   C2B12802  11.338  19.353  36.604 -0.1698 -0.3404  0.3225
  534BOLB   C3B12803  11.295  19.224  37.057  0.2325 -0.2071  0.1725
  534BOLB   C4B12804  11.492  19.066  37.302 -0.0095 -0.2747  0.0327
  534BOLB   NC212805   9.947  21.646  39.074 -0.0275 -0.0374 -0.1715
  534BOLB   PO212806  10.077  21.519  38.680 -0.1901  0.5380 -0.0867
  534BOLB   GL312807  10.074  21.215  38.335  0.4294 -0.0944 -0.1118
  534BOLB   GL412808  10.328  21.386  38.244  0.1698  0.0930 -0.0413
  534BOLB   C1C12809  10.248  20.982  37.941 -0.1865 -0.1775 -0.0806
  534BOLB   C2C12810  10.606  20.620  37.958  0.1976  0.4046  0.1206
  534BOLB   C3C12811  10.914  20.301  37.937  0.1074 -0.1013 -0.2429
  534BOLB   C4C12812  11.137  19.942  37.725  0.1126 -0.2541 -0.1474
  534BOLB   C1D12813  10.659  21.143  38.115  0.1055 -0.0338  0.0157
  534BOLB   C2D12814  10.735  21.042  37.679 -0.2277 -0.0465 -0.2377
  534BOLB   C3D12815  10.762  20.652  37.457 -0.1358 -0.0182 -0.2193
  534BOLB   C4D12816  10.519  20.202  37.614 -0.0971  0.0989  0.1240
  535BOLB   NC112817  13.898   5.856  24.950 -0.3459  0.1849 -0.1961
  535BOLB   PO112818  13.805   5.955  24.563 -0.3600  0.2227 -0.0562
  535BOLB   GL112819  13.797   5.492  24.481 -0.0718  0.0076 -0.0720
  535BOLB   GL212820  14.062   5.187  24.297  0.1159  0.3299 -0.1877
  535BOLB   C1A12821  13.375   5.252  24.568 -0.1141 -0.1306 -0.1533
  535BOLB   C2A12822  13.152   5.012  24.236  0.0948 -0.0105 -0.0312
  535BOLB   C3A12823  13.110   4.699  23.953  0.0493  0.1252 -0.2225
  535BOLB   C4A12824  13.075   4.561  23.612 -0.2889 -0.0914 -0.3680
  535BOLB   C1B12825  14.123   4.805  24.129  0.1165  0.3174  0.3393
  535BOLB   C2B12826  14.096   4.498  23.826  0.0361  0.1221 -0.1844
  535BOLB   C3B12827  14.104   4.057  23.872  0.0081 -0.0990  0.3602
  535BOLB   C4B12828  14.184   3.665  23.885 -0.0799 -0.0799 -0.0738
  535BOLB   NC212829  12.706   2.732  23.145 -0.0443  0.0014 -0.2299
  535BOLB   PO212830  12.292   2.788  23.163  0.0969  0.3280  0.0999
  535BOLB   GL312831  11.985   3.040  23.446  0.0900 -0.0444  0.1808
  535BOLB   GL412832  11.913   3.057  23.794 -0.0482 -0.1612  0.2025
  535BOLB   C1C12833  12.131   3.452  23.408 -0.1209  0.1190 -0.2591
  535BOLB   C2C12834  12.385   3.779  23.170  0.0528 -0.3552  0.0640
  535BOLB   C3C12835  12.655   4.042  23.363 -0.0805 -0.1303  0.0566
  535BOLB   C4C12836  13.030   4.251  23.390  0.1470 -0.4342 -0.0080
  535BOLB   C1D12837  12.073   3.460  23.998  0.2653 -0.1234 -0.2085
  535BOLB   C2D12838  12.142   3.827  24.046  0.0481  0.0604  0.0904
  535BOLB   C3D12839  12.347   4.257  24.182 -0.2818  0.0264 -0.0529
  535BOLB   C4D12840  12.581   4.314  24.455 -0.0740 -0.0959 -0.1919
  536BOLB   NC112841  12.457   8.093  36.727  0.0581  0.0020 -0.1094
  536BOLB   PO112842  12.265   7.768  37.121  0.1263 -0.0429 -0.0268
  536BOLB   GL112843  12.207   7.620  37.567  0.0075  0.3391 -0.1346
  536BOLB   GL212844  11.882   7.487  37.465  0.1941 -0.2455  0.1129
  536BOLB   C1A12845  12.230   7.639  38.029 -0.1738  0.0303 -0.3115
  536BOLB   C2A12846  12.490   7.516  38.387 -0.0946 -0.0549 -0.1551
  536BOLB   C3A12847  12.535   7.377  38.817 -0.0718  0.0678 -0.1030
  536BOLB   C4A12848  12.479   7.167  39.138  0.0220  0.0986 -0.1461
  536BOLB   C1B12849  11.852   7.347  37.869  0.0175  0.0884 -0.1321
  536BOLB   C2B12850  12.001   7.156  38.179 -0.1192  0.0795 -0.1154
  536BOLB   C3B12851  11.732   6.844  38.364  0.0545  0.4517  0.0798
  536BOLB   C4B12852  11.345   6.821  38.595 -0.3593  0.3497 -0.2003
  536BOLB   NC212853  10.625   5.490  40.170 -0.0197  0.0482 -0.0764
  536BOLB   PO212854  10.730   5.811  40.399 -0.2210 -0.0051 -0.1656
  536BOLB   GL312855  11.007   6.011  40.076 -0.4114 -0.0746  0.1983
  536BOLB   GL412856  10.852   5.851  39.779  0.1610  0.0627 -0.2562
  536BOLB   C1C12857  11.306   6.208  39.869  0.1131  0.0858  0.4145
  536BOLB   C2C12858  11.528   6.606  39.731 -0.0359 -0.0083  0.1995
  536BOLB   C3C12859  11.989   6.782  39.597  0.4744  0.2368 -0.3743
  536BOLB   C4C12860  12.172   6.957  39.223  0.1616 -0.5324  0.0122
  536BOLB   C1D12861  11.004   6.150  39.451  0.1156  0.0038  0.1695
  536BOLB   C2D12862  11.420   6.230  39.200  0.0996  0.0845 -0.1190
  536BOLB   C3D12863  11.607   6.730  39.235  0.1185 -0.3020 -0.3683
  536BOLB   C4D12864  11.448   7.131  39.143  0.1964  0.0845 -0.0226
  537BOLB   NC112865  21.829   7.582  32.214 -0.2383 -0.2265 -0.0735
  537BOLB   PO112866  22.206   7.316  32.246 -0.0838 -0.0813  0.0654
  537BOLB   GL112867  22.651   7.057  32.320 -0.4246 -0.0217 -0.1538
  537BOLB   GL212868  22.773   7.339  32.500 -0.3659  0.0167 -0.0736
  537BOLB   C1A12869  22.975   6.868  32.067 -0.0744  0.1287 -0.1519
  537BOLB   C2A12870  23.155   6.397  32.289  0.0152  0.0573 -0.1030
  537BOLB   C3A12871  23.077   6.047  32.613  0.0755  0.1708  0.0485
  537BOLB   C4A12872  23.174   5.635  32.733 -0.2544 -0.0394 -0.0596
  537BOLB   C1B12873  23.164   7.084  32.546 -0.2792 -0.4615  0.1797
  537BOLB   C2B12874  23.436   6.781  32.451 -0.1949 -0.0071  0.0683
  537BOLB   C3B12875  23.665   6.497  32.204  0.0125 -0.3497  0.0928
  537BOLB   C4B12876  23.743   6.112  32.308  0.2356 -0.1874  0.2339
  537BOLB   NC212877  25.065   4.192  32.826  0.0258 -0.0511  0.0189
  537BOLB   PO212878  24.878   3.803  32.835 -0.1239 -0.0622 -0.0199
  537BOLB   GL312879  24.562   4.100  32.806  0.2574  0.0510  0.0466
  537BOLB   GL412880  24.618   4.436  32.895 -0.1231  0.2250 -0.0522
  537BOLB   C1C12881  24.226   4.423  32.619  0.0219  0.0714  0.1550
  537BOLB   C2C12882  23.932   4.802  32.573  0.1814 -0.0713 -0.2708
  537BOLB   C3C12883  23.682   5.133  32.442 -0.0867 -0.0578  0.2654
  537BOLB   C4C12884  23.347   5.309  32.569  0.1636  0.0184 -0.0569
  537BOLB   C1D12885  24.749   4.773  32.685  0.1251  0.0477 -0.1836
  537BOLB   C2D12886  24.599   5.267  32.758 -0.2966  0.3365  0.1154
  537BOLB   C3D12887  24.583   5.694  32.594  0.0270 -0.2987 -0.0676
  537BOLB   C4D12888  24.949   6.019  32.505  0.1236  0.1555  0.0407
  538BOLB   NC112889  15.124  11.148  39.957 -0.3349  0.0275 -0.3380
  538BOLB   PO112890  14.700  11.219  39.990 -0.1599  0.3030 -0.1739
  538BOLB   GL112891  14.600  11.291  40.378 -0.0622 -0.1631 -0.3802
  538BOLB   GL212892  14.424  11.583  40.503  0.2077  0.2709 -0.1401
  538BOLB   C1A12893  14.843  11.262  40.790  0.2909 -0.2699  0.2147
  538BOLB   C2A12894  14.799  11.193  41.113 -0.0118 -0.0299  0.1468
  538BOLB   C3A12895  14.745  10.956  41.419  0.4237 -0.0266  0.0337
  538BOLB   C4A12896  14.911  10.575  41.754  0.4314 -0.1974  0.2207
  538BOLB   C1B12897  14.456  11.554  40.901 -0.0152 -0.1251  0.0618
  538BOLB   C2B12898  14.558  11.430  41.426  0.1794 -0.2613 -0.3489
  538BOLB   C3B12899  14.687  11.377  41.932 -0.1359 -0.0205  0.1629
  538BOLB   C4B12900  14.954  11.379  42.278 -0.0603  0.1420 -0.0442
  538BOLB   NC212901  15.358   8.931  43.878 -0.0962  0.0957 -0.0990
  538BOLB   PO212902  15.251   9.396  43.966  0.5756  0.0615 -0.0456
  538BOLB   GL312903  15.228   9.486  43.557  0.1476 -0.3455 -0.0818
  538BOLB   GL412904  15.186   9.844  43.510 -0.1463 -0.1804 -0.0268
  538BOLB   C1C12905  15.150   9.524  43.161  0.1635 -0.0996  0.0108
  538BOLB   C2C12906  15.174   9.733  42.739  0.0878 -0.0930 -0.1494
  538BOLB   C3C12907  15.019  10.036  42.446  0.3110 -0.0609 -0.1172
  538BOLB   C4C12908  14.934  10.312  42.179  0.3774  0.0060 -0.1412
  538BOLB   C1D12909  15.085  10.157  43.160 -0.0499  0.1417 -0.1294
  538BOLB   C2D12910  15.253  10.257  42.770  0.0963  0.3265 -0.1707
  538BOLB   C3D12911  15.405  10.393  42.383 -0.0118  0.0664  0.1776
  538BOLB   C4D12912  15.271  10.630  42.024  0.0926 -0.0260  0.0046
  539BOLB   NC112913  23.099   9.890  23.599 -0.1569 -0.2574  0.3336
  539BOLB   PO112914  22.963   9.929  24.084  0.1775 -0.2331 -0.2737
  539BOLB   GL112915  23.204   9.676  24.079 -0.1166 -0.0986  0.1298
  539BOLB   GL212916  23.097   9.310  24.141  0.2112 -0.2852  0.1294
  539BOLB   C1A12917  23.612   9.863  24.060  0.5148 -0.0796  0.0085
  539BOLB   C2A12918  24.018  10.044  24.028 -0.1959  0.2997  0.0720
  539BOLB   C3A12919  24.462  10.208  24.066 -0.2903  0.0143  0.4055
  539BOLB   C4A12920  24.873   9.932  24.023  0.1053 -0.0514 -0.2875
  539BOLB   C1B12921  23.572   9.297  24.287 -0.1427  0.2528 -0.0890
  539BOLB   C2B12922  23.920   9.180  24.434  0.2588  0.2546  0.0398
  539BOLB   C3B12923  24.278   9.237  24.331  0.1610  0.0491  0.1038
  539BOLB   C4B12924  24.423   9.298  24.034  0.1331 -0.1522 -0.1250
  539BOLB   NC212925   0.046  10.470  23.750  0.1960 -0.1221  0.0648
  539BOLB   PO212926  26.872  10.450  23.441 -0.4684  0.1232 -0.2566
  539BOLB   GL312927  26.645  10.187  23.572 -0.0888  0.1537  0.0285
  539BOLB   GL412928  26.728  10.195  23.898  0.1954 -0.0407 -0.1308
  539BOLB   C1C12929  26.248  10.062  23.908 -0.1708 -0.3782 -0.0365
  539BOLB   C2C12930  25.917   9.903  24.206 -0.0251 -0.3391 -0.2025
  539BOLB   C3C12931  25.536   9.621  24.181 -0.4183  0.3795 -0.1270
  539BOLB   C4C12932  25.245   9.697  24.042  0.3003 -0.4193 -0.1258
  539BOLB   C1D12933  26.562  10.165  24.305 -0.2127  0.0647  0.1320
  539BOLB   C2D12934  26.159  10.224  24.463  0.0610 -0.1487 -0.1152
  539BOLB   C3D12935  25.695  10.060  24.651  0.1866 -0.0207  0.1273
  539BOLB   C4D12936  25.317   9.960  24.491  0.3089  0.2054  0.3087
  540BOLB   NC112937  13.994   1.143  35.118  0.0881  0.0672  0.0044
  540BOLB   PO112938  13.879   1.368  35.412 -0.1325  0.0918 -0.0916
  540BOLB   GL112939  13.730   1.737  35.233 -0.1825  0.0834 -0.0618
  540BOLB   GL212940  13.553   1.998  35.434 -0.0973 -0.1351  0.0062
  540BOLB   C1A12941  13.543   1.867  34.826  0.0341 -0.0909  0.1342
  540BOLB   C2A12942  13.501   2.200  34.561  0.3575  0.2268  0.0633
  540BOLB   C3A12943  13.690   2.501  34.435  0.2309  0.0488  0.3345
  540BOLB   C4A12944  13.709   2.980  34.254 -0.0713  0.1560 -0.0821
  540BOLB   C1B12945  13.831   2.350  35.427 -0.3457 -0.0014  0.1630
  540BOLB   C2B12946  14.037   2.683  35.191 -0.1914 -0.5316  0.3852
  540BOLB   C3B12947  14.160   3.009  34.934  0.1512  0.0233  0.3559
  540BOLB   C4B12948  14.548   3.181  34.722  0.1486  0.0815  0.1617
  540BOLB   NC212949  14.255   5.595  33.690 -0.2157 -0.5216 -0.1861
  540BOLB   PO212950  14.292   5.162  33.739 -0.0502  0.2090  0.0834
  540BOLB   GL312951  14.124   4.765  33.906 -0.1015  0.0361  0.2884
  540BOLB   GL412952  14.382   4.681  34.040  0.1924 -0.0012 -0.2401
  540BOLB   C1C12953  13.961   4.291  34.005  0.0155  0.2610  0.2346
  540BOLB   C2C12954  13.899   3.913  34.211 -0.2403 -0.3146  0.1302
  540BOLB   C3C12955  13.583   3.698  34.392 -0.1838  0.3255 -0.0216
  540BOLB   C4C12956  13.494   3.332  34.533  0.3618  0.1677  0.0111
  540BOLB   C1D12957  14.156   4.576  34.389 -0.0652  0.0714  0.1555
  540BOLB   C2D12958  13.959   4.236  34.619 -0.1269  0.1439 -0.0517
  540BOLB   C3D12959  13.941   3.850  34.816 -0.1322  0.0537 -0.1462
  540BOLB   C4D12960  13.665   3.510  34.962  0.1831 -0.0332  0.1304
  541BOLB   NC112961   9.478  15.932  24.839  0.1253 -0.2666  0.1473
  541BOLB   PO112962   9.112  15.689  24.972 -0.0466  0.3292  0.2517
  541BOLB   GL112963   8.712  15.729  24.887  0.0207  0.4620 -0.1019
  541BOLB   GL212964   8.770  15.740  24.520  0.0619  0.3752  0.0592
  541BOLB   C1A12965   8.402  15.906  24.755 -0.0687 -0.1978 -0.3378
  541BOLB   C2A12966   8.148  16.188  24.985  0.0144 -0.2841  0.0764
  541BOLB   C3A12967   7.699  16.262  25.022  0.2843  0.2466  0.0184
  541BOLB   C4A12968   7.383  16.168  24.922  0.2252  0.2129 -0.0884
  541BOLB   C1B12969   8.393  15.907  24.266  0.0606 -0.1124 -0.3632
  541BOLB   C2B12970   8.434  15.798  23.890  0.0814  0.0492 -0.0923
  541BOLB   C3B12971   8.129  15.871  23.680 -0.0687 -0.1012  0.2948
  541BOLB   C4B12972   7.643  15.923  23.719  0.0132  0.0996  0.1021
  541BOLB   NC212973   5.066  16.263  23.210  0.1742  0.1109  0.1958
  541BOLB   PO212974   5.486  16.439  23.346 -0.2292 -0.1905 -0.1929
  541BOLB   GL312975   5.847  16.144  23.443  0.2907 -0.0346  0.2074
  541BOLB   GL412976   5.924  16.308  23.666  0.1070 -0.3564  0.0490
  541BOLB   C1C12977   6.210  15.868  23.658 -0.0738  0.2291 -0.1717
  541BOLB   C2C12978   6.567  15.954  23.873 -0.4649  0.0044  0.2413
  541BOLB   C3C12979   6.869  16.023  24.236  0.0657  0.1058 -0.1661
  541BOLB   C4C12980   7.081  16.142  24.610  0.0914  0.1138 -0.1912
  541BOLB   C1D12981   6.382  16.341  23.439 -0.1514  0.0779 -0.4732
  541BOLB   C2D12982   6.846  16.314  23.428 -0.1239 -0.3995  0.0311
  541BOLB   C3D12983   7.216  16.434  23.529 -0.1524  0.0383  0.0749
  541BOLB   C4D12984   7.451  16.361  23.854 -0.1838 -0.0140  0.1421
  542BOLB   NC112985   8.901  17.915  27.129 -0.0779  0.0482  0.1156
  542BOLB   PO112986   9.146  18.294  27.221  0.2208 -0.1148 -0.0571
  542BOLB   GL112987   8.760  18.407  26.942  0.2046 -0.1266 -0.2166
  542BOLB   GL212988   8.539  18.221  27.155 -0.1274  0.0844  0.4692
  542BOLB   C1A12989   8.423  18.675  26.997  0.1347 -0.0621 -0.4675
  542BOLB   C2A12990   8.093  18.514  27.345  0.3377  0.1829  0.0760
  542BOLB   C3A12991   7.638  18.336  27.358 -0.1380 -0.3239 -0.2771
  542BOLB   C4A12992   7.234  18.293  27.510  0.0924 -0.2059 -0.1214
  542BOLB   C1B12993   8.156  18.171  26.977  0.0391  0.1291  0.1655
  542BOLB   C2B12994   8.054  18.498  26.664  0.1223 -0.1480  0.2164
  542BOLB   C3B12995   7.615  18.738  26.491  0.0601 -0.1309  0.1038
  542BOLB   C4B12996   7.099  18.748  26.544  0.1970  0.2151 -0.3042
  542BOLB   NC212997   4.933  19.755  27.001  0.5026 -0.0851  0.1498
  542BOLB   PO212998   4.846  19.440  27.314  0.0912  0.1833 -0.0511
  542BOLB   GL312999   5.200  19.232  27.433 -0.0433  0.1752  0.1238
  542BOLB   GL413000   5.448  19.531  27.625  0.0503 -0.1051  0.1203
  542BOLB   C1C13001   5.551  18.963  27.605  0.0012  0.1112 -0.1608
  542BOLB   C2C13002   5.994  18.871  27.701  0.0818  0.2867  0.1205
  542BOLB   C3C13003   6.369  18.608  27.467  0.5060 -0.0186  0.0566
  542BOLB   C4C13004   6.840  18.518  27.555  0.1234 -0.1261 -0.1355
  542BOLB   C1D13005   5.779  19.423  27.911  0.2937 -0.0637 -0.1629
  542BOLB   C2D13006   6.094  19.231  28.081 -0.0635 -0.0244 -0.1169
  542BOLB   C3D13007   6.449  19.216  28.368  0.2788  0.1495  0.2956
  542BOLB   C4D13008   6.601  19.272  28.771 -0.0132  0.1235 -0.1821
  543BOLB   NC113009   3.877  13.856  35.160  0.0992 -0.4472  0.2485
  543BOLB   PO113010   4.236  13.700  35.322 -0.2071 -0.0879 -0.0203
  543BOLB   GL113011   4.560  13.384  35.162 -0.2995 -0.0670  0.2765
  543BOLB   GL213012   4.668  13.393  34.820 -0.2407 -0.5370 -0.2736
  543BOLB   C1A13013   5.037  13.414  35.219  0.0574  0.2494 -0.0543
  543BOLB   C2A13014   5.441  13.685  35.230  0.1540  0.2882 -0.0004
  543BOLB   C3A13015   5.751  13.482  34.958 -0.1114 -0.2541 -0.1158
  543BOLB   C4A13016   6.106  13.314  35.106 -0.2276 -0.1422  0.1414
  543BOLB   C1B13017   4.940  13.308  34.586  0.0356 -0.1212  0.2432
  543BOLB   C2B13018   5.246  13.103  34.412  0.1941 -0.0316 -0.1807
  543BOLB   C3B13019   5.598  13.088  34.378  0.0978  0.0551  0.1482
  543BOLB   C4B13020   5.827  12.750  34.217 -0.1395 -0.1230 -0.3437
  543BOLB   NC213021   4.247  13.194  36.184  0.2746  0.0641 -0.0396
  543BOLB   PO213022   4.465  13.355  36.567 -0.0413 -0.0750 -0.2448
  543BOLB   GL313023   4.944  13.500  36.433  0.2291  0.1146  0.3894
  543BOLB   GL413024   4.800  13.240  36.278  0.1647 -0.1374  0.0335
  543BOLB   C1C13025   5.329  13.293  36.293 -0.0199  0.1811  0.2860
  543BOLB   C2C13026   5.718  13.458  36.139  0.0315  0.0110 -0.0030
  543BOLB   C3C13027   6.090  13.557  35.805  0.0479  0.4014 -0.0982
  543BOLB   C4C13028   6.242  13.252  35.452  0.0435 -0.1251  0.2544
  543BOLB   C1D13029   4.963  13.325  35.943  0.0655 -0.1023 -0.1356
  543BOLB   C2D13030   4.842  13.078  35.612 -0.1276  0.1496  0.0123
  543BOLB   C3D13031   5.272  13.007  35.347  0.0412 -0.2620 -0.0502
  543BOLB   C4D13032   5.402  13.144  34.999 -0.2425 -0.0365 -0.1587
  544BOLB   NC113033  20.472  17.306  36.253  0.2458  0.2303 -0.1054
  544BOLB   PO113034  20.412  16.911  36.650  0.1498  0.1793  0.1459
  544BOLB   GL113035  20.606  17.318  36.779  0.2404  0.0923  0.1514
  544BOLB   GL213036  20.840  17.262  36.528  0.2842 -0.1734 -0.3780
  544BOLB   C1A13037  20.650  17.596  37.134  0.4151 -0.0926  0.0429
  544BOLB   C2A13038  20.641  18.013  37.437 -0.2432 -0.0878  0.2331
  544BOLB   C3A13039  20.654  18.440  37.493 -0.3869 -0.3730 -0.1617
  544BOLB   C4A13040  20.798  18.737  37.635 -0.1344 -0.3033  0.3689
  544BOLB   C1B13041  20.993  17.600  36.652 -0.0761 -0.1166 -0.1870
  544BOLB   C2B13042  21.099  17.752  36.951 -0.1969  0.0684 -0.2187
  544BOLB   C3B13043  21.074  17.784  37.369 -0.2687  0.1545  0.0220
  544BOLB   C4B13044  21.231  17.587  37.683 -0.2612  0.0439 -0.1391
  544BOLB   NC213045  22.125  18.584  39.886 -0.0335  0.3463 -0.4495
  544BOLB   PO213046  21.758  18.954  39.969 -0.1010  0.1480 -0.3051
  544BOLB   GL313047  21.676  18.767  39.501 -0.0814  0.0903 -0.1067
  544BOLB   GL413048  21.346  18.545  39.485  0.2566  0.2583  0.1257
  544BOLB   C1C13049  21.566  18.721  39.095  0.2313 -0.0006  0.3292
  544BOLB   C2C13050  21.419  18.600  38.701  0.0875 -0.2611  0.0920
  544BOLB   C3C13051  21.199  18.656  38.372  0.3583 -0.1190  0.0013
  544BOLB   C4C13052  20.984  18.828  37.983  0.0977  0.3769  0.2495
  544BOLB   C1D13053  21.190  18.309  39.271 -0.0467  0.0240 -0.0614
  544BOLB   C2D13054  21.184  18.025  38.955 -0.4416  0.1742 -0.2894
  544BOLB   C3D13055  20.790  17.780  38.673  0.3296 -0.1276 -0.1270
  544BOLB   C4D13056  20.795  17.669  38.327 -0.1824 -0.2336  0.0818
  545BOLB   NC113057  20.407  11.574  38.665  0.0361  0.3511 -0.0130
  545BOLB   PO113058  20.363  11.139  38.514 -0.0447 -0.0000 -0.2605
  545BOLB   GL113059  20.673  11.256  38.937  0.0612  0.4841  0.2572
  545BOLB   GL213060  20.734  10.994  39.014 -0.1482  0.1811  0.0369
  545BOLB   C1A13061  20.983  11.444  39.065 -0.0452 -0.0543 -0.0047
  545BOLB   C2A13062  21.168  11.587  39.394 -0.0371  0.0239  0.1124
  545BOLB   C3A13063  21.150  11.389  39.780 -0.1264 -0.2271 -0.0582
  545BOLB   C4A13064  21.236  11.343  40.280  0.0380  0.0266  0.4393
  545BOLB   C1B13065  21.090  11.034  39.391 -0.0992  0.2863 -0.1133
  545BOLB   C2B13066  21.438  11.026  39.492  0.2131 -0.0549 -0.0508
  545BOLB   C3B13067  21.839  11.158  39.714  0.0222  0.0913 -0.0547
  545BOLB   C4B13068  22.298  11.207  39.801 -0.2503 -0.0573 -0.2095
  545BOLB   NC213069  22.072  12.191  42.497  0.2398  0.1888  0.2475
  545BOLB   PO213070  22.164  12.520  42.049  0.1203  0.3004  0.0200
  545BOLB   GL313071  21.904  12.373  41.818 -0.0476  0.0462  0.0899
  545BOLB   GL413072  21.820  12.578  41.499 -0.0056 -0.0789  0.0087
  545BOLB   C1C13073  21.829  12.025  41.471  0.0203  0.2719 -0.1411
  545BOLB   C2C13074  21.497  11.959  41.244  0.3985 -0.0070 -0.1160
  545BOLB   C3C13075  21.442  11.749  40.773  0.1306 -0.1928 -0.0432
  545BOLB   C4C13076  21.321  11.657  40.437 -0.4164 -0.1673 -0.2628
  545BOLB   C1D13077  21.567  12.475  41.089 -0.2057 -0.1840  0.1397
  545BOLB   C2D13078  21.497  12.281  40.647 -0.0508  0.1712 -0.0583
  545BOLB   C3D13079  21.145  12.165  40.424 -0.1052  0.1127  0.2367
  545BOLB   C4D13080  20.809  12.084  40.396 -0.0356 -0.1067 -0.2716
  546BOLB   NC113081  14.576  20.344  32.472  0.1750  0.0366 -0.1896
  546BOLB   PO113082  14.719  20.747  32.379  0.1106 -0.3215 -0.0416
  546BOLB   GL113083  14.594  21.115  32.450 -0.2184  0.0059 -0.2601
  546BOLB   GL213084  14.473  21.240  32.831 -0.1648 -0.0736  0.1448
  546BOLB   C1A13085  14.911  21.528  32.399  0.2907  0.0279  0.1046
  546BOLB   C2A13086  15.168  21.876  32.354  0.1486 -0.1236 -0.1300
  546BOLB   C3A13087  15.354  22.354  32.425  0.1134 -0.2682 -0.0344
  546BOLB   C4A13088  15.420  22.753  32.350  0.1432  0.0256  0.0940
  546BOLB   C1B13089  14.606  21.668  32.753 -0.2402  0.1301  0.3018
  546BOLB   C2B13090  14.784  22.072  32.888 -0.0289  0.1269  0.0675
  546BOLB   C3B13091  15.155  22.359  32.939  0.0937  0.0934  0.4404
  546BOLB   C4B13092  15.379  22.778  33.087 -0.1231  0.2285  0.2012
  546BOLB   NC213093  15.692  25.573  32.123 -0.0679  0.1621 -0.1223
  546BOLB   PO213094  15.882  25.130  32.250 -0.1384 -0.0921 -0.1120
  546BOLB   GL313095  15.868  24.720  32.018  0.2473 -0.2253 -0.1666
  546BOLB   GL413096  16.028  24.771  31.757 -0.4810 -0.0474 -0.1134
  546BOLB   C1C13097  15.713  24.356  31.927  0.0592 -0.0508 -0.2518
  546BOLB   C2C13098  15.524  24.025  32.248  0.2665 -0.0451 -0.1832
  546BOLB   C3C13099  15.290  23.626  32.328 -0.1321  0.1968  0.1959
  546BOLB   C4C13100  15.492  23.176  32.314  0.1465 -0.0671  0.2151
  546BOLB   C1D13101  15.819  24.525  31.376  0.0563 -0.0918  0.2131
  546BOLB   C2D13102  15.595  24.387  30.992  0.0719  0.0197  0.1398
  546BOLB   C3D13103  15.477  24.394  30.489 -0.0558  0.1087  0.4456
  546BOLB   C4D13104  15.714  24.717  30.125  0.1765  0.0476 -0.1452
  547BOLB   NC113105  13.044  11.797  39.442  0.0083 -0.1303  0.2041
  547BOLB   PO113106  12.897  11.676  39.108 -0.1553 -0.0197 -0.1698
  547BOLB   GL113107  12.623  11.477  39.376 -0.0316  0.0122  0.1649
  547BOLB   GL213108  12.676  11.465  39.654  0.3673 -0.0362  0.0330
  547BOLB   C1A13109  12.250  11.250  39.716 -0.0791  0.4526  0.1090
  547BOLB   C2A13110  11.824  11.211  39.819 -0.1347  0.1306  0.0229
  547BOLB   C3A13111  11.439  11.241  39.727 -0.0150 -0.2067  0.1823
  547BOLB   C4A13112  11.167  11.329  39.961 -0.1048  0.3006  0.1713
  547BOLB   C1B13113  12.570  11.441  40.104 -0.0519  0.1514  0.3136
  547BOLB   C2B13114  12.257  11.417  40.331  0.0529  0.0680  0.0576
  547BOLB   C3B13115  11.875  11.455  40.386  0.1986  0.0653 -0.0146
  547BOLB   C4B13116  11.580  11.483  40.688  0.2653  0.2001 -0.0176
  547BOLB   NC213117   9.484  10.843  42.016 -0.2039  0.3704  0.1957
  547BOLB   PO213118   9.924  11.029  42.119  0.1394 -0.1301 -0.3783
  547BOLB   GL313119  10.120  10.981  41.771  0.2530  0.0697  0.1828
  547BOLB   GL413120  10.012  10.686  41.735  0.2775  0.2589  0.0414
  547BOLB   C1C13121  10.362  11.176  41.466 -0.0192 -0.5332 -0.1174
  547BOLB   C2C13122  10.601  11.436  41.186  0.1475 -0.1144 -0.0480
  547BOLB   C3C13123  10.613  11.492  40.737 -0.2781 -0.4305 -0.0479
  547BOLB   C4C13124  10.783  11.304  40.252  0.0471  0.1789  0.0386
  547BOLB   C1D13125  10.089  10.412  41.373 -0.3016 -0.1116 -0.1853
  547BOLB   C2D13126  10.361  10.588  41.116  0.1725 -0.1960  0.1657
  547BOLB   C3D13127  10.589  10.476  40.835  0.1035 -0.2349 -0.1685
  547BOLB   C4D13128  10.710  10.339  40.394 -0.2858 -0.0104 -0.0819
  548BOLB   NC113129   9.275  17.929  28.998 -0.2896  0.2722 -0.0377
  548BOLB   PO113130   9.080  18.182  28.795 -0.0983  0.0643 -0.0314
  548BOLB   GL113131   8.796  18.642  28.778 -0.2235 -0.0981  0.1639
  548BOLB   GL213132   8.932  18.913  28.899 -0.0944  0.1211  0.3390
  548BOLB   C1A13133   8.502  18.817  28.461 -0.4021 -0.0406  0.0933
  548BOLB   C2A13134   8.242  19.127  28.304  0.0024 -0.3388  0.0957
  548BOLB   C3A13135   8.034  19.424  27.967  0.1757  0.2655  0.2964
  548BOLB   C4A13136   7.714  19.397  27.589  0.1641  0.1048  0.1473
  548BOLB   C1B13137   8.585  19.227  28.736  0.1256 -0.1007  0.1890
  548BOLB   C2B13138   8.466  19.575  28.625  0.0370 -0.1191  0.3059
  548BOLB   C3B13139   8.221  19.669  28.311  0.1968  0.1746  0.1603
  548BOLB   C4B13140   8.020  19.887  28.047 -0.0283 -0.1240  0.0854
  548BOLB   NC213141   6.077  20.436  25.800  0.0176 -0.0898 -0.0927
  548BOLB   PO213142   6.039  20.740  26.061 -0.0016 -0.3312  0.0507
  548BOLB   GL313143   6.377  20.474  26.180 -0.0246 -0.0422 -0.1301
  548BOLB   GL413144   6.264  20.158  26.192  0.0489  0.0545  0.1462
  548BOLB   C1C13145   6.659  20.509  26.599  0.1679 -0.3409 -0.1947
  548BOLB   C2C13146   6.845  20.139  26.827 -0.1381  0.3072  0.3953
  548BOLB   C3C13147   7.133  19.754  27.064  0.3656 -0.0390  0.0667
  548BOLB   C4C13148   7.326  19.516  27.377  0.0355  0.0756  0.1771
  548BOLB   C1D13149   6.691  20.074  26.327  0.2823 -0.0158  0.0214
  548BOLB   C2D13150   7.060  19.716  26.378  0.2022  0.0241 -0.0427
  548BOLB   C3D13151   7.471  19.566  26.210 -0.1609  0.2801  0.2355
  548BOLB   C4D13152   7.786  19.794  26.210 -0.2098 -0.1879 -0.0875
  549BOLB   NC113153  19.692  17.745  16.446  0.0685  0.0134  0.0237
  549BOLB   PO113154  20.069  17.930  16.678 -0.0074 -0.2334  0.0080
  549BOLB   GL113155  20.114  17.678  16.988 -0.0985 -0.2572 -0.0289
  549BOLB   GL213156  19.966  17.899  17.267 -0.0599 -0.2236  0.3652
  549BOLB   C1A13157  19.791  17.464  17.332  0.2480 -0.0737  0.1084
  549BOLB   C2A13158  19.370  17.576  17.471 -0.1157 -0.1516 -0.1164
  549BOLB   C3A13159  19.211  17.745  17.900 -0.5185  0.2064  0.0867
  549BOLB   C4A13160  18.993  17.964  18.268 -0.2471  0.1261  0.0875
  549BOLB   C1B13161  19.738  17.854  17.640  0.0845  0.1800  0.2625
  549BOLB   C2B13162  19.671  17.485  17.870  0.0864 -0.0535  0.0169
  549BOLB   C3B13163  19.679  17.224  18.273 -0.0282  0.0619  0.0327
  549BOLB   C4B13164  19.449  16.987  18.519 -0.1967  0.1679  0.1149
  549BOLB   NC213165  19.713  19.950  18.370 -0.1103  0.1581 -0.1972
  549BOLB   PO213166  19.615  19.586  18.136 -0.2481  0.0702  0.0301
  549BOLB   GL313167  19.315  19.424  18.426  0.0084 -0.0273 -0.0692
  549BOLB   GL413168  19.158  19.245  18.138  0.2324  0.1993  0.0004
  549BOLB   C1C13169  18.928  19.211  18.606  0.1669 -0.2988  0.5967
  549BOLB   C2C13170  18.810  18.963  18.915 -0.1386  0.0271  0.1189
  549BOLB   C3C13171  18.895  18.567  18.846  0.0303 -0.4452 -0.0538
  549BOLB   C4C13172  18.871  18.206  18.604  0.0652 -0.0415  0.3439
  549BOLB   C1D13173  19.320  18.922  18.379  0.0773 -0.2767  0.1062
  549BOLB   C2D13174  19.254  18.482  18.225 -0.0660  0.1594  0.1637
  549BOLB   C3D13175  19.518  18.221  18.005  0.2542  0.0051  0.2592
  549BOLB   C4D13176  19.650  17.925  18.098 -0.1242  0.0266  0.1788
  550BOLB   NC113177  10.140   7.306  27.371  0.1404  0.1541  0.1436
  550BOLB   PO113178  10.329   7.048  27.045  0.1151 -0.1745 -0.1630
  550BOLB   GL113179  10.078   6.759  26.750  0.0369  0.4563  0.3044
  550BOLB   GL213180   9.950   6.510  26.959  0.0166 -0.3110 -0.0467
  550BOLB   C1A13181   9.839   6.435  26.487 -0.2258  0.2011 -0.1511
  550BOLB   C2A13182   9.484   6.097  26.437  0.0352 -0.2770  0.2109
  550BOLB   C3A13183   9.031   5.960  26.398  0.1512  0.1775  0.2218
  550BOLB   C4A13184   8.753   5.687  26.121  0.1157 -0.2048  0.1342
  550BOLB   C1B13185   9.527   6.466  26.955 -0.3800 -0.1372 -0.1907
  550BOLB   C2B13186   9.242   6.126  27.177 -0.0676  0.0471  0.1913
  550BOLB   C3B13187   8.848   6.071  27.367  0.1088  0.3617  0.0762
  550BOLB   C4B13188   8.518   5.732  27.404  0.0457 -0.0133  0.0692
  550BOLB   NC213189   7.491   3.910  25.243 -0.4703  0.0700  0.2137
  550BOLB   PO213190   7.846   4.107  25.352 -0.2874  0.0344 -0.3662
  550BOLB   GL313191   8.149   4.400  25.510 -0.0108  0.1359 -0.1863
  550BOLB   GL413192   8.424   4.195  25.490 -0.0256  0.2685 -0.1102
  550BOLB   C1C13193   8.064   4.808  25.620 -0.1857 -0.1865  0.1472
  550BOLB   C2C13194   7.887   5.184  25.637 -0.2712  0.2398 -0.2530
  550BOLB   C3C13195   8.054   5.463  25.863  0.1235  0.0411  0.0210
  550BOLB   C4C13196   8.304   5.602  25.983 -0.6561  0.0113 -0.1064
  550BOLB   C1D13197   8.822   4.275  25.299  0.0299 -0.2061  0.2128
  550BOLB   C2D13198   9.114   4.175  24.977 -0.3338 -0.1171  0.2791
  550BOLB   C3D13199   9.346   4.502  24.731  0.1266 -0.1457  0.4795
  550BOLB   C4D13200   9.336   4.951  24.905 -0.0992  0.0037  0.5559
  551BOLB   NC113201  11.085   5.949  27.126 -0.2801  0.1559 -0.1983
  551BOLB   PO113202  10.792   5.761  27.426 -0.0002 -0.2075  0.1363
  551BOLB   GL113203  10.670   5.576  27.098  0.2330 -0.3634  0.0356
  551BOLB   GL213204  10.754   5.717  26.851 -0.0086 -0.0277  0.1053
  551BOLB   C1A13205  10.415   5.255  26.817 -0.2739  0.1777  0.0704
  551BOLB   C2A13206  10.297   5.020  26.621 -0.0088 -0.1171 -0.0004
  551BOLB   C3A13207   9.853   4.914  26.572 -0.0153  0.1344  0.1918
  551BOLB   C4A13208   9.658   4.697  26.970 -0.2831  0.0982  0.0355
  551BOLB   C1B13209  10.444   5.693  26.575 -0.3431 -0.2155 -0.4426
  551BOLB   C2B13210  10.229   5.454  26.239  0.0385 -0.1590 -0.1111
  551BOLB   C3B13211   9.775   5.225  26.138 -0.1369  0.2472 -0.2855
  551BOLB   C4B13212   9.449   5.057  26.137  0.1254 -0.2168 -0.1372
  551BOLB   NC213213   7.905   3.237  27.649  0.1583 -0.1710  0.0728
  551BOLB   PO213214   8.055   3.440  28.035 -0.2412  0.0808  0.1074
  551BOLB   GL313215   8.245   3.682  27.830  0.1052  0.1616 -0.0062
  551BOLB   GL413216   8.552   3.562  27.976  0.0197  0.0355 -0.1885
  551BOLB   C1C13217   8.600   4.018  27.800  0.1143  0.0223 -0.0879
  551BOLB   C2C13218   8.853   4.290  27.586 -0.1427  0.1169 -0.0795
  551BOLB   C3C13219   9.079   4.631  27.404  0.0232  0.1412  0.0927
  551BOLB   C4C13220   9.498   4.704  27.386  0.0749  0.0128  0.0518
  551BOLB   C1D13221   8.991   3.491  27.914 -0.1179  0.2951  0.2090
  551BOLB   C2D13222   9.209   3.880  27.726  0.0268 -0.0320 -0.2850
  551BOLB   C3D13223   9.545   4.185  27.675 -0.1608 -0.1369 -0.1339
  551BOLB   C4D13224   9.748   4.513  27.815  0.3454 -0.2335 -0.0215
  552BOLB   NC113225  17.590  19.856  26.557  0.0790  0.0228  0.0840
  552BOLB   PO113226  17.844  19.546  26.469  0.2330  0.0637  0.0799
  552BOLB   GL113227  18.211  19.764  26.349 -0.2435  0.2520 -0.0951
  552BOLB   GL213228  18.468  19.720  26.095 -0.1208 -0.1034 -0.0024
  552BOLB   C1A13229  18.575  20.021  26.579 -0.1791 -0.1879  0.2929
  552BOLB   C2A13230  18.843  20.480  26.564 -0.2534 -0.3375  0.4355
  552BOLB   C3A13231  19.116  20.825  26.780  0.1019  0.2021  0.0572
  552BOLB   C4A13232  19.491  21.167  26.838 -0.1331  0.2076 -0.0459
  552BOLB   C1B13233  18.646  20.197  26.114  0.2768  0.0579 -0.0272
  552BOLB   C2B13234  19.022  20.483  26.091 -0.0149 -0.1342 -0.1291
  552BOLB   C3B13235  19.064  20.741  25.923 -0.1044  0.0373  0.0794
  552BOLB   C4B13236  18.948  21.167  26.075  0.1912 -0.1807 -0.1333
  552BOLB   NC213237  21.424  22.611  25.822 -0.3125 -0.2827  0.0997
  552BOLB   PO213238  21.061  22.531  26.170  0.2160  0.0580 -0.0275
  552BOLB   GL313239  20.651  22.286  26.115  0.1629 -0.0590 -0.1255
  552BOLB   GL413240  20.422  22.294  26.334  0.0573 -0.0213  0.1058
  552BOLB   C1C13241  20.674  21.893  26.004 -0.0172 -0.0743 -0.1716
  552BOLB   C2C13242  20.418  21.560  26.131 -0.1101  0.2546  0.3483
  552BOLB   C3C13243  19.968  21.465  26.193 -0.3426  0.3986  0.1094
  552BOLB   C4C13244  19.753  21.304  26.510  0.0740  0.0569 -0.0780
  552BOLB   C1D13245  20.187  21.956  26.358 -0.5716 -0.0090  0.1526
  552BOLB   C2D13246  19.747  21.878  26.603 -0.1582  0.4729  0.0586
  552BOLB   C3D13247  19.287  22.081  26.511  0.2318  0.0704 -0.1853
  552BOLB   C4D13248  18.877  22.064  26.247 -0.0825  0.1060 -0.1960
  553BOLB   NC113249  16.541   4.585  25.907 -0.1597  0.2137  0.1374
  553BOLB   PO113250  16.170   4.651  25.992  0.4396  0.5064  0.3885
  553BOLB   GL113251  16.056   4.385  25.641  0.2227 -0.0605  0.1910
  553BOLB   GL213252  15.751   4.549  25.468 -0.3147 -0.2235 -0.0071
  553BOLB   C1A13253  16.239   4.011  25.498 -0.2648 -0.0327 -0.1155
  553BOLB   C2A13254  16.135   3.636  25.287 -0.1433 -0.0276 -0.0617
  553BOLB   C3A13255  16.145   3.205  25.252  0.0006 -0.0623 -0.3739
  553BOLB   C4A13256  16.313   2.898  25.162  0.0749  0.0726  0.1085
  553BOLB   C1B13257  15.746   4.046  25.436 -0.1503 -0.1609 -0.2654
  553BOLB   C2B13258  15.682   3.770  25.148 -0.1440  0.1423  0.1352
  553BOLB   C3B13259  15.682   3.300  25.091  0.0314 -0.2610 -0.2120
  553BOLB   C4B13260  15.695   2.848  25.026  0.3538  0.1927 -0.0058
  553BOLB   NC213261  15.472   0.350  24.428  0.1532 -0.3052  0.2519
  553BOLB   PO213262  15.902   0.665  24.486  0.1047 -0.1859  0.1302
  553BOLB   GL313263  15.986   1.115  24.711  0.2570 -0.0913 -0.4174
  553BOLB   GL413264  15.926   1.188  24.310 -0.1236 -0.4656 -0.0105
  553BOLB   C1C13265  15.784   1.644  24.651 -0.0111  0.1266  0.0980
  553BOLB   C2C13266  15.815   1.874  24.870  0.2347 -0.0286 -0.1184
  553BOLB   C3C13267  15.929   2.210  25.048  0.0689 -0.2315  0.2383
  553BOLB   C4C13268  16.076   2.509  25.145 -0.3339 -0.0488 -0.3033
  553BOLB   C1D13269  16.116   1.569  24.244  0.2662 -0.1644 -0.3232
  553BOLB   C2D13270  16.193   1.973  24.393 -0.2271  0.0527 -0.2242
  553BOLB   C3D13271  16.062   2.353  24.624 -0.2590  0.3179  0.1996
  553BOLB   C4D13272  16.396   2.547  24.800 -0.1062  0.0416  0.0792
  554BOLB   NC113273  21.320  16.575  29.840 -0.0271  0.0582  0.0490
  554BOLB   PO113274  21.560  16.745  29.979 -0.0264 -0.0142 -0.2575
  554BOLB   GL113275  21.650  17.058  30.123  0.2640 -0.2193 -0.4090
  554BOLB   GL213276  21.305  17.297  30.279 -0.2627  0.0121 -0.0885
  554BOLB   C1A13277  21.966  17.407  29.991  0.0084 -0.0231  0.0199
  554BOLB   C2A13278  22.398  17.443  30.156 -0.0837  0.2490 -0.0211
  554BOLB   C3A13279  22.823  17.637  30.182  0.4243  0.2860 -0.1138
  554BOLB   C4A13280  23.265  17.723  30.399 -0.0170 -0.3015  0.4493
  554BOLB   C1B13281  21.599  17.701  30.435 -0.3569  0.0224  0.0758
  554BOLB   C2B13282  22.094  17.849  30.289  0.1174  0.0243 -0.3622
  554BOLB   C3B13283  22.227  17.900  29.844  0.2154  0.0158 -0.1330
  554BOLB   C4B13284  22.641  18.059  29.670  0.0746 -0.0628  0.0359
  554BOLB   NC213285  25.525  19.225  30.309 -0.0031 -0.1094  0.1181
  554BOLB   PO213286  25.432  18.861  30.326  0.2532 -0.1257  0.3365
  554BOLB   GL313287  25.024  18.663  30.405 -0.1938  0.0963  0.1681
  554BOLB   GL413288  24.924  18.763  30.179 -0.0962  0.1069  0.1226
  554BOLB   C1C13289  24.693  18.535  30.547 -0.1389 -0.0903  0.0961
  554BOLB   C2C13290  24.365  18.218  30.475  0.1866 -0.3530  0.1313
  554BOLB   C3C13291  23.887  18.139  30.423  0.0518  0.0000 -0.0625
  554BOLB   C4C13292  23.595  17.951  30.483  0.0845 -0.1122  0.0163
  554BOLB   C1D13293  24.449  18.632  30.036 -0.1607  0.2356  0.1912
  554BOLB   C2D13294  23.964  18.538  30.146  0.2427  0.0691  0.0937
  554BOLB   C3D13295  23.523  18.208  30.019  0.0978 -0.2425 -0.0534
  554BOLB   C4D13296  23.209  17.981  29.916  0.1225  0.1167 -0.1113
  555BOLB   NC113297  10.850  15.331  22.663  0.2102 -0.1830  0.0527
  555BOLB   PO113298  10.679  14.898  22.678 -0.2807 -0.3750  0.0723
  555BOLB   GL113299  10.304  15.014  22.420  0.1085  0.4448  0.1733
  555BOLB   GL213300  10.120  14.764  22.420  0.3568  0.1489  0.0208
  555BOLB   C1A13301  10.086  15.353  22.417  0.1021 -0.1044  0.0465
  555BOLB   C2A13302   9.643  15.515  22.472 -0.0094  0.0106 -0.0088
  555BOLB   C3A13303   9.214  15.749  22.308  0.0031 -0.1003  0.3682
  555BOLB   C4A13304   8.724  15.937  22.173  0.2379  0.2051 -0.1109
  555BOLB   C1B13305   9.841  14.828  22.149 -0.2059 -0.0781 -0.0631
  555BOLB   C2B13306   9.801  14.997  21.751  0.1778  0.0453 -0.1981
  555BOLB   C3B13307   9.366  15.068  21.527 -0.0278  0.2879  0.2286
  555BOLB   C4B13308   9.128  15.433  21.551 -0.2034  0.2244  0.2011
  555BOLB   NC213309   6.997  15.429  21.029 -0.1553  0.0732 -0.2381
  555BOLB   PO213310   6.698  15.387  21.293  0.1428  0.1880 -0.3138
  555BOLB   GL313311   7.052  15.186  21.455  0.0913  0.3289 -0.3421
  555BOLB   GL413312   6.933  15.084  21.778 -0.3868 -0.1021  0.2668
  555BOLB   C1C13313   7.524  15.289  21.395  0.0147 -0.1710  0.0595
  555BOLB   C2C13314   7.895  15.253  21.569  0.3938  0.0889 -0.2011
  555BOLB   C3C13315   8.201  15.338  21.798 -0.2935 -0.0853 -0.0721
  555BOLB   C4C13316   8.400  15.689  21.969 -0.0358 -0.0498  0.3454
  555BOLB   C1D13317   7.165  14.834  22.175  0.0448 -0.2499 -0.0840
  555BOLB   C2D13318   7.318  14.908  22.554 -0.1182  0.2360  0.0898
  555BOLB   C3D13319   7.607  14.631  22.879 -0.0160 -0.0680 -0.0141
  555BOLB   C4D13320   8.072  14.620  23.084  0.0768  0.0357 -0.1161
  556BOLB   NC113321  23.290  10.037  29.297  0.1455 -0.1053  0.3010
  556BOLB   PO113322  23.664  10.405  29.357  0.5306  0.0743 -0.0731
  556BOLB   GL113323  24.001  10.190  29.392 -0.3671  0.0022 -0.0322
  556BOLB   GL213324  24.230   9.996  29.561 -0.0918 -0.0462  0.0232
  556BOLB   C1A13325  24.379  10.471  29.435  0.1320 -0.0643  0.4665
  556BOLB   C2A13326  24.593  10.563  29.121  0.1582 -0.1300 -0.0808
  556BOLB   C3A13327  24.957  10.417  28.867 -0.1755 -0.3556  0.1886
  556BOLB   C4A13328  25.351  10.254  28.644  0.1254  0.1550 -0.3084
  556BOLB   C1B13329  24.489  10.062  29.209  0.4266  0.2100  0.3732
  556BOLB   C2B13330  24.880   9.940  29.228 -0.0322 -0.1690 -0.0682
  556BOLB   C3B13331  25.050   9.880  28.869  0.2032 -0.0282 -0.2653
  556BOLB   C4B13332  24.932   9.843  28.436  0.4081  0.2564  0.0769
  556BOLB   NC213333   0.371   9.684  27.146 -0.0926  0.1947 -0.1198
  556BOLB   PO213334   0.301   9.509  27.647  0.1002 -0.1583  0.1112
  556BOLB   GL313335  26.939   9.510  27.821  0.0440 -0.5379  0.3881
  556BOLB   GL413336  26.876   9.210  27.870  0.1361 -0.3519  0.2548
  556BOLB   C1C13337  26.641   9.974  27.796  0.1995 -0.0018 -0.1634
  556BOLB   C2C13338  26.185  10.009  27.773 -0.1392  0.0316  0.0228
  556BOLB   C3C13339  25.761   9.975  27.934 -0.2590  0.1555 -0.1137
  556BOLB   C4C13340  25.360  10.084  28.248  0.0410  0.1062  0.0721
  556BOLB   C1D13341  26.546   9.194  28.173 -0.4429 -0.1230  0.3616
  556BOLB   C2D13342  26.100   9.217  28.231  0.1144  0.2188  0.1508
  556BOLB   C3D13343  25.578   9.112  28.238  0.1467  0.1042  0.2158
  556BOLB   C4D13344  25.492   8.662  28.169  0.0768  0.0742 -0.0009
  557BOLB   NC113345  13.274  17.340  37.241  0.0519  0.0610 -0.4408
  557BOLB   PO113346  13.673  17.615  37.363  0.2341  0.1038 -0.0613
  557BOLB   GL113347  13.453  17.939  37.710  0.3272  0.1561 -0.1636
  557BOLB   GL213348  13.364  17.824  37.961 -0.1374  0.0515  0.0559
  557BOLB   C1A13349  13.593  18.276  37.861 -0.1132 -0.1244 -0.1438
  557BOLB   C2A13350  13.553  18.474  38.240  0.1863  0.0655  0.0687
  557BOLB   C3A13351  13.429  18.742  38.492  0.1787  0.2677 -0.1617
  557BOLB   C4A13352  13.327  19.171  38.809  0.1019 -0.1822  0.1233
  557BOLB   C1B13353  13.357  17.974  38.386  0.1075 -0.5753  0.2578
  557BOLB   C2B13354  13.086  18.286  38.596 -0.2982 -0.0435 -0.1858
  557BOLB   C3B13355  12.844  18.586  38.858 -0.3790 -0.1605  0.1113
  557BOLB   C4B13356  12.494  18.890  38.937  0.1828 -0.1580  0.0190
  557BOLB   NC213357  13.466  21.033  40.484 -0.0519  0.3296  0.1908
  557BOLB   PO213358  13.928  20.751  40.517  0.0598  0.1656 -0.1182
  557BOLB   GL313359  13.731  20.556  40.172  0.0696 -0.2283 -0.0754
  557BOLB   GL413360  13.396  20.646  40.225 -0.1931  0.0702 -0.1670
  557BOLB   C1C13361  13.594  20.082  40.161 -0.0848 -0.0619 -0.1362
  557BOLB   C2C13362  13.679  19.796  39.834  0.4558 -0.2902 -0.1569
  557BOLB   C3C13363  13.695  19.362  39.564  0.0059 -0.4280  0.2232
  557BOLB   C4C13364  13.504  19.267  39.210  0.0533 -0.0946  0.0156
  557BOLB   C1D13365  13.162  20.360  39.988 -0.0396 -0.0436 -0.0309
  557BOLB   C2D13366  13.244  20.013  39.747  0.2900  0.1708  0.1931
  557BOLB   C3D13367  13.275  19.649  39.484  0.0438  0.1038 -0.0309
  557BOLB   C4D13368  13.155  19.207  39.556 -0.1269 -0.2566 -0.2986
  558BOLB   NC113369  22.048   8.564  34.406 -0.0806 -0.2751 -0.0967
  558BOLB   PO113370  22.271   8.929  34.438  0.0649  0.1148 -0.0070
  558BOLB   GL113371  22.612   8.645  34.449 -0.1229 -0.0004  0.3867
  558BOLB   GL213372  22.808   8.871  34.375 -0.2140  0.0669 -0.3756
  558BOLB   C1A13373  22.689   8.348  34.498 -0.2256 -0.6061  0.2330
  558BOLB   C2A13374  23.099   8.152  34.485  0.0598 -0.0333  0.0021
  558BOLB   C3A13375  23.326   7.919  34.674 -0.2186  0.0933  0.1584
  558BOLB   C4A13376  23.729   7.726  34.572 -0.0484 -0.1074 -0.0115
  558BOLB   C1B13377  23.113   8.624  34.485 -0.1997  0.0341  0.0192
  558BOLB   C2B13378  23.463   8.467  34.571  0.0977  0.0160  0.0514
  558BOLB   C3B13379  23.784   8.317  34.314 -0.1625  0.2126  0.0553
  558BOLB   C4B13380  24.219   8.156  34.079  0.0195 -0.3338  0.0083
  558BOLB   NC213381  26.476   6.419  35.018  0.2304  0.0203 -0.2334
  558BOLB   PO213382  26.246   6.725  34.860 -0.0183 -0.1604  0.0561
  558BOLB   GL313383  25.719   6.797  34.795  0.1191 -0.3198 -0.0851
  558BOLB   GL413384  25.513   6.734  34.948 -0.1279 -0.0227 -0.1466
  558BOLB   C1C13385  25.360   7.148  34.796 -0.0851  0.0597  0.1126
  558BOLB   C2C13386  24.850   7.298  34.828 -0.2624 -0.1514 -0.1308
  558BOLB   C3C13387  24.418   7.358  34.717  0.0256 -0.0702  0.0924
  558BOLB   C4C13388  24.085   7.585  34.581 -0.2797 -0.5219 -0.0522
  558BOLB   C1D13389  25.009   6.815  34.935 -0.1874 -0.0889 -0.1083
  558BOLB   C2D13390  24.632   6.805  34.824  0.0121  0.0881 -0.0346
  558BOLB   C3D13391  24.219   6.781  34.766 -0.1776  0.0410 -0.1711
  558BOLB   C4D13392  23.963   6.756  34.452  0.1828  0.1932 -0.0857
  559BOLB   NC113393   9.769  13.690  37.412  0.0282 -0.1444 -0.0851
  559BOLB   PO113394   9.963  13.414  37.612  0.0560 -0.0331 -0.2295
  559BOLB   GL113395   9.636  13.481  37.919  0.0249  0.2042 -0.1155
  559BOLB   GL213396   9.408  13.625  37.726 -0.0880  0.0579  0.0288
  559BOLB   C1A13397   9.320  13.484  38.296  0.1696 -0.1279  0.1468
  559BOLB   C2A13398   8.864  13.366  38.163 -0.0846  0.0958  0.0529
  559BOLB   C3A13399   8.477  13.231  38.304  0.0677  0.0768  0.0720
  559BOLB   C4A13400   8.177  13.284  38.231  0.0728 -0.2637  0.1332
  559BOLB   C1B13401   8.995  13.557  37.703 -0.1019 -0.0125 -0.0668
  559BOLB   C2B13402   8.535  13.439  37.789 -0.1900 -0.2096  0.0285
  559BOLB   C3B13403   8.178  13.648  37.863 -0.3598 -0.1153 -0.1330
  559BOLB   C4B13404   7.971  13.966  38.097 -0.1934  0.1103  0.1558
  559BOLB   NC213405   6.245  14.335  39.548 -0.1189  0.0058 -0.0150
  559BOLB   PO213406   6.626  14.128  39.803  0.3804  0.2472 -0.0793
  559BOLB   GL313407   6.737  13.810  39.467  0.0159 -0.1898  0.2333
  559BOLB   GL413408   6.660  14.128  39.282 -0.4691 -0.1694 -0.2921
  559BOLB   C1C13409   6.926  13.524  39.338  0.2524 -0.1991  0.1637
  559BOLB   C2C13410   7.134  13.654  38.881 -0.0407 -0.1295 -0.1290
  559BOLB   C3C13411   7.401  13.618  38.678  0.0950 -0.3483 -0.2018
  559BOLB   C4C13412   7.801  13.460  38.405 -0.1476  0.0864  0.2780
  559BOLB   C1D13413   7.158  14.106  39.325 -0.1613  0.5315 -0.1464
  559BOLB   C2D13414   7.488  13.836  39.146 -0.1839 -0.0346  0.0690
  559BOLB   C3D13415   7.823  13.662  39.390  0.1037  0.4256  0.2317
  559BOLB   C4D13416   7.887  13.621  39.846 -0.2148 -0.1929  0.1435
  560BOLB   NC113417  17.933  16.765  15.561  0.0438 -0.1072  0.0696
  560BOLB   PO113418  17.779  16.338  15.378 -0.0443  0.2065  0.3679
  560BOLB   GL113419  17.652  16.295  15.788  0.1200 -0.1418 -0.1495
  560BOLB   GL213420  17.461  16.056  15.735 -0.3195 -0.0598 -0.3222
  560BOLB   C1A13421  17.597  16.019  16.229 -0.1576  0.0209  0.1938
  560BOLB   C2A13422  17.725  15.649  16.489  0.1573 -0.0975 -0.0521
  560BOLB   C3A13423  17.949  15.399  16.749 -0.1787  0.2098  0.1182
  560BOLB   C4A13424  18.218  15.251  17.122  0.0785 -0.2889 -0.1730
  560BOLB   C1B13425  17.486  15.609  15.960  0.1811 -0.1501 -0.1477
  560BOLB   C2B13426  17.390  15.339  16.333 -0.0273 -0.0987 -0.0401
  560BOLB   C3B13427  17.286  15.202  16.762 -0.0986 -0.0874  0.0297
  560BOLB   C4B13428  17.398  14.827  17.097 -0.2240  0.0206  0.2091
  560BOLB   NC213429  19.127  15.244  15.286  0.1074  0.0903 -0.0614
  560BOLB   PO213430  19.341  15.020  15.689  0.0005 -0.3142  0.1149
  560BOLB   GL313431  19.180  15.146  16.068  0.0927  0.0805 -0.0874
  560BOLB   GL413432  19.335  15.420  16.141 -0.1078 -0.0249 -0.4057
  560BOLB   C1C13433  19.142  15.025  16.555  0.1540 -0.1772  0.2830
  560BOLB   C2C13434  19.241  14.994  16.940 -0.2210  0.2194  0.0663
  560BOLB   C3C13435  18.984  14.913  17.249 -0.0382 -0.3161 -0.3214
  560BOLB   C4C13436  18.543  15.080  17.325 -0.2093 -0.0288  0.1389
  560BOLB   C1D13437  19.494  15.766  16.427  0.1312  0.0248  0.1063
  560BOLB   C2D13438  19.523  16.161  16.754 -0.0487  0.3685  0.2700
  560BOLB   C3D13439  19.571  16.510  16.979 -0.0967  0.1338  0.1289
  560BOLB   C4D13440  19.632  16.512  17.409 -0.1812  0.0228  0.0768
  561BOLB   NC113441  12.861  10.442  21.502  0.0027 -0.3869 -0.1847
  561BOLB   PO113442  12.510  10.788  21.369  0.0829 -0.1957 -0.4262
  561BOLB   GL113443  12.216  10.643  21.031 -0.1953  0.0663 -0.0686
  561BOLB   GL213444  12.367  10.886  20.712 -0.0299  0.1102  0.3149
  561BOLB   C1A13445  12.191  10.251  20.754  0.0304  0.1236 -0.1720
  561BOLB   C2A13446  12.011  10.039  20.348  0.1320 -0.0490  0.3040
  561BOLB   C3A13447  11.710   9.910  20.035  0.2187 -0.0624  0.0209
  561BOLB   C4A13448  11.283   9.854  19.786 -0.0485  0.2006 -0.0163
  561BOLB   C1B13449  12.457  10.520  20.484  0.1438  0.0574 -0.2527
  561BOLB   C2B13450  12.518  10.262  20.096 -0.3608 -0.3061 -0.1829
  561BOLB   C3B13451  12.640   9.972  19.866  0.1438 -0.1008 -0.0713
  561BOLB   C4B13452  12.855   9.875  19.481  0.4867 -0.0833  0.3936
  561BOLB   NC213453  10.542   9.846  17.767  0.2957 -0.1729  0.0895
  561BOLB   PO213454  10.870  10.003  17.583  0.3035 -0.1978  0.1986
  561BOLB   GL313455  11.266  10.083  17.758  0.4368 -0.0146  0.0080
  561BOLB   GL413456  11.416  10.400  17.845  0.0207  0.0369  0.0559
  561BOLB   C1C13457  11.251   9.984  18.205 -0.1199 -0.0452 -0.0816
  561BOLB   C2C13458  11.037   9.895  18.625 -0.1215 -0.3141 -0.4630
  561BOLB   C3C13459  10.868   9.951  19.084 -0.1790 -0.1246  0.2705
  561BOLB   C4C13460  11.034  10.061  19.529  0.0579 -0.1001  0.1508
  561BOLB   C1D13461  11.688  10.422  18.163  0.0152 -0.0696 -0.0219
  561BOLB   C2D13462  11.805  10.527  18.507  0.0131  0.6754  0.0016
  561BOLB   C3D13463  12.093  10.615  18.847 -0.0926 -0.4376 -0.0416
  561BOLB   C4D13464  12.351  10.606  19.333  0.0732 -0.0115  0.0088
  562BOLB   NC113465   7.504   5.611  36.598 -0.0858  0.0453  0.0201
  562BOLB   PO113466   7.058   5.784  36.381 -0.0280 -0.0771  0.0572
  562BOLB   GL113467   7.185   5.895  36.020 -0.1622  0.2018  0.0194
  562BOLB   GL213468   7.224   6.174  36.049 -0.1788 -0.2169  0.4667
  562BOLB   C1A13469   7.598   5.867  35.787  0.0750  0.2428  0.2206
  562BOLB   C2A13470   7.963   5.863  35.479  0.2810 -0.2035  0.0628
  562BOLB   C3A13471   8.435   6.042  35.450  0.0875 -0.0750  0.1359
  562BOLB   C4A13472   8.849   6.182  35.304 -0.4210 -0.1037  0.3025
  562BOLB   C1B13473   7.676   6.281  35.985 -0.1000 -0.1642  0.0842
  562BOLB   C2B13474   7.956   6.378  35.647  0.2019 -0.1117 -0.3166
  562BOLB   C3B13475   8.344   6.606  35.493 -0.3599 -0.2168 -0.0035
  562BOLB   C4B13476   8.670   6.785  35.539 -0.1803  0.0716 -0.1515
  562BOLB   NC213477   7.878   4.960  35.774  0.1070 -0.1542 -0.1950
  562BOLB   PO213478   7.989   4.557  36.009 -0.1719 -0.1704 -0.3323
  562BOLB   GL313479   8.360   4.878  35.985  0.2164 -0.2246  0.2493
  562BOLB   GL413480   8.592   4.902  35.662 -0.0411  0.0063  0.3789
  562BOLB   C1C13481   8.638   5.118  36.132 -0.0992  0.6121 -0.2025
  562BOLB   C2C13482   8.941   5.508  36.061 -0.1713 -0.0584 -0.0169
  562BOLB   C3C13483   9.260   5.752  35.853 -0.0821 -0.1763 -0.0927
  562BOLB   C4C13484   9.253   6.026  35.518  0.0159  0.0876 -0.1155
  562BOLB   C1D13485   8.636   5.221  35.505  0.1465 -0.2440  0.1512
  562BOLB   C2D13486   8.413   5.557  35.277 -0.2354  0.3493 -0.1704
  562BOLB   C3D13487   8.576   5.817  35.024  0.1430  0.2046  0.2798
  562BOLB   C4D13488   8.402   6.103  34.896  0.0167 -0.0710 -0.1637
  563BOLB   NC113489  14.523  13.758  15.323  0.0038  0.0876  0.0861
  563BOLB   PO113490  14.834  14.082  15.312 -0.1548  0.1718  0.0390
  563BOLB   GL113491  14.827  14.165  15.799  0.3123 -0.0874  0.0594
  563BOLB   GL213492  14.702  14.447  15.923  0.5029 -0.0928 -0.0805
  563BOLB   C1A13493  15.133  13.995  16.127  0.2003 -0.0422  0.3662
  563BOLB   C2A13494  15.438  13.898  16.539  0.2081  0.2051  0.1486
  563BOLB   C3A13495  15.680  13.939  16.812 -0.1721 -0.2523  0.1630
  563BOLB   C4A13496  16.071  14.057  17.064 -0.1790  0.2348 -0.0666
  563BOLB   C1B13497  14.953  14.427  16.334 -0.0314 -0.0024 -0.1498
  563BOLB   C2B13498  14.883  14.805  16.517 -0.1253  0.0821  0.0469
  563BOLB   C3B13499  14.706  15.224  16.561 -0.1052 -0.1131 -0.3883
  563BOLB   C4B13500  14.599  15.605  16.830 -0.2093 -0.0751 -0.4111
  563BOLB   NC213501  16.014  15.153  15.728  0.1917  0.0264 -0.0028
  563BOLB   PO213502  16.000  14.787  15.401 -0.1445  0.0821  0.0180
  563BOLB   GL313503  16.186  14.608  15.765  0.3665  0.4110 -0.2287
  563BOLB   GL413504  16.436  14.427  15.795  0.1569 -0.0143 -0.1828
  563BOLB   C1C13505  16.277  14.735  16.183  0.3539  0.0300  0.0604
  563BOLB   C2C13506  16.383  14.757  16.602  0.0150 -0.0830  0.2139
  563BOLB   C3C13507  16.387  14.631  17.001  0.2353 -0.1095  0.3362
  563BOLB   C4C13508  16.162  14.380  17.277  0.0600  0.1502 -0.0560
  563BOLB   C1D13509  16.109  14.237  16.132 -0.0497  0.2298 -0.1515
  563BOLB   C2D13510  16.108  13.946  16.491 -0.0007  0.0837  0.0976
  563BOLB   C3D13511  16.320  13.708  16.790 -0.1815 -0.3459  0.0569
  563BOLB   C4D13512  16.766  13.601  16.880 -0.1998 -0.0329  0.2601
  564BOLB   NC113513  18.338   6.427  22.419  0.1986  0.0628  0.1261
  564BOLB   PO113514  18.276   6.779  22.224  0.0527  0.2356 -0.0770
  564BOLB   GL113515  18.174   6.417  21.954 -0.2184  0.0039  0.0518
  564BOLB   GL213516  17.956   6.475  21.616 -0.1544 -0.1865 -0.2526
  564BOLB   C1A13517  18.263   5.927  21.928 -0.1089 -0.0044 -0.2502
  564BOLB   C2A13518  18.400   5.476  21.926  0.0035  0.2456  0.3029
  564BOLB   C3A13519  18.209   5.034  21.859 -0.0792 -0.4691 -0.0319
  564BOLB   C4A13520  18.097   4.851  21.581 -0.2941 -0.2877 -0.1138
  564BOLB   C1B13521  18.070   6.082  21.409  0.1568 -0.0039 -0.1390
  564BOLB   C2B13522  18.341   5.721  21.195 -0.0202  0.2642 -0.1134
  564BOLB   C3B13523  18.126   5.392  20.988  0.0867 -0.0246  0.3925
  564BOLB   C4B13524  18.204   5.154  20.692 -0.2422 -0.0904 -0.2438
  564BOLB   NC213525  17.702   2.659  19.864  0.0521  0.1480 -0.3132
  564BOLB   PO213526  17.677   3.113  19.841 -0.0460 -0.1141  0.0867
  564BOLB   GL313527  17.881   3.417  20.116  0.5268 -0.0549 -0.1673
  564BOLB   GL413528  17.785   3.360  20.461  0.0077  0.1471  0.3168
  564BOLB   C1C13529  18.035   3.740  20.296 -0.1564  0.3809 -0.0107
  564BOLB   C2C13530  18.029   3.987  20.675 -0.1426  0.3387 -0.0590
  564BOLB   C3C13531  18.057   4.247  21.067 -0.0617 -0.1077  0.0097
  564BOLB   C4C13532  18.159   4.603  21.294  0.0022 -0.1262  0.0427
  564BOLB   C1D13533  17.420   3.661  20.436  0.0533  0.2676  0.0654
  564BOLB   C2D13534  17.156   3.867  20.110  0.0121  0.2676 -0.0884
  564BOLB   C3D13535  16.792   3.993  19.915 -0.2609  0.1210 -0.2643
  564BOLB   C4D13536  16.406   4.249  19.959 -0.1693  0.3540  0.1401
  565BOLB   NC113537  21.010   5.262  30.869  0.3091 -0.2080  0.0781
  565BOLB   PO113538  20.667   5.160  30.622  0.1805 -0.2441 -0.1319
  565BOLB   GL113539  20.823   4.774  30.574 -0.2578 -0.1523 -0.4704
  565BOLB   GL213540  20.773   4.676  30.318  0.1650  0.0363  0.1518
  565BOLB   C1A13541  21.255   4.594  30.534 -0.1656  0.0879  0.0363
  565BOLB   C2A13542  21.645   4.660  30.515 -0.2532  0.0461 -0.1824
  565BOLB   C3A13543  21.941   4.329  30.479  0.1402 -0.3349  0.2221
  565BOLB   C4A13544  22.192   4.011  30.446 -0.3171  0.0152  0.0022
  565BOLB   C1B13545  20.828   4.217  30.460 -0.0340  0.1631  0.0068
  565BOLB   C2B13546  20.904   3.906  30.253 -0.1292  0.0451 -0.0535
  565BOLB   C3B13547  21.174   3.707  30.077  0.2767 -0.3944 -0.0897
  565BOLB   C4B13548  20.995   3.408  30.024 -0.3458  0.0931 -0.0866
  565BOLB   NC213549  24.177   2.501  31.204 -0.1664 -0.0967 -0.3721
  565BOLB   PO213550  23.828   2.250  30.991  0.1729  0.3088 -0.0314
  565BOLB   GL313551  23.672   2.703  31.012 -0.1673 -0.0892 -0.4938
  565BOLB   GL413552  23.471   2.670  30.662 -0.1524 -0.0253 -0.0092
  565BOLB   C1C13553  23.211   2.759  31.068 -0.0729  0.1894  0.1298
  565BOLB   C2C13554  23.014   2.891  30.771 -0.0918 -0.2468  0.1283
  565BOLB   C3C13555  22.762   3.320  30.782 -0.3718  0.2278 -0.0031
  565BOLB   C4C13556  22.453   3.597  30.559 -0.0866 -0.2623 -0.1661
  565BOLB   C1D13557  23.422   3.124  30.829  0.0406  0.1123  0.0529
  565BOLB   C2D13558  23.325   3.513  30.788  0.2550 -0.0806  0.3669
  565BOLB   C3D13559  23.500   3.875  30.732  0.1439  0.1375 -0.0579
  565BOLB   C4D13560  23.705   4.130  30.415  0.0866  0.3226 -0.0438
  566BOLB   NC113561  10.959   9.454  23.449  0.1690 -0.2277 -0.0340
  566BOLB   PO113562  11.403   9.716  23.377  0.2564 -0.0019 -0.2876
  566BOLB   GL113563  11.037   9.645  23.022 -0.1193  0.1750 -0.1223
  566BOLB   GL213564  11.076   9.797  22.644 -0.1955 -0.3644 -0.4126
  566BOLB   C1A13565  10.842   9.333  22.734 -0.3783 -0.0198  0.0274
  566BOLB   C2A13566  10.370   9.295  22.851  0.1013  0.1896 -0.1728
  566BOLB   C3A13567   9.960   9.221  22.662  0.0094 -0.0460  0.1133
  566BOLB   C4A13568   9.672   8.881  22.504  0.0080  0.1614  0.3139
  566BOLB   C1B13569  10.887   9.540  22.267  0.4817 -0.1367  0.2658
  566BOLB   C2B13570  10.765   9.545  21.927  0.0036  0.1775 -0.0376
  566BOLB   C3B13571  10.772   9.358  21.551 -0.1942 -0.0622  0.3666
  566BOLB   C4B13572  10.908   9.245  21.185 -0.1751  0.1495  0.1128
  566BOLB   NC213573   7.044   8.488  21.574  0.0379  0.0302  0.1498
  566BOLB   PO213574   7.372   8.527  21.977 -0.0784  0.0521  0.0062
  566BOLB   GL313575   7.636   8.651  22.245  0.2394 -0.3629  0.0981
  566BOLB   GL413576   7.615   8.544  22.553 -0.0910  0.2100  0.2101
  566BOLB   C1C13577   7.949   8.920  22.531  0.1826  0.0397  0.0633
  566BOLB   C2C13578   8.290   9.115  22.602  0.0540 -0.0054 -0.3891
  566BOLB   C3C13579   8.719   9.068  22.572  0.0773 -0.3937  0.1145
  566BOLB   C4C13580   9.217   8.965  22.533  0.0653  0.2125 -0.0774
  566BOLB   C1D13581   7.801   8.245  22.768 -0.3243  0.4150  0.2992
  566BOLB   C2D13582   8.106   8.199  23.183 -0.1527 -0.1250  0.0255
  566BOLB   C3D13583   8.306   8.173  23.631  0.1183  0.1004 -0.1912
  566BOLB   C4D13584   8.566   7.962  23.804  0.1612 -0.0933  0.1362
  567BOLB   NC113585   9.326  11.191  35.655 -0.2257 -0.2273 -0.3309
  567BOLB   PO113586   9.145  11.570  35.617  0.0964 -0.2183 -0.2375
  567BOLB   GL113587   8.836  11.472  36.026 -0.3471  0.1128 -0.0068
  567BOLB   GL213588   8.449  11.391  35.990 -0.1543 -0.2993  0.0396
  567BOLB   C1A13589   8.705  11.725  36.445  0.1470  0.0603  0.0253
  567BOLB   C2A13590   8.422  11.881  36.756 -0.0532 -0.1603  0.1870
  567BOLB   C3A13591   8.202  11.638  36.959 -0.0922 -0.2467 -0.2639
  567BOLB   C4A13592   7.912  11.532  37.313 -0.2453 -0.0479 -0.1084
  567BOLB   C1B13593   8.211  11.606  36.284 -0.2994  0.1910  0.0007
  567BOLB   C2B13594   7.929  11.660  36.515 -0.1807  0.0605 -0.0725
  567BOLB   C3B13595   7.623  11.441  36.884  0.1596 -0.3287  0.1977
  567BOLB   C4B13596   7.665  11.133  37.153 -0.1095 -0.2311 -0.3344
  567BOLB   NC213597   6.387  11.863  39.041 -0.2223  0.0242  0.0863
  567BOLB   PO213598   6.261  11.467  39.304 -0.1596  0.2598 -0.0877
  567BOLB   GL313599   6.523  11.308  38.913 -0.3047 -0.2937  0.1488
  567BOLB   GL413600   6.643  11.037  38.857  0.0634  0.0936 -0.0408
  567BOLB   C1C13601   6.784  11.457  38.505  0.1604  0.2583  0.7130
  567BOLB   C2C13602   7.047  11.801  38.360  0.0219  0.0170 -0.1907
  567BOLB   C3C13603   7.331  11.881  37.898 -0.0856 -0.1458 -0.0296
  567BOLB   C4C13604   7.761  11.827  37.715  0.1987 -0.1311 -0.0464
  567BOLB   C1D13605   7.059  11.079  38.694 -0.0180 -0.2103  0.2719
  567BOLB   C2D13606   7.283  11.133  38.318  0.1859 -0.1493  0.1163
  567BOLB   C3D13607   7.373  10.930  37.969 -0.1094 -0.0766  0.1185
  567BOLB   C4D13608   7.551  11.040  37.608 -0.0389 -0.2767 -0.2024
  568BOLB   NC113609  14.427  18.274  21.535 -0.1141 -0.1179  0.1150
  568BOLB   PO113610  14.390  17.802  21.492 -0.4190  0.0002 -0.2913
  568BOLB   GL113611  14.203  18.048  21.060 -0.1617  0.0163 -0.2636
  568BOLB   GL213612  14.093  18.365  21.116 -0.1370 -0.3644 -0.0419
  568BOLB   C1A13613  14.032  18.176  20.630  0.1467 -0.0617  0.1638
  568BOLB   C2A13614  14.028  18.570  20.322 -0.2461  0.0265  0.1573
  568BOLB   C3A13615  14.030  19.053  20.291  0.1012  0.1536  0.3908
  568BOLB   C4A13616  13.783  19.378  20.154 -0.0992 -0.4548 -0.0906
  568BOLB   C1B13617  14.029  18.812  20.959  0.1714  0.0397  0.0498
  568BOLB   C2B13618  14.008  19.244  20.761  0.0685  0.5987 -0.1584
  568BOLB   C3B13619  13.989  19.450  20.598 -0.1387  0.1067  0.0676
  568BOLB   C4B13620  14.199  19.721  20.441 -0.3075 -0.2300 -0.0765
  568BOLB   NC213621  12.044  20.906  18.893  0.1504 -0.0947  0.0477
  568BOLB   PO213622  12.410  20.626  18.879  0.0181 -0.3338 -0.0219
  568BOLB   GL313623  12.659  20.499  19.230 -0.0449  0.1179  0.0824
  568BOLB   GL413624  12.410  20.208  19.357 -0.3230 -0.1010 -0.0585
  568BOLB   C1C13625  12.940  20.547  19.437  0.1690  0.0430 -0.1482
  568BOLB   C2C13626  13.039  20.236  19.663 -0.0002  0.3077 -0.3961
  568BOLB   C3C13627  13.065  19.910  20.102  0.0627 -0.7069 -0.0227
  568BOLB   C4C13628  13.415  19.809  20.192  0.3124 -0.2866 -0.1700
  568BOLB   C1D13629  12.210  19.867  19.635 -0.0124  0.2578  0.1059
  568BOLB   C2D13630  12.111  19.937  20.143 -0.0720 -0.1323 -0.0076
  568BOLB   C3D13631  11.919  19.738  20.460 -0.2131 -0.0992 -0.1256
  568BOLB   C4D13632  11.590  19.538  20.419 -0.1128 -0.3453 -0.1398
  569BOLB   NC113633   8.906   9.348  31.278  0.2228 -0.0910  0.1422
  569BOLB   PO113634   8.511   9.372  31.216  0.3084 -0.0599 -0.2192
  569BOLB   GL113635   8.333   9.111  31.437 -0.1669  0.0313 -0.2728
  569BOLB   GL213636   8.383   8.991  31.813  0.1162  0.0129  0.0838
  569BOLB   C1A13637   7.996   8.802  31.528 -0.1582  0.0349  0.1949
  569BOLB   C2A13638   7.634   8.595  31.789  0.0941 -0.0401  0.1228
  569BOLB   C3A13639   7.262   8.684  31.835  0.2175  0.2484  0.3444
  569BOLB   C4A13640   6.979   8.510  32.045 -0.0175 -0.0510 -0.0252
  569BOLB   C1B13641   8.250   8.555  31.942  0.0538 -0.1012 -0.2255
  569BOLB   C2B13642   7.900   8.291  32.102 -0.1140  0.1146  0.2088
  569BOLB   C3B13643   7.701   8.050  32.400 -0.2242  0.2973 -0.0558
  569BOLB   C4B13644   7.401   7.789  32.617  0.0215  0.5443  0.1983
  569BOLB   NC213645   4.321   8.133  33.294 -0.1692  0.2752  0.1993
  569BOLB   PO213646   4.685   7.922  32.995 -0.0547  0.0601  0.2123
  569BOLB   GL313647   5.064   7.904  32.848  0.0009  0.1348 -0.1116
  569BOLB   GL413648   4.994   7.806  32.515  0.2491  0.2932 -0.3930
  569BOLB   C1C13649   5.451   8.135  32.783 -0.2888 -0.0438  0.0063
  569BOLB   C2C13650   5.921   8.322  32.725  0.1308 -0.2500  0.1021
  569BOLB   C3C13651   6.196   8.615  32.495 -0.3675 -0.0343 -0.4470
  569BOLB   C4C13652   6.688   8.585  32.467  0.1021 -0.1373 -0.2639
  569BOLB   C1D13653   5.046   8.308  32.469 -0.3420  0.1079  0.2233
  569BOLB   C2D13654   5.136   8.691  32.158 -0.1326  0.2729  0.3559
  569BOLB   C3D13655   5.457   9.073  32.384 -0.2154 -0.1197  0.1818
  569BOLB   C4D13656   5.963   8.996  32.269  0.0518  0.2763  0.0367
  570BOLB   NC113657  14.456  12.420  20.185 -0.1160  0.1669  0.2086
  570BOLB   PO113658  14.110  12.626  20.229 -0.0101 -0.1121 -0.3489
  570BOLB   GL113659  13.655  12.739  20.093 -0.1858  0.1438 -0.0426
  570BOLB   GL213660  13.665  12.529  19.848 -0.0375 -0.0473 -0.0738
  570BOLB   C1A13661  13.209  12.763  19.818 -0.0293 -0.2646 -0.0312
  570BOLB   C2A13662  12.849  12.725  19.594 -0.1848 -0.1150 -0.1880
  570BOLB   C3A13663  12.601  12.564  19.222  0.1030  0.0259  0.2024
  570BOLB   C4A13664  12.305  12.363  18.979 -0.1969  0.1471 -0.3379
  570BOLB   C1B13665  13.423  12.458  19.457 -0.0995  0.4863  0.0324
  570BOLB   C2B13666  13.125  12.388  19.217  0.1406 -0.2236  0.1731
  570BOLB   C3B13667  12.878  12.161  18.999  0.1228 -0.0964 -0.0275
  570BOLB   C4B13668  12.495  11.938  18.743 -0.0334  0.0254 -0.2431
  570BOLB   NC213669  10.886  12.113  17.135 -0.2466  0.0244 -0.3432
  570BOLB   PO213670  10.971  11.772  17.437 -0.0073  0.0900  0.0484
  570BOLB   GL313671  11.309  11.857  17.614 -0.0308 -0.1157 -0.0004
  570BOLB   GL413672  11.689  11.743  17.452 -0.2185 -0.4760 -0.0371
  570BOLB   C1C13673  11.630  11.860  17.965 -0.1263 -0.0360 -0.1838
  570BOLB   C2C13674  11.607  11.968  18.289  0.1412 -0.0812 -0.1275
  570BOLB   C3C13675  11.853  12.282  18.591  0.3424 -0.1174 -0.0764
  570BOLB   C4C13676  12.102  12.313  18.736 -0.2931  0.1781  0.0912
  570BOLB   C1D13677  12.085  11.805  17.646  0.1127  0.0829 -0.1411
  570BOLB   C2D13678  12.133  11.834  18.056  0.1766 -0.1312 -0.1687
  570BOLB   C3D13679  12.305  12.168  18.278 -0.0145 -0.1717  0.1099
  570BOLB   C4D13680  12.341  12.612  18.270  0.0820  0.0657  0.0014
  571BOLB   NC113681  14.767  21.052  29.154  0.3488  0.1007  0.1489
  571BOLB   PO113682  14.427  21.304  29.106 -0.1383 -0.4375  0.3413
  571BOLB   GL113683  14.424  21.811  29.048  0.1578 -0.0892  0.0768
  571BOLB   GL213684  14.667  21.824  28.840 -0.0886  0.2022 -0.1024
  571BOLB   C1A13685  14.486  22.203  29.281  0.1594  0.1409  0.1248
  571BOLB   C2A13686  14.622  22.435  29.535 -0.2044 -0.1362  0.1768
  571BOLB   C3A13687  14.850  22.831  29.755  0.2973  0.2391 -0.1482
  571BOLB   C4A13688  14.988  23.146  30.009  0.3862 -0.1311 -0.1918
  571BOLB   C1B13689  14.653  22.230  28.748  0.0921 -0.0615  0.2127
  571BOLB   C2B13690  14.354  22.453  28.423  0.3374  0.3158 -0.1148
  571BOLB   C3B13691  14.391  22.729  28.112  0.0750  0.0027 -0.2734
  571BOLB   C4B13692  14.786  22.872  28.071  0.1729  0.0092 -0.0834
  571BOLB   NC213693  15.216  25.706  31.104 -0.1348 -0.1661 -0.1592
  571BOLB   PO213694  15.055  25.400  30.756 -0.3039 -0.0546  0.0592
  571BOLB   GL313695  14.936  24.924  30.653  0.3921 -0.0882 -0.1067
  571BOLB   GL413696  14.584  24.957  30.655  0.0621 -0.0615 -0.0777
  571BOLB   C1C13697  14.911  24.476  30.510 -0.1262 -0.0971 -0.2310
  571BOLB   C2C13698  15.070  24.166  30.245  0.0764 -0.0083 -0.1343
  571BOLB   C3C13699  15.105  23.918  29.887 -0.2139 -0.0268  0.1291
  571BOLB   C4C13700  15.086  23.563  30.013  0.1746  0.2556 -0.0304
  571BOLB   C1D13701  14.616  24.542  30.940  0.1792  0.0386  0.4728
  571BOLB   C2D13702  14.793  24.169  30.877 -0.0303  0.3337  0.1940
  571BOLB   C3D13703  15.113  24.016  30.765 -0.0625 -0.2867 -0.0713
  571BOLB   C4D13704  15.423  23.880  30.910  0.1747  0.1419  0.3772
  572BOLB   NC113705  21.104   5.566  26.849 -0.0361 -0.1029 -0.0579
  572BOLB   PO113706  20.945   5.331  27.116  0.1247 -0.0777 -0.0942
  572BOLB   GL113707  21.240   5.056  26.884  0.1800  0.0944 -0.0350
  572BOLB   GL213708  21.158   5.107  26.586  0.2822  0.1066 -0.2016
  572BOLB   C1A13709  21.530   4.803  27.003 -0.0301 -0.1943 -0.2041
  572BOLB   C2A13710  21.892   4.696  26.939  0.3461 -0.1015 -0.2717
  572BOLB   C3A13711  22.321   4.552  26.807 -0.0475 -0.2805  0.0898
  572BOLB   C4A13712  22.679   4.351  27.043  0.0066 -0.1314  0.1151
  572BOLB   C1B13713  21.376   4.799  26.496  0.0151 -0.2963  0.3372
  572BOLB   C2B13714  21.610   4.442  26.575 -0.2578  0.2916  0.0616
  572BOLB   C3B13715  21.934   4.177  26.880 -0.0473 -0.0469  0.0547
  572BOLB   C4B13716  22.414   4.043  26.659 -0.0521  0.0076  0.0351
  572BOLB   NC213717  24.593   2.971  25.687  0.2332 -0.0935  0.1658
  572BOLB   PO213718  24.131   2.836  25.624  0.0763 -0.0088 -0.0300
  572BOLB   GL313719  23.768   3.013  25.847  0.1661 -0.3847  0.0838
  572BOLB   GL413720  23.715   3.113  26.203  0.4256  0.2550 -0.2602
  572BOLB   C1C13721  23.441   3.309  25.856  0.2156  0.0339  0.0500
  572BOLB   C2C13722  23.248   3.676  25.909 -0.1254  0.1059 -0.1174
  572BOLB   C3C13723  23.075   3.870  26.372 -0.0521  0.0840  0.0419
  572BOLB   C4C13724  22.989   4.063  26.826 -0.0661  0.0412  0.0203
  572BOLB   C1D13725  23.368   3.357  26.428  0.0365 -0.0349  0.0414
  572BOLB   C2D13726  23.138   3.406  26.835  0.0833 -0.0256 -0.2224
  572BOLB   C3D13727  22.741   3.555  26.989 -0.1291  0.2998  0.4022
  572BOLB   C4D13728  22.558   3.908  27.190 -0.4234 -0.0364  0.1521
  573BOLB   NC113729  22.857  15.176  33.446  0.2987 -0.1150 -0.0975
  573BOLB   PO113730  22.665  15.600  33.373  0.3434  0.1234 -0.0912
  573BOLB   GL113731  22.990  15.954  33.353  0.1659  0.0168 -0.0991
  573BOLB   GL213732  23.265  15.803  33.478  0.1377 -0.1729  0.2463
  573BOLB   C1A13733  23.242  16.116  32.998  0.0086 -0.3498  0.0985
  573BOLB   C2A13734  23.566  16.390  32.840  0.0806  0.3121  0.0081
  573BOLB   C3A13735  23.859  16.593  32.742  0.2286  0.0331 -0.0346
  573BOLB   C4A13736  24.274  16.772  32.742 -0.0073 -0.0646 -0.2393
  573BOLB   C1B13737  23.326  16.295  33.506 -0.0436 -0.0223  0.0154
  573BOLB   C2B13738  23.550  16.652  33.393  0.0895  0.2094  0.1591
  573BOLB   C3B13739  24.007  16.626  33.239  0.0127 -0.3236 -0.0909
  573BOLB   C4B13740  24.200  16.281  32.922 -0.1565  0.2946 -0.3222
  573BOLB   NC213741  26.432  17.228  33.722 -0.1614 -0.0354 -0.3290
  573BOLB   PO213742  26.349  17.569  33.399  0.1802 -0.0503 -0.0523
  573BOLB   GL313743  25.991  17.746  33.370 -0.0327 -0.0879  0.1789
  573BOLB   GL413744  26.022  18.000  33.530 -0.0740  0.2486 -0.1201
  573BOLB   C1C13745  25.543  17.760  33.220  0.0187  0.3168 -0.0748
  573BOLB   C2C13746  25.098  17.722  32.941  0.1305  0.4928  0.0443
  573BOLB   C3C13747  24.807  17.395  32.935 -0.0520 -0.1325 -0.2291
  573BOLB   C4C13748  24.640  17.015  32.818 -0.1347 -0.0940 -0.2713
  573BOLB   C1D13749  25.521  18.034  33.640  0.0364 -0.0065  0.2427
  573BOLB   C2D13750  25.075  17.826  33.567 -0.1183 -0.2570  0.0575
  573BOLB   C3D13751  24.676  17.672  33.333 -0.1480  0.2878 -0.0580
  573BOLB   C4D13752  24.208  17.769  33.161 -0.0251 -0.0374 -0.0401
  574BOLB   NC113753   9.981   9.333  25.724  0.3825  0.1241 -0.0581
  574BOLB   PO113754   9.947   9.260  25.157  0.1302 -0.0831 -0.0572
  574BOLB   GL113755   9.568   9.002  25.046 -0.0223 -0.0333  0.1080
  574BOLB   GL213756   9.504   9.307  25.050  0.0080  0.0811  0.0974
  574BOLB   C1A13757   9.236   8.871  24.805 -0.3620  0.2120 -0.1973
  574BOLB   C2A13758   9.214   8.852  24.342 -0.0119 -0.0594 -0.0256
  574BOLB   C3A13759   8.976   8.837  24.051  0.2971 -0.0364 -0.1951
  574BOLB   C4A13760   8.576   8.892  23.794 -0.0390  0.1315  0.0485
  574BOLB   C1B13761   9.080   9.342  24.908 -0.1832  0.3234  0.0117
  574BOLB   C2B13762   8.615   9.345  24.904 -0.4721 -0.1709 -0.0645
  574BOLB   C3B13763   8.235   9.384  24.646 -0.1586 -0.1553 -0.3714
  574BOLB   C4B13764   7.902   9.219  24.538 -0.2531 -0.5493 -0.1722
  574BOLB   NC213765   7.475   7.478  22.891  0.1915 -0.1302  0.1311
  574BOLB   PO213766   7.616   7.669  22.491 -0.2050 -0.1663  0.1856
  574BOLB   GL313767   8.029   7.942  22.389  0.3569  0.0149  0.1018
  574BOLB   GL413768   8.278   7.641  22.362  0.0755 -0.4839 -0.2669
  574BOLB   C1C13769   8.009   8.288  22.314 -0.1939  0.2572  0.0466
  574BOLB   C2C13770   8.266   8.538  22.597 -0.2834  0.3203 -0.1064
  574BOLB   C3C13771   8.464   8.555  23.000  0.1926  0.2505  0.1666
  574BOLB   C4C13772   8.541   8.573  23.486 -0.1837  0.1013  0.0041
  574BOLB   C1D13773   8.224   7.791  22.844  0.1936  0.0605  0.1923
  574BOLB   C2D13774   8.406   7.791  23.215 -0.0568  0.2885 -0.0144
  574BOLB   C3D13775   8.134   7.696  23.676  0.0383 -0.3835 -0.1425
  574BOLB   C4D13776   7.968   7.310  23.854 -0.0634 -0.4761 -0.0612
  575BOLB   NC113777  15.313  20.351  32.915 -0.3694  0.0857 -0.0040
  575BOLB   PO113778  15.522  20.408  33.293 -0.0030 -0.0108  0.4072
  575BOLB   GL113779  15.682  20.869  33.321 -0.0293  0.3412 -0.0481
  575BOLB   GL213780  15.472  21.041  33.518 -0.0066  0.1056  0.0427
  575BOLB   C1A13781  15.959  21.173  33.296  0.0796 -0.0158  0.1410
  575BOLB   C2A13782  16.161  21.533  33.540  0.0502 -0.1131 -0.1571
  575BOLB   C3A13783  16.223  21.838  33.759  0.0363  0.2650  0.1285
  575BOLB   C4A13784  16.373  22.133  34.127  0.0472  0.3624 -0.0893
  575BOLB   C1B13785  15.381  21.463  33.277  0.0921  0.0480 -0.1550
  575BOLB   C2B13786  15.645  21.865  33.228 -0.1002 -0.2274 -0.0324
  575BOLB   C3B13787  15.567  22.307  33.284 -0.2281  0.1744  0.0327
  575BOLB   C4B13788  15.535  22.700  33.554  0.1761 -0.0584 -0.0084
  575BOLB   NC213789  17.254  24.244  34.845 -0.0521 -0.4227 -0.1222
  575BOLB   PO213790  17.139  24.246  34.527  0.1283  0.2164  0.0186
  575BOLB   GL313791  17.069  23.944  34.400  0.0696  0.3901 -0.0512
  575BOLB   GL413792  17.252  23.889  34.151  0.2123 -0.0274 -0.0993
  575BOLB   C1C13793  16.848  23.584  34.443  0.2704  0.1526 -0.3796
  575BOLB   C2C13794  16.958  23.180  34.189 -0.0911 -0.0554 -0.0419
  575BOLB   C3C13795  16.994  22.740  34.321  0.0341  0.1578 -0.1576
  575BOLB   C4C13796  16.734  22.395  34.177 -0.0220 -0.1634 -0.1014
  575BOLB   C1D13797  17.342  23.513  34.170 -0.0191 -0.0822 -0.2977
  575BOLB   C2D13798  17.420  23.127  34.411  0.0387  0.2171 -0.0349
  575BOLB   C3D13799  17.393  22.720  34.657  0.1334  0.2011  0.0174
  575BOLB   C4D13800  17.221  22.323  34.617 -0.3699 -0.0314  0.0293
  576BOLB   NC113801  22.994  14.552  34.667 -0.1519 -0.0365  0.0920
  576BOLB   PO113802  22.819  14.557  35.133 -0.3447 -0.2663  0.3129
  576BOLB   GL113803  23.216  14.783  35.024  0.1258 -0.0680  0.1262
  576BOLB   GL213804  23.053  14.996  34.902  0.0033  0.0803  0.4173
  576BOLB   C1A13805  23.581  14.919  34.995  0.2463 -0.3884 -0.1772
  576BOLB   C2A13806  23.949  15.012  35.187  0.0373 -0.0489 -0.1421
  576BOLB   C3A13807  24.065  15.545  35.239 -0.0636 -0.0668  0.1912
  576BOLB   C4A13808  24.160  15.725  35.546 -0.0558  0.1515  0.2399
  576BOLB   C1B13809  23.298  15.303  34.678  0.0724  0.1021 -0.0802
  576BOLB   C2B13810  23.348  15.719  34.614  0.1107  0.0944  0.3685
  576BOLB   C3B13811  23.588  15.996  34.372  0.2072 -0.1079  0.0539
  576BOLB   C4B13812  24.014  16.073  34.106  0.3105  0.0129 -0.0846
  576BOLB   NC213813  26.248  16.640  36.410 -0.0020 -0.3172  0.0004
  576BOLB   PO213814  26.027  16.844  36.108 -0.0791 -0.0546  0.1479
  576BOLB   GL313815  25.644  16.692  35.970 -0.1825 -0.1895  0.0334
  576BOLB   GL413816  25.451  16.970  35.811 -0.5670 -0.3249 -0.1823
  576BOLB   C1C13817  25.243  16.685  36.186  0.0350 -0.1926  0.1078
  576BOLB   C2C13818  24.965  16.526  36.042 -0.0114  0.0126 -0.1066
  576BOLB   C3C13819  24.580  16.315  35.946  0.1511  0.1974  0.1674
  576BOLB   C4C13820  24.506  15.950  35.690 -0.1913 -0.0443 -0.1101
  576BOLB   C1D13821  24.997  16.784  35.562  0.1475 -0.0034  0.0812
  576BOLB   C2D13822  24.590  16.721  35.647 -0.0286 -0.0983  0.0864
  576BOLB   C3D13823  24.328  16.487  35.481  0.3227  0.0421  0.1980
  576BOLB   C4D13824  24.252  16.098  35.218  0.0355 -0.2010  0.0900
  577BOLB   NC113825  13.759  23.956  22.995 -0.1007 -0.1390  0.2252
  577BOLB   PO113826  13.464  24.136  23.370 -0.1382  0.0556 -0.0863
  577BOLB   GL113827  13.618  23.873  23.740  0.1109 -0.0482 -0.1210
  577BOLB   GL213828  13.316  23.836  23.839  0.2852 -0.0769 -0.0336
  577BOLB   C1A13829  13.619  23.471  23.939 -0.0334  0.3613  0.2798
  577BOLB   C2A13830  13.406  23.131  23.991  0.1197 -0.1925 -0.4561
  577BOLB   C3A13831  13.451  22.773  23.823  0.1747  0.1487 -0.3050
  577BOLB   C4A13832  13.571  22.775  23.381 -0.2408 -0.0369  0.1862
  577BOLB   C1B13833  13.373  23.878  24.215 -0.2420 -0.0228 -0.1388
  577BOLB   C2B13834  13.609  23.650  24.475 -0.1679 -0.0393 -0.1303
  577BOLB   C3B13835  13.424  23.340  24.715 -0.2696 -0.1701  0.2008
  577BOLB   C4B13836  13.212  23.116  25.011 -0.2966  0.2019  0.3094
  577BOLB   NC213837  13.137  22.853  20.993  0.3215 -0.2397 -0.1377
  577BOLB   PO213838  13.633  22.896  21.016  0.0923  0.0001 -0.0434
  577BOLB   GL313839  13.407  22.533  21.323  0.0979 -0.2002 -0.1976
  577BOLB   GL413840  13.287  22.315  21.090 -0.1711 -0.1234 -0.1008
  577BOLB   C1C13841  13.430  22.436  21.769 -0.5170 -0.1930 -0.0241
  577BOLB   C2C13842  13.526  22.632  22.122  0.1107  0.1649 -0.4147
  577BOLB   C3C13843  13.648  22.587  22.504 -0.0542  0.1632 -0.1946
  577BOLB   C4C13844  13.701  22.607  22.995  0.2655  0.0296  0.1733
  577BOLB   C1D13845  13.565  22.058  21.406 -0.1301  0.3670 -0.0666
  577BOLB   C2D13846  13.738  22.033  21.853  0.0733 -0.2065  0.0866
  577BOLB   C3D13847  13.735  21.686  22.055  0.0746 -0.0244 -0.2203
  577BOLB   C4D13848  13.340  21.560  22.105  0.0428  0.0128 -0.0023
  578BOLB   NC113849   7.524  11.797  32.672 -0.0572  0.1842 -0.1465
  578BOLB   PO113850   7.657  11.990  32.244 -0.3510  0.2217 -0.1555
  578BOLB   GL113851   7.179  12.042  32.342  0.1571  0.0406 -0.2862
  578BOLB   GL213852   7.131  12.108  32.727  0.1741 -0.0085  0.0741
  578BOLB   C1A13853   6.807  11.918  32.386  0.1435 -0.2072  0.0917
  578BOLB   C2A13854   6.346  11.726  32.373 -0.3701 -0.1177 -0.0714
  578BOLB   C3A13855   6.024  11.433  32.205 -0.0241  0.1557 -0.1407
  578BOLB   C4A13856   5.599  11.258  32.156  0.2332  0.2975 -0.3316
  578BOLB   C1B13857   6.763  12.220  32.747 -0.0145 -0.3103  0.0025
  578BOLB   C2B13858   6.348  12.167  32.590 -0.1809 -0.0614 -0.0400
  578BOLB   C3B13859   5.952  12.210  32.474 -0.2335  0.2825 -0.0292
  578BOLB   C4B13860   5.704  11.833  32.314 -0.2466 -0.3098  0.2099
  578BOLB   NC213861   3.118  10.837  33.373 -0.0645  0.1841  0.1806
  578BOLB   PO213862   3.349  10.769  33.028  0.0748 -0.1817  0.1585
  578BOLB   GL313863   3.703  10.750  32.735 -0.2985 -0.0617 -0.0448
  578BOLB   GL413864   3.752  11.058  32.752  0.0476 -0.2501  0.0511
  578BOLB   C1C13865   4.101  10.709  32.580 -0.4204 -0.1234  0.0437
  578BOLB   C2C13866   4.554  10.638  32.345  0.0937 -0.0060  0.3880
  578BOLB   C3C13867   5.024  10.672  32.281 -0.3264 -0.0360 -0.0590
  578BOLB   C4C13868   5.509  10.763  32.249 -0.1262  0.0776  0.3663
  578BOLB   C1D13869   4.122  11.131  32.832 -0.3779  0.0051  0.0683
  578BOLB   C2D13870   4.551  11.091  32.503  0.1295 -0.1452 -0.2672
  578BOLB   C3D13871   5.017  11.231  32.343  0.3059  0.1235 -0.3284
  578BOLB   C4D13872   5.056  11.509  32.093 -0.3166  0.1311  0.0105
  579BOLB   NC113873   9.695   9.070  33.535  0.3764 -0.4619  0.3505
  579BOLB   PO113874   9.386   8.934  33.844 -0.1696 -0.0286  0.2837
  579BOLB   GL113875   9.050   9.108  34.054 -0.1163  0.3211  0.3456
  579BOLB   GL213876   9.118   9.012  34.432  0.3002  0.1852 -0.2107
  579BOLB   C1A13877   8.638   8.970  33.935  0.1285  0.2286  0.1494
  579BOLB   C2A13878   8.326   8.836  34.120 -0.1577  0.1335 -0.0409
  579BOLB   C3A13879   7.986   8.545  34.284 -0.0190  0.1054 -0.0112
  579BOLB   C4A13880   7.731   8.436  34.554 -0.2546  0.1893 -0.1980
  579BOLB   C1B13881   8.763   8.852  34.481  0.0104 -0.1927 -0.1407
  579BOLB   C2B13882   8.491   8.473  34.427 -0.1150 -0.0322 -0.2175
  579BOLB   C3B13883   8.277   8.127  34.586 -0.1050 -0.0761  0.0020
  579BOLB   C4B13884   8.186   7.853  34.854  0.0067  0.3170 -0.1119
  579BOLB   NC213885   6.092   7.233  35.543 -0.0987  0.1146 -0.3405
  579BOLB   PO213886   6.144   6.909  35.194 -0.3746  0.1395 -0.0833
  579BOLB   GL313887   6.326   7.254  35.008  0.3601  0.2280 -0.3351
  579BOLB   GL413888   6.472   7.526  35.238  0.4089 -0.0351  0.4978
  579BOLB   C1C13889   6.669   7.332  34.616 -0.1893  0.1140 -0.3084
  579BOLB   C2C13890   6.941   7.560  34.443  0.1115 -0.1937  0.2143
  579BOLB   C3C13891   7.127   7.881  34.652 -0.1753  0.0152  0.0006
  579BOLB   C4C13892   7.418   8.153  34.741  0.0395 -0.0523 -0.0758
  579BOLB   C1D13893   6.588   7.893  35.107  0.0669 -0.1810 -0.0432
  579BOLB   C2D13894   6.697   8.289  34.917  0.2032 -0.0749 -0.3170
  579BOLB   C3D13895   7.025   8.495  34.833  0.1157 -0.1672 -0.0111
  579BOLB   C4D13896   7.190   8.439  34.424  0.0379  0.3025 -0.2042
  580BOLB   NC113897  17.519   4.837  25.756  0.0750 -0.0103 -0.0319
  580BOLB   PO113898  17.890   4.616  25.788 -0.0321 -0.1420  0.3418
  580BOLB   GL113899  17.747   4.399  25.414 -0.3894 -0.2535 -0.0035
  580BOLB   GL213900  17.457   4.516  25.363 -0.1034 -0.0831 -0.0757
  580BOLB   C1A13901  17.746   3.957  25.280 -0.3805  0.0493 -0.1195
  580BOLB   C2A13902  17.995   3.555  25.247  0.0034  0.2624 -0.1633
  580BOLB   C3A13903  18.053   3.115  24.998 -0.2465 -0.4262  0.0754
  580BOLB   C4A13904  17.886   2.748  24.711 -0.0921 -0.1411 -0.0317
  580BOLB   C1B13905  17.473   4.354  24.999  0.3095  0.7982 -0.0915
  580BOLB   C2B13906  17.780   4.056  24.761  0.1788 -0.3012 -0.1884
  580BOLB   C3B13907  17.813   3.598  24.820  0.0131 -0.1752  0.0616
  580BOLB   C4B13908  17.631   3.173  24.805 -0.1246 -0.0490 -0.4055
  580BOLB   NC213909  16.563   0.450  23.706 -0.2013  0.2202 -0.2679
  580BOLB   PO213910  16.375   0.892  23.841 -0.1098 -0.2657  0.1542
  580BOLB   GL313911  16.577   1.225  24.073 -0.1042  0.0144 -0.0736
  580BOLB   GL413912  16.476   1.277  24.459  0.1034 -0.0856  0.1767
  580BOLB   C1C13913  16.659   1.744  24.236  0.0205  0.1171  0.1502
  580BOLB   C2C13914  17.045   1.938  24.495 -0.1100 -0.4240 -0.0875
  580BOLB   C3C13915  17.351   2.268  24.669  0.0297  0.0843  0.0249
  580BOLB   C4C13916  17.588   2.507  24.526 -0.0360 -0.2059 -0.1715
  580BOLB   C1D13917  16.283   1.511  24.687  0.1839 -0.2065 -0.1640
  580BOLB   C2D13918  16.081   1.463  25.054  0.1956  0.2251  0.1347
  580BOLB   C3D13919  15.880   1.274  25.444  0.1454  0.1411  0.0150
  580BOLB   C4D13920  15.811   0.919  25.798 -0.1531  0.0087 -0.1151
  581BOLB   NC113921  10.214  12.385  23.952 -0.0494 -0.0998  0.1681
  581BOLB   PO113922   9.866  12.449  23.639  0.0276  0.3339  0.0982
  581BOLB   GL113923   9.375  12.164  23.478 -0.4886  0.1028 -0.0190
  581BOLB   GL213924   9.343  11.836  23.504 -0.1841 -0.0784 -0.1795
  581BOLB   C1A13925   8.952  12.154  23.715 -0.0485  0.6031  0.2031
  581BOLB   C2A13926   8.645  12.162  24.132  0.1728  0.0760  0.0876
  581BOLB   C3A13927   8.347  11.868  24.296  0.0641 -0.2442 -0.2089
  581BOLB   C4A13928   7.930  11.818  24.173  0.2430  0.0076  0.0546
  581BOLB   C1B13929   8.968  11.873  23.205  0.1808 -0.0762 -0.0561
  581BOLB   C2B13930   8.661  11.812  22.901  0.0082  0.1464  0.3525
  581BOLB   C3B13931   8.205  11.723  22.764  0.0164  0.1549 -0.0918
  581BOLB   C4B13932   7.766  11.848  22.689 -0.0077 -0.0123  0.0850
  581BOLB   NC213933   5.367  11.100  23.901  0.2294  0.2175 -0.1025
  581BOLB   PO213934   5.375  11.557  23.979  0.2082  0.0852 -0.1964
  581BOLB   GL313935   5.844  11.659  23.842 -0.2583  0.0948 -0.2300
  581BOLB   GL413936   5.986  11.552  23.579  0.0545  0.2592 -0.1990
  581BOLB   C1C13937   6.241  11.875  23.846  0.1367 -0.2452  0.0693
  581BOLB   C2C13938   6.645  12.015  23.759 -0.1240 -0.1638 -0.4475
  581BOLB   C3C13939   7.132  11.873  23.814 -0.0584 -0.3350 -0.2711
  581BOLB   C4C13940   7.552  11.874  23.923 -0.1631 -0.3325  0.2487
  581BOLB   C1D13941   6.455  11.416  23.767  0.2705  0.0510  0.0125
  581BOLB   C2D13942   6.818  11.600  24.027  0.1686  0.4309  0.0725
  581BOLB   C3D13943   7.146  11.641  24.277  0.1785  0.4128  0.0909
  581BOLB   C4D13944   7.576  11.732  24.465  0.0463 -0.4214 -0.0998
  582BOLB   NC113945  10.146  13.838  23.032 -0.2775 -0.0524 -0.1142
  582BOLB   PO113946   9.945  14.168  23.291 -0.1834 -0.1196 -0.0066
  582BOLB   GL113947   9.672  14.068  22.951 -0.2334 -0.0001 -0.0036
  582BOLB   GL213948   9.461  13.919  23.099 -0.1548 -0.0820  0.3194
  582BOLB   C1A13949   9.408  14.296  22.745  0.1585 -0.0243  0.0285
  582BOLB   C2A13950   8.967  14.525  22.565 -0.0156  0.1900 -0.2329
  582BOLB   C3A13951   8.566  14.658  22.417  0.1307 -0.2026  0.0631
  582BOLB   C4A13952   8.253  14.717  22.580 -0.2187  0.3436  0.1685
  582BOLB   C1B13953   9.264  13.779  22.796 -0.0019  0.1217  0.1085
  582BOLB   C2B13954   9.070  13.560  22.548  0.0621  0.1758  0.4022
  582BOLB   C3B13955   8.867  13.549  22.118 -0.0524 -0.2319  0.0001
  582BOLB   C4B13956   8.671  13.817  21.843 -0.0429  0.2019  0.0521
  582BOLB   NC213957   7.338  16.364  21.101  0.1997 -0.4658 -0.0662
  582BOLB   PO213958   7.117  16.151  21.376  0.2504 -0.2831  0.3080
  582BOLB   GL313959   7.255  15.801  21.418 -0.2671  0.0525  0.0749
  582BOLB   GL413960   7.128  15.591  21.672  0.1148 -0.2932  0.1662
  582BOLB   C1C13961   7.680  15.723  21.536  0.1648  0.1159 -0.1781
  582BOLB   C2C13962   7.831  15.678  22.054 -0.1873 -0.2219  0.0819
  582BOLB   C3C13963   7.823  15.467  22.423 -0.2145 -0.2956  0.1878
  582BOLB   C4C13964   7.934  15.007  22.547 -0.0104 -0.1227  0.0482
  582BOLB   C1D13965   7.417  15.467  21.895  0.0566  0.3525  0.2120
  582BOLB   C2D13966   7.566  15.142  22.116 -0.0047  0.0413 -0.0593
  582BOLB   C3D13967   7.972  14.963  22.022 -0.1332  0.3847 -0.0100
  582BOLB   C4D13968   8.021  14.530  22.084 -0.2528  0.1788 -0.1707
  583BOLB   NC113969  17.853   6.880  21.895  0.3061 -0.0043 -0.1713
  583BOLB   PO113970  17.510   6.878  21.573 -0.1324  0.1560 -0.2630
  583BOLB   GL113971  17.645   6.643  21.113  0.0966  0.3484 -0.0478
  583BOLB   GL213972  17.475   6.763  20.864  0.1593 -0.2134  0.1179
  583BOLB   C1A13973  17.764   6.165  20.946  0.2689 -0.0975 -0.0552
  583BOLB   C2A13974  17.674   5.797  20.646  0.0288 -0.2822  0.1092
  583BOLB   C3A13975  17.859   5.525  20.480 -0.1970 -0.2703 -0.2257
  583BOLB   C4A13976  17.994   5.303  20.112 -0.2168 -0.2440  0.2384
  583BOLB   C1B13977  17.426   6.300  20.552 -0.0560  0.0738  0.1510
  583BOLB   C2B13978  17.538   6.132  20.192 -0.1999 -0.3474  0.3798
  583BOLB   C3B13979  17.542   5.762  20.033  0.0201 -0.0070  0.3310
  583BOLB   C4B13980  17.770   5.600  19.746  0.0139 -0.1001  0.1172
  583BOLB   NC213981  19.517   3.565  18.946  0.1592  0.3531  0.0932
  583BOLB   PO213982  19.276   3.998  18.766  0.1573  0.2486 -0.2047
  583BOLB   GL313983  19.157   4.427  18.755  0.1819  0.1738  0.0249
  583BOLB   GL413984  19.242   4.740  18.606 -0.1112  0.1033  0.0336
  583BOLB   C1C13985  18.628   4.632  19.007  0.2262 -0.0163 -0.1732
  583BOLB   C2C13986  18.185   4.669  19.018 -0.1081 -0.0462 -0.0503
  583BOLB   C3C13987  18.010   4.819  19.363  0.0207 -0.0133 -0.0645
  583BOLB   C4C13988  17.904   5.019  19.733  0.1594  0.2065 -0.1600
  583BOLB   C1D13989  19.155   4.818  19.039 -0.1023 -0.1238  0.2277
  583BOLB   C2D13990  18.870   5.021  19.274 -0.1399  0.1085  0.0561
  583BOLB   C3D13991  18.828   5.232  19.562  0.2029  0.1259  0.0722
  583BOLB   C4D13992  18.826   5.623  19.817  0.3072  0.1225 -0.1996
  584BOLB   NC113993  15.928  19.429  36.293 -0.2695  0.0279 -0.0169
  584BOLB   PO113994  15.531  19.541  36.248  0.0654  0.1709  0.0044
  584BOLB   GL113995  15.501  19.967  36.396 -0.0991 -0.0090 -0.2047
  584BOLB   GL213996  15.317  20.158  36.225 -0.3080  0.0822  0.0690
  584BOLB   C1A13997  15.746  20.233  36.599 -0.1393  0.1032  0.0963
  584BOLB   C2A13998  15.628  20.584  36.928 -0.0229  0.0195 -0.0945
  584BOLB   C3A13999  15.617  20.958  37.117 -0.0812  0.3649  0.0727
  584BOLB   C4A14000  15.770  21.181  37.385 -0.0535  0.0894 -0.0445
  584BOLB   C1B14001  15.409  20.557  36.489  0.1133  0.1047  0.1094
  584BOLB   C2B14002  15.241  20.844  36.758  0.1206  0.1615  0.0109
  584BOLB   C3B14003  14.962  21.173  37.070 -0.1394  0.2369 -0.0933
  584BOLB   C4B14004  14.834  21.304  37.439  0.0469 -0.1609 -0.1060
  584BOLB   NC214005  16.843  22.246  39.417 -0.0923  0.4296  0.0857
  584BOLB   PO214006  16.405  22.206  39.415 -0.0920  0.0506 -0.0512
  584BOLB   GL314007  16.344  21.705  39.241  0.1410  0.0265 -0.0761
  584BOLB   GL414008  16.133  21.461  39.471 -0.2342 -0.2057 -0.1266
  584BOLB   C1C14009  16.493  21.314  38.994  0.1165 -0.0713  0.1385
  584BOLB   C2C14010  16.381  21.274  38.516 -0.1311  0.0711  0.1729
  584BOLB   C3C14011  16.253  21.132  38.184 -0.1858  0.0960  0.4085
  584BOLB   C4C14012  16.057  21.120  37.861  0.0735  0.0967  0.2580
  584BOLB   C1D14013  15.983  21.303  39.118 -0.0440 -0.1875  0.2349
  584BOLB   C2D14014  16.027  21.065  38.770  0.1045 -0.0585  0.2493
  584BOLB   C3D14015  15.873  20.807  38.407  0.0799  0.3065 -0.0821
  584BOLB   C4D14016  15.808  20.624  38.017  0.0187 -0.2248 -0.1320
  585BOLB   NC114017  10.147  11.157  23.860 -0.1221  0.2030  0.2378
  585BOLB   PO114018  10.199  11.634  23.812  0.0690  0.1550  0.0784
  585BOLB   GL114019   9.805  11.471  23.617  0.1755 -0.0722  0.1563
  585BOLB   GL214020   9.845  11.248  23.291 -0.1508 -0.1422 -0.1281
  585BOLB   C1A14021   9.382  11.317  23.478 -0.0492  0.3842 -0.0050
  585BOLB   C2A14022   8.995  11.266  23.279 -0.0735  0.1759  0.3656
  585BOLB   C3A14023   8.734  11.355  22.859 -0.0145 -0.1420 -0.6233
  585BOLB   C4A14024   8.420  11.252  22.631  0.0878  0.3700  0.1939
  585BOLB   C1B14025   9.571  11.413  23.023  0.0570 -0.3469 -0.0501
  585BOLB   C2B14026   9.245  11.576  22.738 -0.1869  0.1285 -0.0950
  585BOLB   C3B14027   8.966  11.736  22.477 -0.0033 -0.1087  0.0255
  585BOLB   C4B14028   8.567  11.638  22.294 -0.1047 -0.0269  0.4830
  585BOLB   NC214029   6.370  11.971  21.636  0.2661 -0.2670 -0.0327
  585BOLB   PO214030   6.323  11.556  21.435 -0.1586  0.3091  0.1906
  585BOLB   GL314031   6.733  11.605  21.692 -0.2094  0.2916  0.0826
  585BOLB   GL414032   6.860  11.901  21.701  0.1138  0.0351 -0.0467
  585BOLB   C1C14033   7.097  11.323  21.857  0.1934 -0.2073 -0.1193
  585BOLB   C2C14034   7.575  11.208  21.854  0.2411 -0.1065 -0.1915
  585BOLB   C3C14035   7.970  11.144  21.974 -0.0456 -0.4143 -0.1329
  585BOLB   C4C14036   8.277  11.306  22.174  0.0673  0.0104  0.2039
  585BOLB   C1D14037   7.081  11.983  21.935  0.0671  0.1515  0.0455
  585BOLB   C2D14038   6.991  12.240  22.235  0.0576 -0.3727 -0.0618
  585BOLB   C3D14039   6.834  12.377  22.538  0.1071  0.1342  0.0987
  585BOLB   C4D14040   7.167  12.477  22.882 -0.1996 -0.2106  0.1178
  586BOLB   NC114041  22.042   6.335  27.923  0.1416 -0.1219 -0.2391
  586BOLB   PO114042  22.285   6.366  28.227  0.0506  0.0690 -0.0127
  586BOLB   GL114043  22.605   6.209  28.443  0.0488 -0.2785  0.3170
  586BOLB   GL214044  22.594   6.458  28.740 -0.2468 -0.1182  0.0966
  586BOLB   C1A14045  22.854   6.055  28.897  0.5094 -0.2680  0.2430
  586BOLB   C2A14046  23.303   5.964  28.838  0.1061 -0.0897  0.3187
  586BOLB   C3A14047  23.772   5.871  28.844 -0.2073  0.0390 -0.0937
  586BOLB   C4A14048  24.172   5.927  28.949  0.3541  0.2239 -0.1941
  586BOLB   C1B14049  23.069   6.342  28.573 -0.0779 -0.2155 -0.3014
  586BOLB   C2B14050  23.469   6.222  28.471  0.1708  0.1895  0.0122
  586BOLB   C3B14051  23.799   5.955  28.314 -0.2008 -0.1529  0.3939
  586BOLB   C4B14052  23.996   5.712  28.014 -0.0157 -0.3211  0.1185
  586BOLB   NC214053  26.869   5.800  27.876  0.5115 -0.3268  0.1804
  586BOLB   PO214054  26.508   5.690  28.003 -0.0083 -0.0332 -0.0071
  586BOLB   GL314055  26.055   5.679  27.933 -0.0265  0.1358 -0.1129
  586BOLB   GL414056  25.831   5.783  27.807 -0.1784  0.3825 -0.1486
  586BOLB   C1C14057  25.630   5.658  28.231 -0.1550  0.0283  0.1021
  586BOLB   C2C14058  25.300   5.477  28.310 -0.0251 -0.0050 -0.1194
  586BOLB   C3C14059  24.946   5.561  28.534 -0.1057 -0.0733 -0.1436
  586BOLB   C4C14060  24.537   5.724  28.743 -0.0686  0.1615  0.1645
  586BOLB   C1D14061  25.735   6.121  28.033  0.0064  0.2496  0.1850
  586BOLB   C2D14062  25.559   6.449  28.049 -0.0851 -0.3661 -0.1655
  586BOLB   C3D14063  25.095   6.427  28.282 -0.1436  0.0941 -0.0941
  586BOLB   C4D14064  24.664   6.502  28.403 -0.0552 -0.1892  0.1021
  587BOLB   NC114065  14.811   7.923  21.804  0.2289 -0.0295  0.0471
  587BOLB   PO114066  14.563   7.855  22.248  0.0944  0.0695 -0.0368
  587BOLB   GL114067  14.437   7.567  22.010  0.0483 -0.0413 -0.0297
  587BOLB   GL214068  14.307   7.711  21.732  0.5209 -0.0093 -0.0789
  587BOLB   C1A14069  14.186   7.227  21.943  0.4436 -0.0991  0.1317
  587BOLB   C2A14070  13.834   7.091  21.755 -0.1172  0.0734  0.0138
  587BOLB   C3A14071  13.692   6.894  21.438 -0.0845  0.3195 -0.1433
  587BOLB   C4A14072  13.644   6.846  21.014  0.2073  0.0115 -0.2503
  587BOLB   C1B14073  14.257   7.814  21.310  0.0716  0.1339  0.1175
  587BOLB   C2B14074  14.352   7.618  20.928 -0.0438 -0.3482 -0.2148
  587BOLB   C3B14075  14.398   7.450  20.572 -0.0452  0.1433  0.0706
  587BOLB   C4B14076  14.256   7.177  20.271  0.1747  0.0141  0.0425
  587BOLB   NC214077  11.198   6.304  19.438  0.3101  0.1330  0.2127
  587BOLB   PO214078  11.700   6.238  19.298 -0.0771  0.0116 -0.2282
  587BOLB   GL314079  12.148   6.339  19.455 -0.0144 -0.0849 -0.0487
  587BOLB   GL414080  12.360   6.331  19.300  0.1790  0.3896 -0.2082
  587BOLB   C1C14081  12.535   6.572  19.690 -0.0507 -0.2104  0.1005
  587BOLB   C2C14082  12.617   6.716  20.194  0.0060  0.0955 -0.0887
  587BOLB   C3C14083  12.979   6.800  20.411 -0.1803  0.2766 -0.1435
  587BOLB   C4C14084  13.225   6.776  20.772  0.2735  0.2532 -0.3535
  587BOLB   C1D14085  12.718   6.518  19.132  0.2334  0.1032 -0.1918
  587BOLB   C2D14086  13.078   6.790  19.277  0.0878  0.1191  0.1569
  587BOLB   C3D14087  13.362   6.991  19.584  0.0723 -0.1177 -0.0310
  587BOLB   C4D14088  13.479   7.188  19.911 -0.1181 -0.1060 -0.0087
  588BOLB   NC114089  13.184  20.867  31.350 -0.0219  0.1781 -0.0566
  588BOLB   PO114090  13.297  21.299  31.451 -0.0632  0.1286  0.1773
  588BOLB   GL114091  13.141  21.607  31.680  0.1340  0.0162 -0.1184
  588BOLB   GL214092  13.356  21.821  31.706 -0.1234  0.0717 -0.1217
  588BOLB   C1A14093  12.863  21.796  32.011  0.1051 -0.0394 -0.3199
  588BOLB   C2A14094  12.769  22.241  32.067 -0.1719 -0.2755  0.0703
  588BOLB   C3A14095  12.823  22.701  32.006 -0.0960  0.0188 -0.0664
  588BOLB   C4A14096  12.596  23.004  31.841 -0.1763  0.3642 -0.3735
  588BOLB   C1B14097  13.261  22.145  31.861  0.1217  0.4724 -0.3235
  588BOLB   C2B14098  13.289  22.547  32.194  0.0382 -0.3097 -0.2758
  588BOLB   C3B14099  13.598  22.839  32.295 -0.0140  0.0854 -0.1163
  588BOLB   C4B14100  13.938  23.054  32.228 -0.2638  0.1408  0.1208
  588BOLB   NC214101  12.213  24.739  32.615 -0.0332  0.0138 -0.2427
  588BOLB   PO214102  12.651  24.724  32.527  0.1438 -0.0646  0.0977
  588BOLB   GL314103  12.677  24.290  32.593 -0.0635 -0.1190  0.1692
  588BOLB   GL414104  12.709  24.162  32.809 -0.4473 -0.4275  0.0321
  588BOLB   C1C14105  12.343  23.966  32.570  0.1701 -0.0983  0.1055
  588BOLB   C2C14106  12.044  23.561  32.559  0.1158 -0.1090  0.0067
  588BOLB   C3C14107  12.028  23.211  32.418  0.4129  0.2597 -0.1333
  588BOLB   C4C14108  12.264  23.109  32.020 -0.1218 -0.4136 -0.2019
  588BOLB   C1D14109  12.874  23.734  32.873  0.0237 -0.1670  0.0149
  588BOLB   C2D14110  12.778  23.348  33.153 -0.0525 -0.0385 -0.0395
  588BOLB   C3D14111  12.752  23.148  33.468 -0.0339 -0.3005  0.0295
  588BOLB   C4D14112  12.526  22.840  33.463 -0.1752  0.1721 -0.1662
  589BOLB   NC114113  19.512  17.801  35.345 -0.1427 -0.2736 -0.2353
  589BOLB   PO114114  19.611  18.236  35.552  0.0069 -0.0140 -0.1280
  589BOLB   GL114115  19.997  18.402  35.671 -0.0773  0.4637  0.3375
  589BOLB   GL214116  20.037  18.083  35.774 -0.0656 -0.1389 -0.0498
  589BOLB   C1A14117  20.274  18.728  35.608  0.0939 -0.0649  0.3094
  589BOLB   C2A14118  20.575  19.011  35.610 -0.4140 -0.0547 -0.2341
  589BOLB   C3A14119  20.773  19.300  35.498  0.0264 -0.2853  0.3327
  589BOLB   C4A14120  21.108  19.483  35.656  0.1944 -0.2181  0.1407
  589BOLB   C1B14121  20.424  18.329  35.916 -0.2721  0.0431  0.0091
  589BOLB   C2B14122  20.710  18.369  36.035  0.3648  0.3195  0.2208
  589BOLB   C3B14123  21.121  18.470  36.266  0.0270 -0.1346 -0.0437
  589BOLB   C4B14124  21.550  18.331  36.258 -0.1815  0.1527 -0.1362
  589BOLB   NC214125  22.091  21.377  36.423  0.0562  0.3688 -0.0086
  589BOLB   PO214126  22.393  21.306  36.106 -0.1768 -0.0246 -0.1917
  589BOLB   GL314127  22.331  20.886  35.993 -0.0509  0.0698  0.0962
  589BOLB   GL414128  22.524  20.675  36.150 -0.2170 -0.1040 -0.3748
  589BOLB   C1C14129  22.047  20.644  36.180  0.0877  0.0744 -0.0744
  589BOLB   C2C14130  21.670  20.470  36.221  0.1150 -0.2587 -0.1051
  589BOLB   C3C14131  21.506  20.164  35.979  0.0520  0.1177 -0.4183
  589BOLB   C4C14132  21.174  19.787  35.903 -0.0962  0.0142  0.0055
  589BOLB   C1D14133  22.412  20.275  36.134  0.3239  0.0848 -0.0067
  589BOLB   C2D14134  21.974  19.998  36.162 -0.2650  0.0047  0.3513
  589BOLB   C3D14135  21.893  19.724  36.001  0.1238  0.0774 -0.2632
  589BOLB   C4D14136  22.157  19.489  35.726 -0.0377  0.1787  0.0214
  590BOLB   NC114137  15.884  10.742  39.822 -0.4263  0.1001  0.0394
  590BOLB   PO114138  16.198  11.178  39.726 -0.0934  0.3552 -0.0654
  590BOLB   GL114139  16.244  11.062  40.170 -0.1295 -0.0635  0.1741
  590BOLB   GL214140  16.462  11.351  40.281  0.0149 -0.0899 -0.0581
  590BOLB   C1A14141  16.211  10.782  40.579 -0.0348 -0.1386  0.1049
  590BOLB   C2A14142  16.160  10.777  41.077  0.0429 -0.1845  0.0739
  590BOLB   C3A14143  16.098  10.720  41.494 -0.0769 -0.1177  0.1109
  590BOLB   C4A14144  15.884  10.923  41.779 -0.0348  0.0580 -0.0581
  590BOLB   C1B14145  16.326  11.271  40.760  0.2042 -0.1966  0.2990
  590BOLB   C2B14146  16.495  11.393  41.152  0.0058  0.0195  0.0356
  590BOLB   C3B14147  16.733  11.321  41.459 -0.2555 -0.2020 -0.0603
  590BOLB   C4B14148  17.145  11.458  41.561 -0.0202  0.0221 -0.0393
  590BOLB   NC214149  15.087  10.048  44.007  0.2353  0.2799  0.1395
  590BOLB   PO214150  15.568  10.152  44.089  0.1465  0.0280  0.0203
  590BOLB   GL314151  15.503  10.214  43.674 -0.0046 -0.0338  0.0942
  590BOLB   GL414152  15.430  10.400  43.617 -0.1149  0.1827 -0.0346
  590BOLB   C1C14153  15.554  10.138  43.197  0.2003  0.0885  0.3208
  590BOLB   C2C14154  15.773  10.282  42.890 -0.2860 -0.2723  0.0505
  590BOLB   C3C14155  15.860  10.600  42.586  0.1277  0.0930 -0.2112
  590BOLB   C4C14156  15.884  10.840  42.219 -0.1379  0.3214  0.3298
  590BOLB   C1D14157  15.479  10.615  43.169  0.0639  0.1523 -0.1025
  590BOLB   C2D14158  15.378  10.728  42.846  0.2705  0.1748  0.1040
  590BOLB   C3D14159  15.435  10.953  42.460 -0.2393 -0.0004 -0.0528
  590BOLB   C4D14160  15.423  11.130  42.110  0.1050 -0.0813  0.0078
  591BOLB   NC114161  20.949  12.388  43.038 -0.4094  0.3114  0.0268
  591BOLB   PO114162  21.382  12.252  42.800  0.3335  0.3825 -0.1312
  591BOLB   GL114163  21.076  12.439  42.498  0.1025  0.1585  0.0683
  591BOLB   GL214164  20.899  12.715  42.616  0.1538 -0.0332 -0.2728
  591BOLB   C1A14165  20.974  12.600  42.123  0.1210 -0.1671  0.2921
  591BOLB   C2A14166  20.806  12.885  41.790  0.0094 -0.1609  0.1874
  591BOLB   C3A14167  20.462  13.161  41.631  0.3409 -0.1841  0.0709
  591BOLB   C4A14168  20.086  13.319  41.517 -0.0142 -0.0931 -0.2567
  591BOLB   C1B14169  20.520  12.923  42.400 -0.2301  0.0536 -0.2433
  591BOLB   C2B14170  20.152  13.035  42.016 -0.1418  0.0580  0.0423
  591BOLB   C3B14171  19.946  13.461  41.998 -0.0083  0.1227 -0.1318
  591BOLB   C4B14172  19.855  13.811  42.313 -0.1332 -0.2086 -0.1430
  591BOLB   NC214173  19.213  11.912  43.697  0.0132  0.0071 -0.1888
  591BOLB   PO214174  19.487  12.316  43.537 -0.0837  0.2747 -0.0190
  591BOLB   GL314175  19.379  12.311  43.151  0.2222  0.0361  0.1326
  591BOLB   GL414176  19.270  11.971  43.103 -0.0384 -0.1107  0.1944
  591BOLB   C1C14177  19.231  12.647  42.818 -0.0226 -0.3871  0.2076
  591BOLB   C2C14178  19.301  12.875  42.430 -0.1230  0.2614 -0.1983
  591BOLB   C3C14179  19.656  13.075  42.093  0.1933 -0.1455 -0.0964
  591BOLB   C4C14180  19.636  13.220  41.745 -0.1286  0.0588 -0.0155
  591BOLB   C1D14181  19.416  12.125  42.656 -0.0444 -0.1703 -0.0930
  591BOLB   C2D14182  19.199  12.311  42.323  0.2550  0.3108 -0.0550
  591BOLB   C3D14183  18.945  12.414  42.027 -0.0099 -0.0358  0.0004
  591BOLB   C4D14184  19.007  12.440  41.507  0.0337  0.2057  0.0164
  592BOLB   NC114185  18.257   5.659  25.080 -0.1321  0.1313 -0.3005
  592BOLB   PO114186  18.500   5.336  24.868 -0.0933 -0.0397 -0.1781
  592BOLB   GL114187  18.380   4.850  24.767 -0.1775  0.1464 -0.0114
  592BOLB   GL214188  18.535   4.576  24.904 -0.2957 -0.4792 -0.2161
  592BOLB   C1A14189  18.173   4.422  24.518 -0.1459  0.0501 -0.0596
  592BOLB   C2A14190  18.226   3.905  24.444 -0.1248  0.0197 -0.1120
  592BOLB   C3A14191  18.289   3.838  24.104 -0.1221 -0.3390 -0.2766
  592BOLB   C4A14192  18.409   3.524  23.839  0.0289 -0.1341  0.0723
  592BOLB   C1B14193  18.622   4.152  24.743 -0.2325  0.1817 -0.3393
  592BOLB   C2B14194  18.640   3.727  24.595  0.3421 -0.0938  0.3261
  592BOLB   C3B14195  18.711   3.712  24.241 -0.3117  0.3104  0.0094
  592BOLB   C4B14196  18.714   3.944  23.828  0.0698 -0.5579  0.2876
  592BOLB   NC214197  18.950   1.806  22.191 -0.4000  0.1577 -0.0623
  592BOLB   PO214198  18.600   1.706  22.390  0.0711 -0.0489  0.0102
  592BOLB   GL314199  18.439   2.067  22.693  0.1956  0.0781 -0.0764
  592BOLB   GL414200  18.421   2.433  22.687 -0.1405 -0.1481  0.2742
  592BOLB   C1C14201  18.735   2.366  23.010 -0.0141 -0.0226  0.2502
  592BOLB   C2C14202  18.927   2.552  23.377 -0.2898  0.0425  0.1281
  592BOLB   C3C14203  18.719   2.798  23.652 -0.0983  0.1411  0.1926
  592BOLB   C4C14204  18.512   3.139  23.715 -0.1314 -0.1297  0.1596
  592BOLB   C1D14205  18.432   2.918  22.753  0.1195  0.1620  0.0415
  592BOLB   C2D14206  18.375   3.407  22.894  0.1467  0.0109 -0.0574
  592BOLB   C3D14207  18.426   3.858  23.047  0.1454 -0.0927  0.1233
  592BOLB   C4D14208  18.461   4.194  22.714 -0.3893  0.2379  0.2286
  593BOLB   NC114209  17.999  15.712  27.842  0.0099  0.0616  0.0095
  593BOLB   PO114210  18.431  15.526  27.616 -0.1774 -0.2082  0.0342
  593BOLB   GL114211  18.333  15.601  27.184 -0.0490 -0.0456 -0.2035
  593BOLB   GL214212  18.234  15.873  27.053 -0.3273 -0.0376 -0.0466
  593BOLB   C1A14213  18.142  15.410  26.832 -0.0494  0.1908 -0.0047
  593BOLB   C2A14214  18.259  15.130  26.545 -0.1249  0.1787  0.0422
  593BOLB   C3A14215  18.360  15.095  26.187  0.1912  0.2348  0.0870
  593BOLB   C4A14216  18.576  14.772  25.793 -0.1238 -0.1051 -0.0990
  593BOLB   C1B14217  18.016  15.866  26.618 -0.0411 -0.0968 -0.1247
  593BOLB   C2B14218  18.137  15.808  26.254  0.0094  0.0059  0.0190
  593BOLB   C3B14219  18.106  15.581  25.772 -0.0785 -0.0835  0.0028
  593BOLB   C4B14220  18.164  15.157  25.708 -0.0709 -0.0197  0.1318
  593BOLB   NC214221  20.633  13.155  26.396  0.0309 -0.4995 -0.0892
  593BOLB   PO214222  20.629  13.667  26.348 -0.0612  0.0764  0.0228
  593BOLB   GL314223  20.257  13.809  26.065 -0.2453 -0.0745 -0.2639
  593BOLB   GL414224  20.517  13.803  25.831 -0.1718  0.2821 -0.1069
  593BOLB   C1C14225  19.883  13.639  25.931  0.1833 -0.1945 -0.1282
  593BOLB   C2C14226  19.457  13.671  25.795  0.4371 -0.0441 -0.1749
  593BOLB   C3C14227  19.068  14.016  25.870  0.2664  0.0588  0.1303
  593BOLB   C4C14228  18.721  14.388  25.768  0.2462 -0.1669  0.0397
  593BOLB   C1D14229  20.230  13.804  25.509 -0.4940  0.3559 -0.0730
  593BOLB   C2D14230  19.828  13.977  25.545 -0.3527  0.0303 -0.0366
  593BOLB   C3D14231  19.763  14.424  25.546  0.1753 -0.0838  0.0954
  593BOLB   C4D14232  19.547  14.779  25.332  0.1708  0.3060 -0.1014
  594BOLB   NC114233   8.926   8.456  30.421  0.0456  0.2638  0.0649
  594BOLB   PO114234   8.838   8.310  30.071  0.1903  0.2144  0.0036
  594BOLB   GL114235   8.675   7.943  30.057  0.0171  0.1658  0.3397
  594BOLB   GL214236   8.498   7.785  30.392 -0.2128  0.0829 -0.0831
  594BOLB   C1A14237   8.182   7.817  30.001  0.0675 -0.1390  0.0746
  594BOLB   C2A14238   7.926   7.515  30.086  0.2254 -0.0201 -0.1461
  594BOLB   C3A14239   7.523   7.484  30.142  0.2008 -0.2944 -0.2075
  594BOLB   C4A14240   7.097   7.357  30.232  0.0060  0.1952 -0.1142
  594BOLB   C1B14241   8.075   7.746  30.505  0.2326 -0.1064 -0.0102
  594BOLB   C2B14242   7.913   7.329  30.597  0.2651 -0.1410 -0.0300
  594BOLB   C3B14243   7.685   6.889  30.652  0.1149  0.0156  0.1569
  594BOLB   C4B14244   7.434   6.665  30.338  0.1401 -0.2097  0.1563
  594BOLB   NC214245   4.667   6.526  29.208 -0.2099 -0.0619 -0.2004
  594BOLB   PO214246   5.110   6.516  29.074  0.2606 -0.1292 -0.0869
  594BOLB   GL314247   5.449   6.872  29.236 -0.0808  0.1027 -0.0593
  594BOLB   GL414248   5.360   7.183  28.989 -0.0134  0.0893 -0.1925
  594BOLB   C1C14249   5.804   6.745  29.386 -0.3187 -0.0770 -0.2632
  594BOLB   C2C14250   5.966   6.951  29.757 -0.0385 -0.0038 -0.1130
  594BOLB   C3C14251   6.136   7.154  30.139  0.0222  0.1941 -0.2455
  594BOLB   C4C14252   6.635   7.139  30.285  0.4220  0.0454 -0.3053
  594BOLB   C1D14253   5.805   7.264  28.967  0.1803 -0.0951  0.0391
  594BOLB   C2D14254   6.043   7.527  29.075  0.0845  0.1015 -0.2533
  594BOLB   C3D14255   6.192   7.865  28.984 -0.1339  0.0105 -0.3289
  594BOLB   C4D14256   6.679   7.921  29.027  0.2114  0.1114  0.0258
  595BOLB   NC114257   8.527  12.595  25.914 -0.2802  0.0774  0.0813
  595BOLB   PO114258   8.405  12.870  26.321  0.1034  0.0458  0.1177
  595BOLB   GL114259   8.078  12.521  26.260 -0.2465 -0.0783  0.1947
  595BOLB   GL214260   8.032  12.265  26.408  0.0286  0.1812  0.0260
  595BOLB   C1A14261   7.591  12.534  26.320 -0.5722  0.1250 -0.1306
  595BOLB   C2A14262   7.245  12.713  26.134 -0.4052 -0.2329  0.0019
  595BOLB   C3A14263   6.877  12.608  25.991 -0.2143  0.1255 -0.0714
  595BOLB   C4A14264   6.486  12.395  25.980  0.0705  0.0125 -0.1582
  595BOLB   C1B14265   8.052  11.793  26.383 -0.0987 -0.1842 -0.1423
  595BOLB   C2B14266   7.645  11.570  26.486 -0.3448  0.2165 -0.1750
  595BOLB   C3B14267   7.338  11.471  26.796 -0.0983  0.2087 -0.1199
  595BOLB   C4B14268   6.897  11.394  26.887 -0.2556  0.0652  0.1340
  595BOLB   NC214269   3.888  12.320  26.212 -0.0656  0.0342  0.1142
  595BOLB   PO214270   4.041  11.980  26.018 -0.3679  0.0045 -0.3217
  595BOLB   GL314271   4.380  12.027  26.013  0.1687  0.2181 -0.1896
  595BOLB   GL414272   4.624  11.796  25.733  0.1029 -0.1849 -0.0065
  595BOLB   C1C14273   4.844  12.171  26.120  0.3865 -0.0505 -0.0750
  595BOLB   C2C14274   5.252  12.316  26.221  0.3107 -0.1035  0.1940
  595BOLB   C3C14275   5.570  12.484  25.971 -0.0664 -0.0560 -0.0313
  595BOLB   C4C14276   6.013  12.422  25.940  0.1082 -0.3172  0.0352
  595BOLB   C1D14277   4.969  11.794  25.510  0.0114 -0.1137  0.1258
  595BOLB   C2D14278   5.269  11.629  25.497 -0.0902  0.0280 -0.0719
  595BOLB   C3D14279   5.714  11.702  25.393  0.5330 -0.1279 -0.1127
  595BOLB   C4D14280   6.154  11.669  25.482 -0.1345  0.1734 -0.2524
  596BOLB   NC114281  17.897   7.514  21.947  0.1981  0.3400 -0.0347
  596BOLB   PO114282  17.887   7.266  21.623 -0.0736  0.2168  0.0405
  596BOLB   GL114283  18.076   6.908  21.429 -0.0903  0.1271 -0.1158
  596BOLB   GL214284  18.333   6.845  21.544 -0.3731 -0.2335 -0.1252
  596BOLB   C1A14285  18.293   6.582  21.104  0.3735 -0.2038 -0.0520
  596BOLB   C2A14286  18.264   6.135  20.949 -0.3618 -0.1743  0.1155
  596BOLB   C3A14287  18.449   5.796  20.688 -0.1993  0.0863  0.1595
  596BOLB   C4A14288  18.838   5.798  20.509  0.2191 -0.0229  0.0863
  596BOLB   C1B14289  18.469   6.398  21.485 -0.2479 -0.2685 -0.3721
  596BOLB   C2B14290  18.661   6.013  21.610  0.2296 -0.4033 -0.0247
  596BOLB   C3B14291  19.136   5.869  21.595  0.0180  0.0037 -0.0524
  596BOLB   C4B14292  19.507   5.521  21.349  0.1932 -0.1999 -0.1527
  596BOLB   NC214293  20.467   4.734  18.901 -0.0586 -0.0392  0.2958
  596BOLB   PO214294  20.087   4.546  18.801 -0.1790 -0.2782  0.1916
  596BOLB   GL314295  19.655   4.713  19.063 -0.3201 -0.1652  0.1307
  596BOLB   GL414296  19.471   4.457  19.210  0.2688  0.0348  0.1119
  596BOLB   C1C14297  19.534   5.218  19.191  0.0440  0.1414 -0.0431
  596BOLB   C2C14298  19.406   5.414  19.598 -0.1825 -0.2182 -0.0576
  596BOLB   C3C14299  19.472   5.457  20.059 -0.2768  0.3567 -0.1875
  596BOLB   C4C14300  19.209   5.603  20.298  0.2363  0.2631 -0.1438
  596BOLB   C1D14301  19.323   4.877  19.461 -0.0059 -0.2806  0.0617
  596BOLB   C2D14302  19.138   5.001  19.807 -0.3048  0.0530  0.0667
  596BOLB   C3D14303  18.858   5.243  20.053 -0.0119 -0.0612  0.2190
  596BOLB   C4D14304  18.545   5.505  20.197  0.1095 -0.0351  0.0724
  597BOLB   NC114305  16.161   4.441  26.772 -0.1176  0.1056 -0.1925
  597BOLB   PO114306  16.382   4.554  26.405 -0.2440 -0.0962 -0.3383
  597BOLB   GL114307  16.313   4.231  26.212  0.0942 -0.1367 -0.1559
  597BOLB   GL214308  16.153   4.084  26.415  0.3006 -0.0976 -0.3814
  597BOLB   C1A14309  16.466   3.962  25.933 -0.0082 -0.1146 -0.1049
  597BOLB   C2A14310  16.680   3.592  25.785 -0.1219  0.0402  0.2313
  597BOLB   C3A14311  17.019   3.216  25.639 -0.2406  0.1219  0.1532
  597BOLB   C4A14312  17.294   2.998  25.314  0.1225 -0.1669  0.1570
  597BOLB   C1B14313  16.103   3.675  26.295  0.1870 -0.3883  0.2670
  597BOLB   C2B14314  15.908   3.253  26.117 -0.2798  0.2292 -0.0284
  597BOLB   C3B14315  15.793   2.776  26.029  0.0983 -0.0954 -0.1072
  597BOLB   C4B14316  15.744   2.391  25.818  0.0031 -0.0063 -0.2400
  597BOLB   NC214317  18.489   0.761  24.773  0.1000  0.0688 -0.2410
  597BOLB   PO214318  18.823   1.051  24.753  0.1161  0.2320 -0.0661
  597BOLB   GL314319  18.617   1.259  25.057  0.5550  0.0953  0.0687
  597BOLB   GL414320  18.455   1.226  25.333  0.0275  0.2110  0.1380
  597BOLB   C1C14321  18.322   1.622  25.055 -0.0844 -0.2518 -0.0688
  597BOLB   C2C14322  18.096   2.028  25.038  0.0500  0.3369 -0.0012
  597BOLB   C3C14323  17.814   2.378  25.005  0.1974 -0.1249 -0.0861
  597BOLB   C4C14324  17.627   2.729  25.137 -0.0848  0.0962  0.2054
  597BOLB   C1D14325  18.483   1.455  25.661 -0.1463  0.0602  0.2590
  597BOLB   C2D14326  18.321   1.862  25.669 -0.2112 -0.5567  0.1152
  597BOLB   C3D14327  18.118   2.119  26.007  0.0475  0.3465 -0.1590
  597BOLB   C4D14328  17.750   2.435  25.961 -0.1483  0.1313 -0.2260
  598BOLB   NC114329  10.112  19.277  32.944 -0.1024  0.0558  0.3310
  598BOLB   PO114330   9.705  19.271  32.661  0.0907 -0.0231 -0.0411
  598BOLB   GL114331   9.533  19.574  32.700 -0.2974 -0.2219  0.1407
  598BOLB   GL214332   9.409  19.793  32.540 -0.1177  0.0216 -0.1863
  598BOLB   C1A14333   9.277  19.715  33.022  0.0997  0.0542 -0.2593
  598BOLB   C2A14334   9.003  20.045  33.240 -0.1008 -0.0155  0.0164
  598BOLB   C3A14335   8.689  20.268  33.497 -0.2970  0.0169 -0.0549
  598BOLB   C4A14336   8.550  20.610  33.643  0.4039 -0.0360  0.1411
  598BOLB   C1B14337   8.982  19.920  32.582  0.0812 -0.3190 -0.1644
  598BOLB   C2B14338   8.760  20.227  32.720  0.1975  0.1405  0.1598
  598BOLB   C3B14339   8.446  20.385  32.840 -0.2884 -0.0405 -0.3291
  598BOLB   C4B14340   8.229  20.553  33.279  0.0409 -0.1768  0.0745
  598BOLB   NC214341   6.191  21.659  33.377 -0.1219  0.3860 -0.2279
  598BOLB   PO214342   6.604  21.746  33.656  0.1046 -0.3860 -0.1298
  598BOLB   GL314343   6.965  21.685  33.567  0.0209  0.0367  0.3649
  598BOLB   GL414344   6.978  21.698  33.319 -0.1019 -0.1216  0.5331
  598BOLB   C1C14345   7.470  21.610  33.485  0.0401 -0.2903 -0.0802
  598BOLB   C2C14346   7.879  21.447  33.399 -0.1027 -0.0879  0.1005
  598BOLB   C3C14347   8.258  21.384  33.531  0.0162  0.2222 -0.1485
  598BOLB   C4C14348   8.501  21.014  33.524  0.1349 -0.3471  0.0509
  598BOLB   C1D14349   7.055  21.383  33.075 -0.1976  0.0496 -0.1282
  598BOLB   C2D14350   7.348  21.172  33.337  0.0288  0.2171 -0.0521
  598BOLB   C3D14351   7.685  20.961  33.555 -0.2812  0.1061  0.0017
  598BOLB   C4D14352   8.090  20.833  33.810  0.0185  0.1480  0.0179
  599BOLB   NC114353  11.659  18.652  24.112  0.3721 -0.0627 -0.1544
  599BOLB   PO114354  11.319  18.734  24.400  0.0982  0.1257  0.0549
  599BOLB   GL114355  11.046  18.881  24.111  0.2932  0.0153 -0.1363
  599BOLB   GL214356  10.856  18.629  23.842 -0.2203  0.0742 -0.0685
  599BOLB   C1A14357  10.835  19.233  24.109 -0.6776 -0.1931 -0.0771
  599BOLB   C2A14358  10.401  19.197  23.951  0.0205  0.1546  0.2649
  599BOLB   C3A14359  10.185  19.472  23.678 -0.0495  0.3012  0.0442
  599BOLB   C4A14360  10.196  19.689  23.252  0.0398  0.2401  0.1100
  599BOLB   C1B14361  10.507  18.834  23.637  0.1586 -0.1433  0.2902
  599BOLB   C2B14362  10.266  19.074  23.406  0.1488  0.0941  0.0529
  599BOLB   C3B14363   9.968  19.217  23.288  0.2659 -0.1979 -0.1367
  599BOLB   C4B14364   9.662  19.528  23.281 -0.0517 -0.1437 -0.1283
  599BOLB   NC214365   8.758  20.900  21.897  0.1160 -0.1461 -0.2484
  599BOLB   PO214366   8.917  20.595  21.757 -0.0924  0.0913  0.0571
  599BOLB   GL314367   9.152  20.487  22.060  0.3222  0.0792  0.0504
  599BOLB   GL414368   9.467  20.415  21.917  0.2386 -0.0199 -0.1183
  599BOLB   C1C14369   9.204  20.067  22.194  0.1696 -0.1057 -0.0376
  599BOLB   C2C14370   9.462  19.666  22.180 -0.1723  0.0026 -0.0701
  599BOLB   C3C14371   9.779  19.558  22.539  0.0514 -0.1588  0.0823
  599BOLB   C4C14372  10.100  19.658  22.808 -0.2798  0.3254  0.0057
  599BOLB   C1D14373   9.776  20.029  22.131  0.2242  0.2344  0.4112
  599BOLB   C2D14374  10.087  19.843  22.245  0.0905 -0.2737 -0.0821
  599BOLB   C3D14375  10.425  20.140  22.468 -0.1163 -0.1284 -0.0422
  599BOLB   C4D14376  10.806  20.145  22.662  0.0176 -0.0337  0.2144
  600BOLB   NC114377  18.815   7.514  37.708 -0.0405  0.1121 -0.1624
  600BOLB   PO114378  19.233   7.615  37.842 -0.0003 -0.3252 -0.1738
  600BOLB   GL114379  19.247   7.281  38.144  0.0129 -0.2555  0.0194
  600BOLB   GL214380  19.581   6.994  38.137  0.1877 -0.0720  0.0732
  600BOLB   C1A14381  19.158   6.955  38.383 -0.2462  0.0428 -0.2630
  600BOLB   C2A14382  19.079   6.451  38.506 -0.0879 -0.3431  0.0974
  600BOLB   C3A14383  19.127   6.008  38.487  0.1299  0.3194 -0.2232
  600BOLB   C4A14384  19.100   5.523  38.431 -0.0784 -0.2567  0.1260
  600BOLB   C1B14385  19.581   6.557  38.261 -0.1856 -0.0693 -0.1307
  600BOLB   C2B14386  19.594   6.322  38.600 -0.1467  0.0972 -0.1440
  600BOLB   C3B14387  19.593   5.990  38.811 -0.1491  0.0721 -0.0292
  600BOLB   C4B14388  19.207   5.911  39.025 -0.1840 -0.1151  0.3414
  600BOLB   NC214389  18.531   3.357  39.763 -0.0296 -0.3900  0.0703
  600BOLB   PO214390  18.244   3.694  39.976 -0.2179  0.0547 -0.0569
  600BOLB   GL314391  18.327   4.117  39.825  0.4933 -0.3714 -0.1542
  600BOLB   GL414392  18.138   4.197  39.638  0.0358  0.0368 -0.0261
  600BOLB   C1C14393  18.572   4.349  39.408  0.0364 -0.1850  0.1888
  600BOLB   C2C14394  18.921   4.563  39.271  0.1442 -0.0460 -0.0071
  600BOLB   C3C14395  19.083   4.814  38.984  0.2359  0.0970 -0.2134
  600BOLB   C4C14396  19.052   5.181  38.651 -0.1295  0.0956  0.3079
  600BOLB   C1D14397  17.920   4.495  39.421 -0.1365  0.0595 -0.2574
  600BOLB   C2D14398  17.898   4.937  39.256  0.0641 -0.0007  0.1236
  600BOLB   C3D14399  17.878   5.303  39.016  0.3580  0.0582 -0.0419
  600BOLB   C4D14400  18.068   5.382  38.707 -0.3334  0.0579 -0.2027
  601BOLB   NC114401  20.570   7.996  22.299 -0.0507 -0.1626 -0.0781
  601BOLB   PO114402  20.473   8.239  21.973 -0.0696 -0.1355  0.4549
  601BOLB   GL114403  20.589   7.993  21.578 -0.3048  0.0191 -0.1802
  601BOLB   GL214404  20.400   7.766  21.733 -0.0825  0.0283  0.1543
  601BOLB   C1A14405  20.669   7.712  21.299 -0.2573 -0.0934 -0.4606
  601BOLB   C2A14406  20.948   7.596  20.899  0.0858  0.1297 -0.1935
  601BOLB   C3A14407  21.162   7.386  20.735 -0.0198  0.0693 -0.1262
  601BOLB   C4A14408  21.315   6.994  20.595  0.2287 -0.1777  0.1401
  601BOLB   C1B14409  20.331   7.344  21.536 -0.0618  0.1401  0.2070
  601BOLB   C2B14410  20.139   6.997  21.227 -0.0626  0.3576 -0.0068
  601BOLB   C3B14411  20.249   6.670  20.984  0.3336  0.1235  0.0431
  601BOLB   C4B14412  20.374   6.271  20.863 -0.4210  0.1907 -0.4191
  601BOLB   NC214413  22.446   5.177  19.984 -0.0333 -0.0355  0.2580
  601BOLB   PO214414  22.128   4.913  19.820 -0.2446 -0.5172  0.3169
  601BOLB   GL314415  21.952   5.370  19.943 -0.3851 -0.0658  0.1622
  601BOLB   GL414416  22.171   5.597  19.906 -0.2456  0.2057  0.1916
  601BOLB   C1C14417  21.670   5.765  19.772  0.1142  0.2171  0.1032
  601BOLB   C2C14418  21.267   5.934  19.892 -0.1405 -0.4844  0.0227
  601BOLB   C3C14419  21.194   6.290  20.086  0.0689 -0.1699  0.1201
  601BOLB   C4C14420  21.156   6.628  20.375 -0.2577  0.1517  0.0381
  601BOLB   C1D14421  22.059   5.823  20.185  0.0247  0.0547 -0.1779
  601BOLB   C2D14422  21.820   5.922  20.231  0.1175 -0.1272 -0.3655
  601BOLB   C3D14423  21.558   6.106  20.390 -0.1388  0.2554 -0.0365
  601BOLB   C4D14424  21.178   6.152  20.692  0.2602 -0.1370  0.0697
  602BOLB   NC114425  17.688  18.634  36.975 -0.2176 -0.0407  0.0294
  602BOLB   PO114426  17.718  18.383  36.624 -0.4385 -0.1943  0.2535
  602BOLB   GL114427  18.035  18.796  36.667 -0.1318 -0.0685  0.0959
  602BOLB   GL214428  18.320  18.659  36.806 -0.1240 -0.0430 -0.3374
  602BOLB   C1A14429  18.356  19.168  36.756  0.2385  0.2303 -0.0460
  602BOLB   C2A14430  18.219  19.261  37.113  0.0364  0.3552 -0.3324
  602BOLB   C3A14431  18.230  19.552  37.438  0.0585 -0.0755 -0.0452
  602BOLB   C4A14432  18.465  19.524  37.819  0.0734  0.0714 -0.0013
  602BOLB   C1B14433  18.535  18.867  37.150  0.2828 -0.3305  0.0902
  602BOLB   C2B14434  18.922  18.868  37.450 -0.1276  0.0373 -0.0535
  602BOLB   C3B14435  19.377  18.949  37.478  0.0369 -0.1307  0.2173
  602BOLB   C4B14436  19.605  19.255  37.781 -0.0623  0.2755 -0.1172
  602BOLB   NC214437  19.149  20.986  39.418  0.1051  0.2316  0.0867
  602BOLB   PO214438  19.223  20.613  39.677  0.0764  0.0476  0.0089
  602BOLB   GL314439  19.163  20.485  39.273  0.1965 -0.3980  0.0528
  602BOLB   GL414440  19.162  20.772  38.948  0.1206  0.3324 -0.0309
  602BOLB   C1C14441  19.095  20.306  38.898  0.0288 -0.1287  0.3968
  602BOLB   C2C14442  19.123  20.135  38.583 -0.0587  0.1033  0.0354
  602BOLB   C3C14443  18.979  19.905  38.236  0.0521  0.0125 -0.3556
  602BOLB   C4C14444  18.763  19.555  38.099  0.0494  0.0409 -0.0113
  602BOLB   C1D14445  19.523  20.629  38.717  0.0669  0.2345 -0.2465
  602BOLB   C2D14446  19.634  20.342  38.461 -0.1484 -0.1489  0.0874
  602BOLB   C3D14447  19.630  20.404  37.937 -0.1115  0.0281 -0.2192
  602BOLB   C4D14448  19.916  20.339  37.646  0.2899 -0.1738  0.1065
  603BOLB   NC114449  18.566   9.326  20.059  0.1513  0.1425 -0.1445
  603BOLB   PO114450  18.710   8.955  19.916  0.2223  0.0771  0.1611
  603BOLB   GL114451  18.920   8.814  19.508  0.1041 -0.1953  0.1150
  603BOLB   GL214452  19.162   8.934  19.344  0.1886 -0.0630  0.2097
  603BOLB   C1A14453  18.782   8.551  19.266  0.1234  0.1233 -0.1342
  603BOLB   C2A14454  18.706   8.215  19.032 -0.0608  0.1025  0.0090
  603BOLB   C3A14455  18.583   8.100  18.661  0.1862 -0.0230  0.0977
  603BOLB   C4A14456  18.215   7.869  18.461  0.1142  0.1271  0.2042
  603BOLB   C1B14457  19.326   8.698  19.099 -0.0397  0.0222  0.2153
  603BOLB   C2B14458  19.598   8.555  18.711  0.2056 -0.0404  0.0550
  603BOLB   C3B14459  19.613   8.252  18.390  0.1713 -0.0302 -0.0260
  603BOLB   C4B14460  19.603   7.822  18.529 -0.2360 -0.1612 -0.0140
  603BOLB   NC214461  17.968   7.022  16.386  0.0619 -0.2296  0.0809
  603BOLB   PO214462  18.054   6.671  16.427 -0.0566  0.2009 -0.0141
  603BOLB   GL314463  18.155   6.751  16.869 -0.0939 -0.1345  0.1898
  603BOLB   GL414464  18.221   6.986  16.903  0.2929  0.3635 -0.0534
  603BOLB   C1C14465  17.971   6.763  17.289  0.2478 -0.0947 -0.0533
  603BOLB   C2C14466  17.947   6.998  17.581  0.3135  0.1895 -0.0648
  603BOLB   C3C14467  17.913   7.193  18.024  0.2296  0.1640 -0.0670
  603BOLB   C4C14468  18.028   7.592  18.247  0.2276  0.1433 -0.0284
  603BOLB   C1D14469  18.327   7.171  17.309 -0.1015 -0.1164  0.2162
  603BOLB   C2D14470  18.712   7.137  17.514 -0.0449  0.1061  0.2197
  603BOLB   C3D14471  19.006   7.435  17.684 -0.1134  0.1086 -0.2839
  603BOLB   C4D14472  19.308   7.731  17.791 -0.0922 -0.0228  0.1880
  604BOLB   NC114473  16.722  15.510  38.563  0.0497  0.1901  0.0143
  604BOLB   PO114474  16.827  15.442  39.085 -0.2583  0.3488  0.1789
  604BOLB   GL114475  16.914  15.576  39.524  0.3953 -0.0216 -0.1590
  604BOLB   GL214476  16.745  15.313  39.722  0.2325  0.0874 -0.0761
  604BOLB   C1A14477  17.077  15.921  39.804 -0.1472  0.0873  0.0387
  604BOLB   C2A14478  17.270  16.311  40.128  0.2307 -0.0922 -0.1635
  604BOLB   C3A14479  17.221  16.612  40.449 -0.2173  0.4341 -0.0015
  604BOLB   C4A14480  17.105  17.034  40.682  0.1295 -0.1442 -0.1660
  604BOLB   C1B14481  16.607  15.673  39.942  0.0334  0.0819  0.0939
  604BOLB   C2B14482  16.824  15.918  40.285 -0.1727  0.2146  0.1955
  604BOLB   C3B14483  17.104  16.093  40.481 -0.0538  0.2170  0.1522
  604BOLB   C4B14484  17.097  16.215  40.846 -0.2203 -0.0981 -0.0994
  604BOLB   NC214485  16.462  18.641  42.631  0.0300 -0.2132 -0.2713
  604BOLB   PO214486  16.179  18.318  42.675  0.1842  0.0437  0.0700
  604BOLB   GL314487  16.186  17.972  42.380  0.0271  0.0687  0.0374
  604BOLB   GL414488  16.112  18.080  42.051 -0.3080 -0.1870  0.0064
  604BOLB   C1C14489  16.519  17.704  41.987 -0.2689  0.2792 -0.2545
  604BOLB   C2C14490  16.863  17.467  41.740  0.0776  0.2997 -0.1723
  604BOLB   C3C14491  17.052  17.374  41.380 -0.0781  0.1796  0.0686
  604BOLB   C4C14492  17.161  17.413  40.893 -0.0105  0.2052  0.0054
  604BOLB   C1D14493  15.768  17.921  41.667 -0.1765 -0.1736  0.0027
  604BOLB   C2D14494  15.681  17.793  41.246  0.2523  0.1130 -0.0069
  604BOLB   C3D14495  15.790  17.596  40.768 -0.1450 -0.0999 -0.0061
  604BOLB   C4D14496  15.519  17.476  40.357  0.1676  0.2905  0.1583
  605BOLB   NC114497  23.300  12.193  34.705  0.3214 -0.0080  0.0443
  605BOLB   PO114498  23.461  12.381  34.372 -0.1344 -0.1382  0.4444
  605BOLB   GL114499  23.898  12.374  34.271  0.2957  0.0761  0.1209
  605BOLB   GL214500  24.001  12.219  34.066  0.0597 -0.0690 -0.0272
  605BOLB   C1A14501  24.351  12.466  34.332  0.0958  0.0065 -0.1382
  605BOLB   C2A14502  24.734  12.441  34.314 -0.0241 -0.2302 -0.0961
  605BOLB   C3A14503  25.195  12.325  34.458 -0.0162 -0.1969 -0.0527
  605BOLB   C4A14504  25.485  12.064  34.202 -0.3286  0.1326  0.0723
  605BOLB   C1B14505  24.454  12.285  33.896 -0.0847  0.2711  0.3260
  605BOLB   C2B14506  24.937  12.310  33.880 -0.3796  0.0297 -0.0341
  605BOLB   C3B14507  25.359  12.324  33.793  0.0514 -0.2359 -0.0391
  605BOLB   C4B14508  25.579  12.644  33.643 -0.0957  0.0216 -0.1606
  605BOLB   NC214509   0.455  11.833  34.470  0.0203  0.2065 -0.0995
  605BOLB   PO214510   0.309  11.590  34.852  0.1407 -0.0551  0.3385
  605BOLB   GL314511  26.937  11.682  34.808  0.0716 -0.2033  0.0447
  605BOLB   GL414512  26.810  11.493  35.022 -0.0708 -0.0397 -0.0362
  605BOLB   C1C14513  26.681  11.489  34.544 -0.0024 -0.4333  0.0695
  605BOLB   C2C14514  26.245  11.720  34.515  0.0164 -0.2792 -0.2538
  605BOLB   C3C14515  26.055  11.799  34.156 -0.0001 -0.2208 -0.1922
  605BOLB   C4C14516  25.716  11.974  33.931  0.1570  0.0192 -0.4607
  605BOLB   C1D14517  26.321  11.655  35.029 -0.1012  0.1749  0.1928
  605BOLB   C2D14518  25.949  11.720  35.347 -0.2067  0.3649 -0.3424
  605BOLB   C3D14519  25.611  11.890  35.425 -0.0225 -0.1865 -0.2762
  605BOLB   C4D14520  25.345  11.889  35.854 -0.2742  0.3252 -0.1497
  606BOLB   NC114521  19.589   8.737  20.144 -0.0952 -0.2723 -0.0161
  606BOLB   PO114522  19.256   8.778  19.900 -0.2494  0.2461 -0.1189
  606BOLB   GL114523  19.422   8.474  19.642  0.0572 -0.1414  0.1673
  606BOLB   GL214524  19.735   8.481  19.591 -0.2787 -0.1715 -0.4782
  606BOLB   C1A14525  19.438   8.026  19.614  0.1789  0.2145  0.0056
  606BOLB   C2A14526  19.414   7.653  19.244 -0.0195 -0.1956  0.1630
  606BOLB   C3A14527  19.257   7.416  18.876 -0.4093 -0.3193  0.2221
  606BOLB   C4A14528  19.189   7.453  18.374 -0.1989  0.0552 -0.3317
  606BOLB   C1B14529  19.677   8.244  19.243 -0.1722 -0.0634 -0.0344
  606BOLB   C2B14530  19.268   8.204  18.941  0.2721 -0.1947 -0.0102
  606BOLB   C3B14531  19.049   7.845  18.760  0.1020 -0.2711 -0.1288
  606BOLB   C4B14532  18.702   7.592  18.687  0.2446  0.1566 -0.2630
  606BOLB   NC214533  20.094   7.081  16.378 -0.3007  0.0044 -0.0551
  606BOLB   PO214534  19.941   7.123  16.757 -0.3046 -0.1531  0.2770
  606BOLB   GL314535  19.629   7.230  17.011  0.0719  0.0562 -0.2125
  606BOLB   GL414536  19.440   7.365  16.801  0.1698 -0.0366 -0.0406
  606BOLB   C1C14537  19.535   6.921  17.300  0.3595 -0.1921 -0.0341
  606BOLB   C2C14538  19.143   6.797  17.523 -0.2602 -0.3158  0.0205
  606BOLB   C3C14539  18.876   6.954  17.931  0.0089 -0.1370 -0.0966
  606BOLB   C4C14540  18.802   7.338  18.133  0.1820 -0.2150 -0.1971
  606BOLB   C1D14541  18.965   7.524  16.853  0.2030 -0.2067 -0.1155
  606BOLB   C2D14542  18.704   7.481  17.162  0.0452 -0.1852  0.0007
  606BOLB   C3D14543  18.521   7.662  17.500  0.4447 -0.1447 -0.0394
  606BOLB   C4D14544  18.330   7.479  17.893  0.0688  0.0042  0.2590
  607BOLB   NC114545  19.439   4.381  28.876 -0.2196 -0.0883  0.0692
  607BOLB   PO114546  19.006   4.249  28.746  0.2138  0.0343  0.0748
  607BOLB   GL114547  19.083   3.813  28.642 -0.1405  0.1751  0.2790
  607BOLB   GL214548  19.096   3.754  28.305 -0.1647  0.1111  0.0462
  607BOLB   C1A14549  19.317   3.417  28.592  0.2272  0.0127 -0.0354
  607BOLB   C2A14550  19.493   3.027  28.529  0.0097 -0.1538  0.0870
  607BOLB   C3A14551  19.517   2.706  28.213 -0.2019  0.5091  0.1201
  607BOLB   C4A14552  19.272   2.509  28.068 -0.2594  0.0584  0.2164
  607BOLB   C1B14553  19.263   3.353  28.132 -0.1044 -0.0446 -0.1071
  607BOLB   C2B14554  19.140   2.953  27.963  0.2146  0.1313 -0.2195
  607BOLB   C3B14555  19.000   2.752  27.641  0.0335 -0.1487  0.0799
  607BOLB   C4B14556  18.876   2.531  27.305 -0.0115 -0.1831  0.1353
  607BOLB   NC214557  19.300   0.460  26.789  0.1086 -0.1618 -0.1037
  607BOLB   PO214558  18.890   0.579  26.573 -0.0745  0.0433  0.1702
  607BOLB   GL314559  19.014   0.933  26.813  0.0227 -0.0166 -0.2955
  607BOLB   GL414560  19.385   0.961  26.789 -0.3197  0.3111  0.2941
  607BOLB   C1C14561  18.850   1.254  27.047  0.2443  0.0819 -0.0791
  607BOLB   C2C14562  18.697   1.723  27.250 -0.1454  0.0935 -0.2583
  607BOLB   C3C14563  18.954   2.041  27.384 -0.3023 -0.2043 -0.2171
  607BOLB   C4C14564  19.062   2.309  27.767 -0.0846  0.2201  0.1671
  607BOLB   C1D14565  19.333   1.375  27.025  0.1402 -0.4450 -0.0756
  607BOLB   C2D14566  19.276   1.589  27.462  0.1534 -0.2148  0.2345
  607BOLB   C3D14567  19.240   1.859  27.902  0.0717 -0.1427 -0.0071
  607BOLB   C4D14568  19.396   1.816  28.218 -0.3540  0.0907  0.1503
  608BOLB   NC114569  12.733  16.500  37.569 -0.2123 -0.0525  0.1572
  608BOLB   PO114570  12.423  16.848  37.794 -0.3171  0.5057 -0.0100
  608BOLB   GL114571  12.203  16.888  38.208  0.0872  0.3280 -0.1769
  608BOLB   GL214572  12.355  16.723  38.493  0.1974  0.0496  0.1486
  608BOLB   C1A14573  12.041  17.280  38.275 -0.0019 -0.0611  0.0620
  608BOLB   C2A14574  11.710  17.561  38.508  0.0017  0.0830  0.0917
  608BOLB   C3A14575  11.634  17.519  38.908 -0.0101  0.2201 -0.0658
  608BOLB   C4A14576  11.698  17.508  39.286 -0.1529 -0.3003 -0.7060
  608BOLB   C1B14577  12.339  17.170  38.598 -0.2426  0.1806 -0.1357
  608BOLB   C2B14578  12.186  17.551  38.679 -0.2122  0.5692 -0.1259
  608BOLB   C3B14579  12.126  17.669  39.037  0.0681  0.0666  0.0323
  608BOLB   C4B14580  12.217  17.404  39.328  0.1738  0.1521  0.2336
  608BOLB   NC214581  11.656  19.492  41.136 -0.0285 -0.1780  0.1250
  608BOLB   PO214582  11.548  19.069  41.189  0.0779 -0.0494 -0.1983
  608BOLB   GL314583  11.529  18.721  40.886 -0.1644  0.0694 -0.0762
  608BOLB   GL414584  11.812  18.733  40.842 -0.1589 -0.0091 -0.0893
  608BOLB   C1C14585  11.662  18.408  40.507  0.1670  0.3691 -0.2967
  608BOLB   C2C14586  11.870  18.130  40.354  0.2089 -0.0342  0.1945
  608BOLB   C3C14587  11.918  17.987  39.961 -0.2161  0.1598 -0.0473
  608BOLB   C4C14588  11.896  17.714  39.515  0.0945  0.0206 -0.0092
  608BOLB   C1D14589  12.135  18.578  40.532  0.2994  0.0885 -0.0379
  608BOLB   C2D14590  12.345  18.232  40.431  0.1009  0.0752 -0.0151
  608BOLB   C3D14591  12.342  17.780  40.123  0.1126 -0.1539 -0.0510
  608BOLB   C4D14592  12.421  17.723  39.729  0.2458  0.0394  0.0888
  609BOLB   NC114593  18.607  14.570  43.756  0.0245 -0.1279 -0.0407
  609BOLB   PO114594  18.819  14.412  43.376 -0.0102 -0.2748 -0.1002
  609BOLB   GL114595  18.495  14.366  42.973  0.0380 -0.2799 -0.1520
  609BOLB   GL214596  18.755  14.404  42.834  0.2820  0.0647 -0.3690
  609BOLB   C1A14597  18.187  14.455  42.701 -0.1358  0.1184 -0.1139
  609BOLB   C2A14598  17.992  14.343  42.219 -0.0842 -0.2844  0.4269
  609BOLB   C3A14599  17.887  14.315  41.837 -0.2997  0.2061  0.1111
  609BOLB   C4A14600  17.698  14.294  41.474 -0.3287  0.0117 -0.1340
  609BOLB   C1B14601  18.605  14.160  42.397 -0.0026  0.2815 -0.0596
  609BOLB   C2B14602  18.488  14.282  42.015 -0.0092 -0.1231  0.0735
  609BOLB   C3B14603  18.337  14.253  41.563  0.1988  0.0225 -0.3770
  609BOLB   C4B14604  18.082  14.493  41.245 -0.0416  0.2186  0.1367
  609BOLB   NC214605  16.640  15.422  43.261 -0.3665  0.1831  0.2732
  609BOLB   PO214606  17.103  15.331  43.296  0.1247  0.2230  0.1441
  609BOLB   GL314607  17.115  15.254  42.894 -0.2443  0.0902 -0.1278
  609BOLB   GL414608  16.962  15.621  42.771  0.1359 -0.0430  0.1337
  609BOLB   C1C14609  17.042  14.918  42.579 -0.2131  0.0624 -0.1647
  609BOLB   C2C14610  17.115  14.974  42.117 -0.1901 -0.0308 -0.0322
  609BOLB   C3C14611  17.097  14.722  41.785  0.0190 -0.0424  0.0420
  609BOLB   C4C14612  17.263  14.538  41.399  0.0914  0.0120 -0.2571
  609BOLB   C1D14613  16.955  15.512  42.312 -0.0296 -0.1003  0.1839
  609BOLB   C2D14614  16.866  15.648  41.901  0.4682 -0.2273  0.1004
  609BOLB   C3D14615  16.482  15.603  41.598 -0.4261 -0.2221  0.0838
  609BOLB   C4D14616  16.404  15.657  41.104 -0.0809 -0.3824  0.0285
  610BOLB   NC114617  23.457  13.267  28.733 -0.4032  0.0443 -0.3665
  610BOLB   PO114618  23.246  13.328  29.204 -0.1181 -0.1608 -0.3608
  610BOLB   GL114619  23.641  13.479  29.310  0.4058  0.4198 -0.3192
  610BOLB   GL214620  23.855  13.170  29.482 -0.2867 -0.3439 -0.1370
  610BOLB   C1A14621  23.915  13.649  29.442 -0.2094  0.1318 -0.1994
  610BOLB   C2A14622  24.161  13.878  29.269  0.3423  0.1236  0.1666
  610BOLB   C3A14623  24.335  14.261  28.990  0.1801 -0.1849 -0.0572
  610BOLB   C4A14624  24.639  14.456  28.676 -0.0419  0.1225  0.1387
  610BOLB   C1B14625  24.208  13.135  29.405 -0.3363 -0.0046 -0.0560
  610BOLB   C2B14626  24.492  13.454  29.544  0.1421  0.1950 -0.1577
  610BOLB   C3B14627  24.933  13.429  29.623 -0.0070 -0.0203 -0.1549
  610BOLB   C4B14628  25.347  13.258  29.612 -0.0333  0.1002  0.3414
  610BOLB   NC214629  26.877  14.780  28.266  0.0569  0.1768 -0.1139
  610BOLB   PO214630  26.989  14.655  27.871  0.0518  0.0137  0.0335
  610BOLB   GL314631  26.527  14.608  27.926  0.0618  0.0219 -0.1043
  610BOLB   GL414632  26.558  14.339  28.308  0.2034  0.0205 -0.1408
  610BOLB   C1C14633  26.116  14.602  28.063 -0.2946  0.1631 -0.1471
  610BOLB   C2C14634  25.705  14.463  28.074  0.1051  0.0677 -0.1092
  610BOLB   C3C14635  25.311  14.584  28.092 -0.1802 -0.0367  0.2406
  610BOLB   C4C14636  24.924  14.463  28.269  0.1345  0.2934  0.2948
  610BOLB   C1D14637  26.576  14.554  28.811 -0.0775  0.2632  0.0029
  610BOLB   C2D14638  26.602  14.393  29.217 -0.0347  0.4136 -0.0080
  610BOLB   C3D14639  26.269  14.199  29.573 -0.0680 -0.0688  0.1017
  610BOLB   C4D14640  25.861  13.996  29.476  0.1143  0.1761 -0.0097
  611BOLB   NC114641  10.037  10.422  24.523 -0.0894  0.0784  0.0092
  611BOLB   PO114642  10.066  10.707  24.211  0.0581  0.0616 -0.0192
  611BOLB   GL114643   9.744  10.655  23.955 -0.1428 -0.1220 -0.1669
  611BOLB   GL214644   9.662  10.992  23.923 -0.3414  0.1011 -0.1205
  611BOLB   C1A14645   9.682  10.859  23.481  0.2189 -0.0340 -0.0354
  611BOLB   C2A14646   9.420  10.851  23.185 -0.0446 -0.2178 -0.1996
  611BOLB   C3A14647   9.320  11.083  22.768 -0.4370 -0.2598 -0.4579
  611BOLB   C4A14648   9.015  11.212  22.461 -0.1496 -0.1615 -0.2995
  611BOLB   C1B14649   9.318  10.893  23.800  0.2246 -0.0130 -0.1077
  611BOLB   C2B14650   9.030  10.857  23.514 -0.2231  0.1661 -0.0095
  611BOLB   C3B14651   8.863  10.839  23.079 -0.0255  0.0522 -0.1904
  611BOLB   C4B14652   8.861  10.834  22.737 -0.0655  0.0687  0.3616
  611BOLB   NC214653   7.363  10.371  20.797  0.1876  0.1363  0.1078
  611BOLB   PO214654   7.113  10.539  21.091 -0.2701 -0.1301  0.0900
  611BOLB   GL314655   7.439  10.721  21.143 -0.0807  0.3134 -0.1910
  611BOLB   GL414656   7.628  10.928  20.860  0.2971  0.0297  0.0849
  611BOLB   C1C14657   7.680  11.010  21.375 -0.2439 -0.1904  0.1789
  611BOLB   C2C14658   8.094  11.027  21.544  0.1913  0.2744 -0.1937
  611BOLB   C3C14659   8.413  10.829  21.889  0.0501 -0.0049 -0.2065
  611BOLB   C4C14660   8.774  11.054  22.186 -0.0355 -0.1492 -0.0517
  611BOLB   C1D14661   8.018  11.172  21.013 -0.1195 -0.0102 -0.0104
  611BOLB   C2D14662   8.235  11.384  21.218  0.2355  0.1755 -0.2222
  611BOLB   C3D14663   8.254  11.777  21.177  0.1727 -0.0517  0.4415
  611BOLB   C4D14664   8.191  12.217  20.988  0.1857  0.0295  0.0279
  612BOLB   NC114665  15.109   8.587  38.753 -0.4695  0.2077  0.1149
  612BOLB   PO114666  15.035   8.686  39.110 -0.1786 -0.1631  0.2030
  612BOLB   GL114667  15.327   8.577  39.486 -0.1815  0.0019  0.0813
  612BOLB   GL214668  15.603   8.783  39.709 -0.0430  0.1068 -0.0754
  612BOLB   C1A14669  15.393   8.363  39.814  0.3689 -0.1018  0.1389
  612BOLB   C2A14670  15.632   8.442  40.133 -0.0059  0.1097 -0.3749
  612BOLB   C3A14671  15.701   8.610  40.622  0.0143 -0.1866 -0.0408
  612BOLB   C4A14672  15.836   8.751  41.057  0.1876 -0.2208 -0.1180
  612BOLB   C1B14673  15.436   8.894  40.113  0.0886  0.1189  0.0098
  612BOLB   C2B14674  15.399   9.024  40.494 -0.3523  0.0101 -0.2558
  612BOLB   C3B14675  15.428   8.961  40.957  0.2663 -0.2881  0.1352
  612BOLB   C4B14676  15.371   8.808  41.334  0.2279 -0.0122  0.3140
  612BOLB   NC214677  15.523   7.377  43.118 -0.4086 -0.0478 -0.1540
  612BOLB   PO214678  15.287   7.737  43.237 -0.0634 -0.2361 -0.2070
  612BOLB   GL314679  15.392   7.845  42.875 -0.2810  0.2270  0.0008
  612BOLB   GL414680  15.276   7.482  42.681 -0.3101  0.1101 -0.1023
  612BOLB   C1C14681  15.551   7.884  42.412 -0.2789  0.0958 -0.1531
  612BOLB   C2C14682  15.840   8.055  42.142 -0.2283  0.0068 -0.2012
  612BOLB   C3C14683  15.645   8.224  41.776 -0.0550  0.1584  0.1680
  612BOLB   C4C14684  15.785   8.548  41.471  0.0555  0.1656  0.0001
  612BOLB   C1D14685  15.509   7.395  42.268  0.1886  0.2778  0.1495
  612BOLB   C2D14686  15.348   7.095  41.940  0.0686 -0.0920  0.1136
  612BOLB   C3D14687  15.211   7.243  41.540 -0.1842  0.2865 -0.3866
  612BOLB   C4D14688  15.254   7.041  41.188  0.0172  0.0394 -0.0375
  613BOLB   NC114689  16.379  19.418  42.110 -0.1539  0.0106  0.0106
  613BOLB   PO114690  16.638  18.992  42.000  0.1865 -0.2222 -0.0010
  613BOLB   GL114691  16.596  18.702  41.646 -0.0797 -0.2003  0.2308
  613BOLB   GL214692  16.845  18.683  41.697  0.1568 -0.0586 -0.2463
  613BOLB   C1A14693  16.304  18.415  41.570 -0.0370 -0.4055  0.3509
  613BOLB   C2A14694  16.310  17.967  41.588  0.0660 -0.0238  0.5579
  613BOLB   C3A14695  16.403  17.490  41.440 -0.2428  0.0880  0.1770
  613BOLB   C4A14696  16.426  17.289  41.088 -0.2738 -0.1711 -0.0271
  613BOLB   C1B14697  17.214  18.463  41.426 -0.0887 -0.2518 -0.1763
  613BOLB   C2B14698  17.269  18.033  41.293 -0.1742  0.0039  0.1221
  613BOLB   C3B14699  17.394  17.688  41.271 -0.0297  0.1000 -0.1697
  613BOLB   C4B14700  17.810  17.455  41.152  0.0502  0.0125  0.3439
  613BOLB   NC214701  17.456  17.210  43.266 -0.1332 -0.3106  0.3979
  613BOLB   PO214702  17.650  17.321  43.008  0.1268 -0.3018  0.0218
  613BOLB   GL314703  17.660  17.165  42.541 -0.1434  0.0092 -0.0504
  613BOLB   GL414704  17.501  16.948  42.687  0.1176 -0.1539 -0.2605
  613BOLB   C1C14705  17.529  17.041  42.159  0.2303 -0.2680  0.1971
  613BOLB   C2C14706  17.120  16.980  41.884 -0.3431  0.0301 -0.0073
  613BOLB   C3C14707  16.945  16.912  41.464  0.1702  0.0407 -0.0782
  613BOLB   C4C14708  16.716  17.073  41.120  0.1376 -0.0597  0.2162
  613BOLB   C1D14709  17.233  16.732  42.480 -0.2855 -0.0589  0.0495
  613BOLB   C2D14710  17.318  16.623  42.167  0.0850 -0.2004  0.2027
  613BOLB   C3D14711  17.163  16.527  41.749  0.2995 -0.0943 -0.0620
  613BOLB   C4D14712  17.115  16.464  41.313  0.0933 -0.1178  0.0328
  614BOLB   NC114713  20.336   4.856  30.467  0.2539 -0.3169 -0.2007
  614BOLB   PO114714  20.299   4.760  30.011  0.0165 -0.3581 -0.4626
  614BOLB   GL114715  20.579   4.546  29.787  0.1257 -0.0625 -0.0870
  614BOLB   GL214716  20.639   4.349  29.444 -0.1991  0.0790  0.0774
  614BOLB   C1A14717  20.862   4.352  30.009 -0.0217 -0.1218  0.0931
  614BOLB   C2A14718  21.264   4.256  30.134  0.0683 -0.1787  0.0991
  614BOLB   C3A14719  21.645   3.927  30.289  0.0391 -0.2242 -0.0518
  614BOLB   C4A14720  21.685   3.426  30.361 -0.0771 -0.1943 -0.1468
  614BOLB   C1B14721  20.806   3.972  29.213 -0.0287  0.0173 -0.2721
  614BOLB   C2B14722  21.038   3.643  29.033 -0.2392  0.0125  0.0188
  614BOLB   C3B14723  21.469   3.513  28.894 -0.0488  0.2320 -0.6474
  614BOLB   C4B14724  21.788   3.441  28.844  0.0182  0.0231 -0.2946
  614BOLB   NC214725  23.476   1.688  30.833  0.1574  0.1482  0.2020
  614BOLB   PO214726  23.085   1.764  30.674 -0.0620  0.2006  0.3761
  614BOLB   GL314727  22.983   2.205  30.534  0.1037 -0.2995 -0.2210
  614BOLB   GL414728  23.192   2.462  30.241  0.0479 -0.0033  0.0257
  614BOLB   C1C14729  22.710   2.540  30.765 -0.0947 -0.0375 -0.1253
  614BOLB   C2C14730  22.490   2.905  31.019 -0.2047  0.1643 -0.0568
  614BOLB   C3C14731  22.096   3.108  30.901 -0.4012  0.2607  0.2242
  614BOLB   C4C14732  21.762   3.177  30.690 -0.0291 -0.1109  0.0390
  614BOLB   C1D14733  22.901   2.755  30.281 -0.2873  0.0277 -0.0081
  614BOLB   C2D14734  22.570   3.019  30.461 -0.5732 -0.1329 -0.2880
  614BOLB   C3D14735  22.158   3.277  30.389  0.3474  0.1036 -0.1811
  614BOLB   C4D14736  22.050   3.538  30.087  0.3629  0.1095  0.5623
  615BOLB   NC114737  11.709  17.730  36.600 -0.0923  0.2315  0.0181
  615BOLB   PO114738  11.467  17.502  36.734  0.0359  0.4998  0.0596
  615BOLB   GL114739  11.172  17.520  37.054  0.0150  0.0713  0.2522
  615BOLB   GL214740  10.981  17.321  37.125  0.1116  0.3808  0.1696
  615BOLB   C1A14741  10.801  17.726  37.297 -0.0024 -0.0211 -0.0030
  615BOLB   C2A14742  10.579  17.662  37.733 -0.0336 -0.1511  0.2573
  615BOLB   C3A14743  10.610  17.656  38.205  0.1279  0.1515  0.0244
  615BOLB   C4A14744  10.322  17.546  38.458  0.2384  0.2877 -0.0407
  615BOLB   C1B14745  10.909  17.272  37.537  0.2321 -0.1305  0.0691
  615BOLB   C2B14746  11.019  17.322  37.892 -0.0155  0.1771 -0.1258
  615BOLB   C3B14747  10.819  17.205  38.176  0.1759 -0.0804 -0.0293
  615BOLB   C4B14748  10.341  17.041  38.291  0.0718 -0.2060  0.0087
  615BOLB   NC214749   8.902  19.366  39.999  0.0609 -0.2156 -0.4160
  615BOLB   PO214750   9.197  18.964  40.004  0.3084 -0.0236  0.0923
  615BOLB   GL314751   9.476  18.658  39.890 -0.1270  0.0812 -0.3436
  615BOLB   GL414752   9.609  18.889  39.664 -0.1792  0.3212  0.1721
  615BOLB   C1C14753   9.549  18.325  39.573 -0.0207 -0.0254  0.0368
  615BOLB   C2C14754   9.877  18.005  39.506 -0.1816 -0.0316  0.0573
  615BOLB   C3C14755  10.006  17.739  39.261 -0.2395 -0.4595  0.3081
  615BOLB   C4C14756  10.130  17.454  38.906 -0.4120  0.1649  0.1528
  615BOLB   C1D14757   9.965  18.572  39.475  0.0827  0.2768  0.1891
  615BOLB   C2D14758  10.132  18.272  39.164  0.0282  0.0403 -0.0461
  615BOLB   C3D14759  10.053  18.498  38.857 -0.2258  0.0530  0.0809
  615BOLB   C4D14760   9.947  18.324  38.432  0.2747 -0.1221  0.0038
  616BOLB   NC114761  17.405   7.293  21.856  0.1797  0.0954  0.3724
  616BOLB   PO114762  17.173   7.445  21.454 -0.1024 -0.0907  0.0540
  616BOLB   GL114763  17.088   7.107  21.168  0.3044  0.1957  0.1314
  616BOLB   GL214764  17.124   6.764  21.290 -0.0773 -0.0943 -0.3034
  616BOLB   C1A14765  16.976   6.984  20.783 -0.2052  0.0573 -0.1083
  616BOLB   C2A14766  16.966   6.651  20.476  0.3652 -0.2756 -0.1917
  616BOLB   C3A14767  16.731   6.544  20.157  0.0741  0.0624 -0.0498
  616BOLB   C4A14768  16.602   6.243  19.786 -0.3181  0.1129  0.1342
  616BOLB   C1B14769  17.157   6.443  21.039  0.0310 -0.3006 -0.2497
  616BOLB   C2B14770  16.969   6.122  20.729 -0.0758  0.3171 -0.2121
  616BOLB   C3B14771  17.127   5.864  20.439  0.0341 -0.1351 -0.0605
  616BOLB   C4B14772  17.248   5.493  20.447 -0.0634 -0.0821 -0.1088
  616BOLB   NC214773  16.002   3.885  18.800 -0.1783 -0.3147 -0.1139
  616BOLB   PO214774  16.453   4.140  18.647  0.1067  0.3414 -0.1716
  616BOLB   GL314775  16.636   4.373  18.887  0.1402 -0.0288 -0.1176
  616BOLB   GL414776  17.018   4.338  18.948 -0.1677 -0.2212  0.1202
  616BOLB   C1C14777  16.654   4.781  19.047  0.0853  0.0074 -0.0817
  616BOLB   C2C14778  16.844   5.223  19.082  0.0201  0.0550  0.1957
  616BOLB   C3C14779  16.920   5.591  19.185  0.4324  0.3399  0.0566
  616BOLB   C4C14780  16.675   5.913  19.435  0.0348 -0.2242  0.2458
  616BOLB   C1D14781  17.006   4.508  19.298 -0.1139 -0.1563  0.1095
  616BOLB   C2D14782  16.907   4.512  19.735  0.1316 -0.0619 -0.1524
  616BOLB   C3D14783  16.808   4.452  20.159  0.0390 -0.4263  0.2842
  616BOLB   C4D14784  16.763   4.802  20.419 -0.2892  0.0447 -0.3456
  617BOLB   NC114785  18.242   4.694  26.276  0.0617 -0.1675 -0.3236
  617BOLB   PO114786  18.251   4.496  26.600 -0.0897  0.2623 -0.0994
  617BOLB   GL114787  18.452   4.060  26.646 -0.0042 -0.1536 -0.0060
  617BOLB   GL214788  18.784   4.081  26.807 -0.0915 -0.1101  0.0544
  617BOLB   C1A14789  18.622   3.631  26.571  0.4388 -0.1126  0.0121
  617BOLB   C2A14790  18.893   3.504  26.318  0.0888  0.0641  0.2419
  617BOLB   C3A14791  19.135   3.158  26.455 -0.2068  0.3149  0.2168
  617BOLB   C4A14792  19.437   2.699  26.542 -0.1293 -0.3415  0.1607
  617BOLB   C1B14793  18.857   4.043  26.320  0.0273 -0.1403 -0.0838
  617BOLB   C2B14794  19.022   3.877  25.959  0.1710 -0.0973  0.0936
  617BOLB   C3B14795  19.114   3.389  25.788 -0.2236 -0.0093 -0.1840
  617BOLB   C4B14796  18.854   2.995  25.871 -0.0301 -0.2838  0.0747
  617BOLB   NC214797  19.174   0.833  25.162 -0.5041 -0.1623 -0.3746
  617BOLB   PO214798  18.843   0.774  25.179 -0.2439  0.1069 -0.0740
  617BOLB   GL314799  18.917   0.958  25.575  0.0490  0.4567 -0.0241
  617BOLB   GL414800  18.664   0.929  25.771 -0.2127  0.1794 -0.3215
  617BOLB   C1C14801  19.087   1.436  25.727  0.3037  0.3106  0.1929
  617BOLB   C2C14802  18.873   1.909  25.776  0.0149 -0.0755 -0.4774
  617BOLB   C3C14803  18.976   2.334  26.020  0.3361 -0.0306 -0.1085
  617BOLB   C4C14804  19.381   2.336  26.238 -0.0511  0.0487  0.0664
  617BOLB   C1D14805  18.684   1.253  26.097 -0.0742 -0.1647  0.2264
  617BOLB   C2D14806  18.611   1.613  26.172  0.0408  0.1657  0.0536
  617BOLB   C3D14807  18.562   1.985  26.259 -0.4767 -0.3684 -0.0349
  617BOLB   C4D14808  18.480   2.322  26.333 -0.1154  0.2312  0.1401
  618BOLB   NC114809  10.754   6.127  30.654 -0.0838  0.0407 -0.2747
  618BOLB   PO114810  10.685   6.144  31.019  0.0518 -0.1843 -0.3507
  618BOLB   GL114811  10.434   5.837  30.917  0.0397 -0.0153  0.0450
  618BOLB   GL214812  10.471   5.563  30.872  0.1581 -0.3040  0.0196
  618BOLB   C1A14813  10.067   5.861  31.046 -0.0366  0.1871 -0.2120
  618BOLB   C2A14814   9.622   5.763  31.076  0.2210  0.1641  0.0021
  618BOLB   C3A14815   9.346   5.527  30.740 -0.1287 -0.2324  0.1587
  618BOLB   C4A14816   8.912   5.305  30.688  0.1217 -0.1871 -0.0926
  618BOLB   C1B14817  10.014   5.425  30.805 -0.1798  0.0635 -0.1920
  618BOLB   C2B14818   9.723   5.188  31.069 -0.0602  0.4631 -0.3421
  618BOLB   C3B14819   9.370   4.952  30.934  0.3409  0.0192  0.2076
  618BOLB   C4B14820   9.113   4.774  30.641 -0.1302 -0.2768  0.0099
  618BOLB   NC214821   7.857   3.361  30.374 -0.0760  0.1627 -0.2519
  618BOLB   PO214822   8.000   3.542  29.944 -0.0797  0.0039  0.1531
  618BOLB   GL314823   8.351   3.840  29.849  0.0223  0.2353  0.3010
  618BOLB   GL414824   8.450   3.795  29.609  0.0948  0.1778  0.1948
  618BOLB   C1C14825   8.580   4.170  29.873  0.1891 -0.3316  0.0615
  618BOLB   C2C14826   8.627   4.381  30.290 -0.0929  0.2667 -0.1149
  618BOLB   C3C14827   8.634   4.619  30.585  0.2440 -0.0509 -0.3113
  618BOLB   C4C14828   8.639   5.055  30.586  0.2974  0.1017 -0.2119
  618BOLB   C1D14829   8.884   3.836  29.656  0.0952  0.0067  0.3070
  618BOLB   C2D14830   9.330   3.796  29.648 -0.1181 -0.2600  0.3004
  618BOLB   C3D14831   9.734   3.791  29.727  0.5012  0.1592 -0.0576
  618BOLB   C4D14832  10.014   3.511  29.683 -0.3085 -0.5748  0.0156
  619BOLB   NC114833  12.793  18.537  23.455 -0.3855 -0.0299 -0.0336
  619BOLB   PO114834  12.987  18.565  23.035 -0.0426 -0.1136  0.1198
  619BOLB   GL114835  12.911  19.000  22.692 -0.2219 -0.3154  0.1101
  619BOLB   GL214836  12.946  19.315  22.834  0.2102 -0.1731 -0.1782
  619BOLB   C1A14837  12.699  19.024  22.277 -0.2538 -0.0176  0.1145
  619BOLB   C2A14838  12.561  19.229  21.931 -0.1312 -0.0765 -0.0898
  619BOLB   C3A14839  12.568  19.344  21.496  0.1512  0.2784 -0.0008
  619BOLB   C4A14840  12.670  19.646  21.171  0.0511  0.0167 -0.0560
  619BOLB   C1B14841  12.615  19.497  22.516  0.2562  0.0583  0.0772
  619BOLB   C2B14842  12.343  19.886  22.420  0.0216  0.4608  0.0488
  619BOLB   C3B14843  12.258  20.120  22.094  0.1582  0.0058 -0.0448
  619BOLB   C4B14844  12.373  20.320  21.676 -0.0721  0.1458 -0.0411
  619BOLB   NC214845  11.625  20.910  19.593  0.1546 -0.0839  0.0685
  619BOLB   PO214846  11.319  21.078  19.831 -0.2227 -0.2041  0.1836
  619BOLB   GL314847  11.357  20.781  20.074  0.1226  0.3265  0.4362
  619BOLB   GL414848  11.463  20.458  19.860  0.1326 -0.3144 -0.0904
  619BOLB   C1C14849  11.692  20.503  20.357 -0.3602  0.0424  0.1321
  619BOLB   C2C14850  11.909  20.257  20.555  0.1338 -0.0114  0.0675
  619BOLB   C3C14851  12.105  20.055  20.769 -0.1667  0.1194  0.2047
  619BOLB   C4C14852  12.525  19.986  20.884 -0.1570  0.1089  0.0508
  619BOLB   C1D14853  11.536  20.099  19.932 -0.1470  0.3482  0.0112
  619BOLB   C2D14854  11.618  19.702  19.863  0.3234  0.1250 -0.3279
  619BOLB   C3D14855  11.901  19.473  19.981  0.1175  0.0837  0.0516
  619BOLB   C4D14856  12.284  19.495  20.084 -0.0073 -0.0430  0.1010
  620BOLB   NC114857   5.214   8.042  24.422  0.0852  0.1808 -0.0565
  620BOLB   PO114858   5.465   7.905  24.782 -0.3417 -0.2241 -0.0728
  620BOLB   GL114859   5.865   8.019  24.988  0.1077  0.1540  0.2321
  620BOLB   GL214860   5.834   8.381  25.057 -0.1304  0.1456  0.0488
  620BOLB   C1A14861   6.252   7.906  25.201 -0.0434 -0.0409 -0.1349
  620BOLB   C2A14862   6.574   7.982  25.437 -0.1051  0.1077 -0.0468
  620BOLB   C3A14863   6.778   8.321  25.723 -0.2064  0.0805  0.0300
  620BOLB   C4A14864   7.106   8.309  25.977 -0.1430  0.1880 -0.1760
  620BOLB   C1B14865   6.089   8.685  25.139  0.2240  0.1349 -0.0750
  620BOLB   C2B14866   6.477   8.824  25.113  0.1018  0.1271 -0.0125
  620BOLB   C3B14867   6.753   9.081  25.278  0.2340  0.4612  0.0836
  620BOLB   C4B14868   7.147   9.385  25.329 -0.2013 -0.1201 -0.1229
  620BOLB   NC214869   8.990   8.671  27.439 -0.2532  0.0694  0.0512
  620BOLB   PO214870   8.599   8.465  27.622  0.2787  0.3003 -0.1623
  620BOLB   GL314871   8.214   8.625  27.387 -0.3032 -0.0412 -0.2569
  620BOLB   GL414872   7.915   8.714  27.579 -0.1588 -0.0226  0.1240
  620BOLB   C1C14873   7.994   8.491  27.086  0.2187  0.0076 -0.0510
  620BOLB   C2C14874   7.927   8.505  26.615  0.4392 -0.2840 -0.2515
  620BOLB   C3C14875   7.791   8.738  26.287  0.0868 -0.1033 -0.2051
  620BOLB   C4C14876   7.376   8.555  26.046  0.0535 -0.2309  0.2848
  620BOLB   C1D14877   7.608   8.439  27.444  0.2871 -0.0092 -0.2941
  620BOLB   C2D14878   7.467   7.938  27.395  0.0133 -0.1853  0.3097
  620BOLB   C3D14879   7.302   7.610  27.172 -0.1294 -0.1259 -0.2109
  620BOLB   C4D14880   7.263   7.195  26.966  0.2958 -0.0272  0.0888
  621BOLB   NC114881  22.235   8.720  16.563 -0.0534 -0.1140  0.1515
  621BOLB   PO114882  21.846   8.469  16.591 -0.1017 -0.2040 -0.0408
  621BOLB   GL114883  21.678   8.665  16.966  0.0066  0.1528  0.0188
  621BOLB   GL214884  21.338   8.670  17.076 -0.3371 -0.0480 -0.0947
  621BOLB   C1A14885  21.705   8.503  17.368 -0.1851  0.2339 -0.2168
  621BOLB   C2A14886  21.470   8.409  17.678 -0.0010 -0.0221 -0.2747
  621BOLB   C3A14887  21.112   8.619  17.913 -0.2720  0.0954 -0.3624
  621BOLB   C4A14888  20.759   8.801  17.814 -0.3873  0.1374 -0.0330
  621BOLB   C1B14889  21.290   8.805  17.489  0.2473 -0.1088 -0.1768
  621BOLB   C2B14890  21.281   9.112  17.845 -0.2407 -0.0618 -0.2391
  621BOLB   C3B14891  21.256   9.379  18.237  0.4276  0.1535  0.4901
  621BOLB   C4B14892  21.459   9.557  18.538 -0.0907  0.1327 -0.2087
  621BOLB   NC214893  20.075   8.233  15.667 -0.1126 -0.1026  0.0048
  621BOLB   PO214894  20.047   7.914  16.005 -0.1130 -0.3291  0.1281
  621BOLB   GL314895  19.932   8.184  16.462 -0.3357  0.0996 -0.0004
  621BOLB   GL414896  19.861   8.022  16.744 -0.1210  0.0803 -0.0395
  621BOLB   C1C14897  19.919   8.536  16.644  0.1230  0.0598  0.3097
  621BOLB   C2C14898  20.033   8.469  17.085 -0.0748 -0.3299  0.0191
  621BOLB   C3C14899  20.081   8.672  17.471 -0.3995  0.0490 -0.1386
  621BOLB   C4C14900  20.407   8.898  17.616  0.0395 -0.0498  0.3025
  621BOLB   C1D14901  19.600   8.263  16.894  0.3420 -0.0619  0.0483
  621BOLB   C2D14902  19.572   8.699  17.014  0.3052  0.0982  0.2190
  621BOLB   C3D14903  19.804   9.038  17.169 -0.1124  0.1574 -0.1594
  621BOLB   C4D14904  20.042   9.186  17.427  0.2503  0.2349  0.3171
  622BOLB   NC114905  12.919  21.276  30.501  0.2487 -0.0438  0.2892
  622BOLB   PO114906  13.360  21.120  30.293 -0.0675  0.0862  0.1002
  622BOLB   GL114907  13.301  21.565  30.333  0.0743  0.2222 -0.1153
  622BOLB   GL214908  13.240  21.689  30.045  0.1325  0.1657  0.0637
  622BOLB   C1A14909  13.391  22.071  30.391  0.0552 -0.0484  0.0880
  622BOLB   C2A14910  13.234  22.448  30.512  0.2657 -0.1305 -0.0772
  622BOLB   C3A14911  13.019  22.693  30.280  0.3179  0.0679 -0.2595
  622BOLB   C4A14912  12.952  23.071  30.441 -0.0699 -0.0232  0.3618
  622BOLB   C1B14913  13.123  22.067  29.939  0.2101  0.1515  0.0892
  622BOLB   C2B14914  13.300  22.442  29.947  0.2229 -0.0435  0.0416
  622BOLB   C3B14915  13.583  22.658  30.193 -0.2401 -0.0324 -0.1682
  622BOLB   C4B14916  13.441  22.984  30.381 -0.3217 -0.2477 -0.3341
  622BOLB   NC214917  12.049  25.385  30.171 -0.5079  0.1216  0.3807
  622BOLB   PO214918  12.457  25.305  30.336 -0.0446 -0.0280 -0.1608
  622BOLB   GL314919  12.495  24.964  30.479  0.1244  0.1200  0.1087
  622BOLB   GL414920  12.316  24.728  30.687 -0.0581  0.1740  0.1435
  622BOLB   C1C14921  12.757  24.667  30.376  0.1225  0.2839 -0.0270
  622BOLB   C2C14922  12.896  24.277  30.147  0.0545  0.1574  0.2329
  622BOLB   C3C14923  13.190  23.935  30.309 -0.1164 -0.1193  0.0657
  622BOLB   C4C14924  13.151  23.450  30.264 -0.1668  0.0824  0.0247
  622BOLB   C1D14925  12.394  24.311  30.432 -0.0452 -0.1876 -0.0142
  622BOLB   C2D14926  12.526  23.908  30.325 -0.0035 -0.2359  0.0905
  622BOLB   C3D14927  12.599  23.478  30.251 -0.0502 -0.2064 -0.0676
  622BOLB   C4D14928  12.601  23.129  30.059  0.1190 -0.2235 -0.1693
  623BOLB   NC114929   7.978  16.376  29.366  0.1709 -0.4427  0.0348
  623BOLB   PO114930   8.085  16.781  29.559  0.1570 -0.1215 -0.2605
  623BOLB   GL114931   7.732  16.931  29.368  0.1909  0.1160 -0.1607
  623BOLB   GL214932   7.668  16.754  29.097  0.2708 -0.2449  0.1978
  623BOLB   C1A14933   7.581  17.238  29.284 -0.0350 -0.1795 -0.2481
  623BOLB   C2A14934   7.209  17.314  28.919 -0.1392  0.1826 -0.2404
  623BOLB   C3A14935   6.814  17.340  28.802  0.2643 -0.2235  0.0948
  623BOLB   C4A14936   6.441  17.169  28.442  0.0424 -0.0401  0.0236
  623BOLB   C1B14937   7.240  16.777  28.919  0.0020  0.0882 -0.0613
  623BOLB   C2B14938   6.872  16.872  28.692  0.2940 -0.2611  0.1296
  623BOLB   C3B14939   6.366  16.886  28.837  0.2718 -0.2883  0.0859
  623BOLB   C4B14940   6.196  16.747  29.309  0.0436 -0.0276  0.2818
  623BOLB   NC214941   4.425  18.645  28.789 -0.0978 -0.1284 -0.0832
  623BOLB   PO214942   4.386  18.673  28.319  0.0433  0.0269  0.1752
  623BOLB   GL314943   4.693  18.416  28.416 -0.1359 -0.2896  0.0217
  623BOLB   GL414944   4.510  18.201  28.463 -0.1806 -0.0190 -0.1871
  623BOLB   C1C14945   4.987  18.049  28.283 -0.0474 -0.2381 -0.1873
  623BOLB   C2C14946   5.423  17.840  28.372  0.0422  0.0765  0.3428
  623BOLB   C3C14947   5.589  17.515  28.416 -0.0457  0.3586 -0.1070
  623BOLB   C4C14948   5.973  17.213  28.391  0.2301  0.0988 -0.0293
  623BOLB   C1D14949   4.752  17.827  28.691 -0.1906  0.0287 -0.2787
  623BOLB   C2D14950   5.025  17.589  28.480  0.4051  0.0526  0.2057
  623BOLB   C3D14951   5.174  17.253  28.259 -0.3488 -0.0710 -0.2860
  623BOLB   C4D14952   5.184  16.921  28.079  0.1297  0.2541  0.2404
  624BOLB   NC114953  22.752  13.983  34.606 -0.0458  0.1639  0.3047
  624BOLB   PO114954  23.026  14.086  34.388  0.2813  0.0809 -0.0624
  624BOLB   GL114955  23.326  14.110  34.679 -0.0533 -0.1061 -0.0565
  624BOLB   GL214956  23.491  14.524  34.759 -0.3832  0.0574 -0.0603
  624BOLB   C1A14957  23.722  14.069  35.044  0.3345  0.3485  0.2744
  624BOLB   C2A14958  24.048  14.301  35.170  0.5076 -0.1374 -0.0992
  624BOLB   C3A14959  24.387  14.623  35.325  0.1709  0.2947 -0.0387
  624BOLB   C4A14960  24.593  14.324  35.378  0.0039  0.2812 -0.4131
  624BOLB   C1B14961  23.995  14.555  34.748 -0.1154  0.0082 -0.3139
  624BOLB   C2B14962  24.263  14.774  34.882  0.0443 -0.2865  0.1779
  624BOLB   C3B14963  24.715  14.767  34.982  0.0488  0.2476  0.2413
  624BOLB   C4B14964  25.183  14.802  34.997  0.4911 -0.1034  0.1424
  624BOLB   NC214965  26.692  14.489  35.688 -0.0756 -0.2043 -0.0893
  624BOLB   PO214966  26.530  14.779  35.997 -0.2051  0.1079 -0.1855
  624BOLB   GL314967  26.140  14.620  35.753 -0.2454  0.0389 -0.3289
  624BOLB   GL414968  25.915  14.811  35.984 -0.2281  0.0761  0.4881
  624BOLB   C1C14969  25.855  14.494  35.401  0.0262 -0.1226  0.0622
  624BOLB   C2C14970  25.562  14.442  35.053 -0.1093  0.1017 -0.4095
  624BOLB   C3C14971  25.252  14.194  35.041 -0.0158 -0.0697  0.0989
  624BOLB   C4C14972  24.952  14.369  35.210  0.1429  0.2921  0.1230
  624BOLB   C1D14973  25.661  14.440  36.040  0.4591  0.1593 -0.3586
  624BOLB   C2D14974  25.595  14.133  36.337  0.0458  0.3869  0.0356
  624BOLB   C3D14975  25.239  13.913  36.528 -0.3209  0.0555  0.1452
  624BOLB   C4D14976  24.899  13.634  36.582  0.0294 -0.0474 -0.0501
  625BOLB   NC114977   8.091  16.579  28.370 -0.0768 -0.0250 -0.3790
  625BOLB   PO114978   7.986  16.443  28.860 -0.0533  0.0070  0.1284
  625BOLB   GL114979   7.542  16.532  28.484 -0.1450  0.1162 -0.0114
  625BOLB   GL214980   7.760  16.332  28.112  0.3199  0.0575  0.2032
  625BOLB   C1A14981   7.110  16.703  28.299 -0.2880  0.0770  0.2096
  625BOLB   C2A14982   6.637  16.768  28.181  0.1474  0.0718 -0.0360
  625BOLB   C3A14983   6.204  16.940  28.082  0.3811  0.0587  0.1804
  625BOLB   C4A14984   6.035  17.380  27.926 -0.1370  0.0894 -0.1014
  625BOLB   C1B14985   7.371  16.464  27.973 -0.1157 -0.4287  0.0956
  625BOLB   C2B14986   6.976  16.600  27.832  0.2224 -0.0737  0.2337
  625BOLB   C3B14987   6.883  16.669  27.430  0.4917 -0.0021  0.1419
  625BOLB   C4B14988   6.673  16.327  27.199  0.1720  0.0953  0.2547
  625BOLB   NC214989   4.382  17.335  26.270 -0.1955  0.0116  0.1259
  625BOLB   PO214990   4.180  17.142  26.640 -0.1869 -0.1993  0.0239
  625BOLB   GL314991   4.648  17.065  26.514 -0.0438  0.0395  0.2608
  625BOLB   GL414992   4.720  16.871  26.712  0.2085 -0.3178 -0.0965
  625BOLB   C1C14993   5.099  17.134  26.741 -0.1842  0.1713 -0.0632
  625BOLB   C2C14994   5.314  17.444  27.001 -0.1102  0.0849 -0.3432
  625BOLB   C3C14995   5.695  17.519  27.220  0.0751  0.0271  0.1557
  625BOLB   C4C14996   5.947  17.520  27.574  0.1507  0.1891  0.3689
  625BOLB   C1D14997   4.929  16.468  26.777  0.1357  0.2968  0.2658
  625BOLB   C2D14998   5.280  16.217  26.677  0.2744  0.1066  0.0603
  625BOLB   C3D14999   5.644  16.206  26.542  0.0627  0.0571  0.2332
  625BOLB   C4D15000   6.069  16.023  26.589  0.0922 -0.0200 -0.0719
  626BOLB   NC115001  19.081  19.231  33.416  0.0532 -0.2168 -0.2852
  626BOLB   PO115002  18.847  19.461  33.736 -0.2788  0.0577  0.1259
  626BOLB   GL115003  19.013  19.599  34.128  0.0866  0.1187  0.4078
  626BOLB   GL215004  19.326  19.425  34.268  0.1010 -0.1549  0.3023
  626BOLB   C1A15005  18.974  20.032  34.341 -0.0633  0.0761  0.0136
  626BOLB   C2A15006  18.853  20.464  34.421  0.0890  0.0683  0.1457
  626BOLB   C3A15007  19.011  20.741  34.657 -0.3658 -0.0573  0.0349
  626BOLB   C4A15008  19.037  21.006  35.022  0.1726  0.1477 -0.1463
  626BOLB   C1B15009  19.791  19.603  34.213 -0.0554  0.1422 -0.0694
  626BOLB   C2B15010  19.979  19.982  34.222  0.2143 -0.4082 -0.1093
  626BOLB   C3B15011  19.924  20.339  34.418 -0.2459 -0.0489 -0.1493
  626BOLB   C4B15012  19.768  20.730  34.440  0.0393 -0.1349 -0.0560
  626BOLB   NC215013  19.834  23.474  36.523  0.3421  0.1410 -0.1589
  626BOLB   PO215014  19.758  23.399  35.988  0.0526 -0.0114 -0.0079
  626BOLB   GL315015  19.688  23.068  35.841  0.0150  0.0678 -0.0398
  626BOLB   GL415016  19.354  23.082  35.822  0.2530 -0.1809 -0.2354
  626BOLB   C1C15017  19.610  22.646  35.828 -0.0626 -0.1426 -0.0900
  626BOLB   C2C15018  19.531  22.296  35.473 -0.1540 -0.0643  0.0052
  626BOLB   C3C15019  19.362  21.888  35.334  0.4005 -0.0808  0.0165
  626BOLB   C4C15020  19.311  21.329  35.128 -0.0357 -0.2301 -0.0263
  626BOLB   C1D15021  18.932  22.920  35.774  0.2637 -0.0662  0.0485
  626BOLB   C2D15022  18.622  22.788  35.503 -0.2218  0.0093 -0.0674
  626BOLB   C3D15023  18.606  22.456  35.166  0.2397 -0.0267  0.1890
  626BOLB   C4D15024  18.695  22.230  34.841 -0.3424 -0.3373 -0.1016
  627BOLB   NC115025  16.359  19.759  35.123 -0.0830  0.2270  0.3801
  627BOLB   PO115026  16.508  20.214  34.939 -0.2415 -0.1538  0.0817
  627BOLB   GL115027  16.842  20.459  35.157 -0.1776  0.3705 -0.0519
  627BOLB   GL215028  16.853  20.708  35.241 -0.1537 -0.0874 -0.0604
  627BOLB   C1A15029  17.182  20.501  35.526 -0.1226 -0.0220 -0.1682
  627BOLB   C2A15030  17.526  20.819  35.707  0.0141  0.3821  0.4099
  627BOLB   C3A15031  17.895  21.217  35.646  0.0454  0.1443  0.3008
  627BOLB   C4A15032  18.307  21.428  35.538 -0.1033  0.3122  0.1557
  627BOLB   C1B15033  16.969  21.130  35.218  0.2665  0.2122 -0.1299
  627BOLB   C2B15034  17.228  21.292  35.549 -0.1924  0.3896 -0.2564
  627BOLB   C3B15035  17.353  21.390  35.951 -0.1406 -0.1689 -0.4060
  627BOLB   C4B15036  17.357  21.633  36.378 -0.2407  0.2603 -0.0206
  627BOLB   NC215037  19.657  23.316  35.407  0.3048 -0.0181  0.0805
  627BOLB   PO215038  19.195  23.337  35.310  0.0915  0.0592  0.2143
  627BOLB   GL315039  18.976  22.995  35.275 -0.0848  0.1471 -0.0225
  627BOLB   GL415040  18.915  22.882  34.995  0.4011 -0.3147  0.1271
  627BOLB   C1C15041  19.070  22.576  35.474  0.3710  0.0012 -0.2219
  627BOLB   C2C15042  19.009  22.242  35.282 -0.0965 -0.0057 -0.2612
  627BOLB   C3C15043  18.747  21.942  35.247  0.3885  0.3800 -0.1172
  627BOLB   C4C15044  18.503  21.794  35.534 -0.1100 -0.0403  0.4539
  627BOLB   C1D15045  18.653  22.821  34.700  0.4614 -0.0688  0.0977
  627BOLB   C2D15046  18.244  22.587  34.745 -0.2294 -0.0087  0.1713
  627BOLB   C3D15047  18.228  22.103  34.841  0.0957 -0.2824 -0.2356
  627BOLB   C4D15048  17.844  21.708  34.875 -0.2272  0.2605 -0.2635
  628BOLB   NC115049  11.332   7.278  35.147  0.0458 -0.2151  0.1553
  628BOLB   PO115050  11.027   7.066  35.338  0.1378  0.0848  0.1190
  628BOLB   GL115051  11.026   6.661  35.568  0.1051 -0.1756  0.1482
  628BOLB   GL215052  11.298   6.498  35.572 -0.1083  0.0027  0.1323
  628BOLB   C1A15053  10.748   6.357  35.807 -0.0021  0.1709  0.0497
  628BOLB   C2A15054  10.737   5.892  35.897 -0.0236 -0.2918 -0.1371
  628BOLB   C3A15055  10.540   5.608  36.010 -0.0459  0.2808 -0.2347
  628BOLB   C4A15056  10.224   5.506  35.660  0.1212  0.2030 -0.2219
  628BOLB   C1B15057  11.269   6.083  35.849  0.2548 -0.1770 -0.2054
  628BOLB   C2B15058  11.495   5.986  36.230  0.0526  0.2055  0.4134
  628BOLB   C3B15059  11.502   5.697  36.562 -0.1641  0.1429 -0.1298
  628BOLB   C4B15060  11.543   5.309  36.763 -0.0946  0.2722  0.0472
  628BOLB   NC215061   9.665   3.335  35.387 -0.3027  0.2937  0.2300
  628BOLB   PO215062   9.479   3.774  35.505 -0.0148 -0.1574  0.0752
  628BOLB   GL315063   9.375   3.980  35.200 -0.2971 -0.1148  0.2648
  628BOLB   GL415064   9.258   4.251  35.379 -0.0850  0.2644  0.0201
  628BOLB   C1C15065   9.657   4.348  35.126 -0.2809 -0.0515  0.2730
  628BOLB   C2C15066  10.053   4.484  35.001  0.1259  0.3391  0.0000
  628BOLB   C3C15067  10.229   4.983  35.115  0.0943  0.3147  0.0062
  628BOLB   C4C15068  10.203   5.356  35.256 -0.4779 -0.1132  0.2687
  628BOLB   C1D15069   9.287   4.673  35.447 -0.0502  0.0979 -0.1765
  628BOLB   C2D15070   9.511   5.007  35.618 -0.0442  0.0236  0.0336
  628BOLB   C3D15071   9.673   5.352  35.452 -0.1251 -0.2684  0.3726
  628BOLB   C4D15072   9.546   5.740  35.173  0.1753  0.0147  0.0757
  629BOLB   NC115073  19.422   9.828  38.662  0.1098  0.1033  0.0443
  629BOLB   PO115074  18.995   9.742  38.807 -0.1644 -0.2116  0.1030
  629BOLB   GL115075  19.222   9.663  39.305 -0.2365 -0.0338  0.4370
  629BOLB   GL215076  19.090   9.947  39.520 -0.1147 -0.0282  0.2596
  629BOLB   C1A15077  19.372   9.476  39.713 -0.1890  0.0938  0.1154
  629BOLB   C2A15078  19.119   9.287  40.045  0.3240 -0.0632 -0.0461
  629BOLB   C3A15079  19.138   8.931  40.392 -0.0533 -0.5724 -0.1481
  629BOLB   C4A15080  19.206   8.926  40.923  0.0031  0.0597 -0.0143
  629BOLB   C1B15081  19.271   9.962  39.929 -0.0450  0.0778  0.0816
  629BOLB   C2B15082  19.303   9.855  40.267 -0.2318  0.0433 -0.1029
  629BOLB   C3B15083  19.230   9.484  40.586  0.1931  0.0242  0.3051
  629BOLB   C4B15084  19.294   9.413  40.978  0.1485 -0.1857 -0.3439
  629BOLB   NC215085  19.471   7.784  42.902  0.1096  0.2394 -0.2600
  629BOLB   PO215086  19.187   8.080  43.201  0.1152  0.0961 -0.1351
  629BOLB   GL315087  19.065   8.039  42.764  0.0663 -0.0095  0.0644
  629BOLB   GL415088  18.978   7.677  42.569 -0.1113 -0.1819  0.2000
  629BOLB   C1C15089  19.178   8.073  42.257  0.2274 -0.0101  0.2665
  629BOLB   C2C15090  19.206   8.205  41.827  0.0204  0.3392  0.3114
  629BOLB   C3C15091  19.416   8.340  41.445  0.0092 -0.1163 -0.0428
  629BOLB   C4C15092  19.529   8.655  41.219  0.0801  0.3496 -0.0823
  629BOLB   C1D15093  18.822   7.742  42.167  0.3158  0.2705  0.0064
  629BOLB   C2D15094  18.903   7.835  41.807 -0.5019 -0.0912 -0.2748
  629BOLB   C3D15095  18.508   7.637  41.492 -0.0045 -0.1029 -0.2904
  629BOLB   C4D15096  18.144   7.417  41.657 -0.0707  0.1365 -0.1319
  630BOLB   NC115097  15.719  18.681  21.866  0.0935 -0.2028  0.3230
  630BOLB   PO115098  15.364  19.041  22.056  0.2046 -0.1033 -0.1175
  630BOLB   GL115099  15.237  19.397  21.823  0.1302  0.2988  0.1874
  630BOLB   GL215100  15.489  19.566  22.027  0.0794 -0.2537  0.1298
  630BOLB   C1A15101  15.157  19.669  21.520 -0.1112  0.1407 -0.0761
  630BOLB   C2A15102  15.055  20.145  21.589  0.0904  0.0468  0.2857
  630BOLB   C3A15103  14.821  20.359  21.212 -0.0049  0.3198 -0.0529
  630BOLB   C4A15104  14.974  20.594  20.874  0.3095  0.3413  0.0503
  630BOLB   C1B15105  15.056  19.852  21.983 -0.0704  0.1536  0.1314
  630BOLB   C2B15106  14.674  19.757  21.666  0.0195 -0.0287 -0.0546
  630BOLB   C3B15107  14.731  19.858  21.199  0.1552 -0.0710 -0.0831
  630BOLB   C4B15108  15.033  20.034  20.894  0.1083  0.1153  0.1581
  630BOLB   NC215109  14.376  22.997  19.811  0.0275 -0.1989  0.0361
  630BOLB   PO215110  14.697  22.659  19.876  0.0392  0.1951 -0.2677
  630BOLB   GL315111  14.850  22.348  20.046  0.1513 -0.1317 -0.0256
  630BOLB   GL415112  14.591  22.219  20.209  0.0057 -0.1735 -0.0167
  630BOLB   C1C15113  15.106  22.250  20.518  0.1725 -0.1627 -0.0167
  630BOLB   C2C15114  15.090  21.796  20.733  0.1076  0.2464  0.3080
  630BOLB   C3C15115  15.103  21.443  20.841 -0.1829  0.0750 -0.0574
  630BOLB   C4C15116  15.237  20.998  20.788 -0.0289 -0.0469  0.1261
  630BOLB   C1D15117  14.598  21.919  20.502 -0.1450  0.2787  0.1207
  630BOLB   C2D15118  14.778  21.604  20.346 -0.1679  0.0160  0.1229
  630BOLB   C3D15119  14.826  21.238  20.470 -0.2679  0.1054 -0.0491
  630BOLB   C4D15120  14.734  21.016  20.846  0.3984 -0.3356 -0.1744
  631BOLB   NC115121   7.421  14.477  30.613  0.0343  0.2088  0.1463
  631BOLB   PO115122   7.434  14.826  30.878 -0.3598 -0.4622  0.0740
  631BOLB   GL115123   7.135  14.690  31.027  0.1545  0.2510  0.1567
  631BOLB   GL215124   6.902  14.414  31.083 -0.1249  0.2606 -0.3870
  631BOLB   C1A15125   6.802  14.950  30.914  0.1275 -0.0651 -0.2941
  631BOLB   C2A15126   6.489  14.667  30.798  0.3289 -0.1224  0.2080
  631BOLB   C3A15127   6.192  14.349  30.838 -0.0005  0.2059  0.0780
  631BOLB   C4A15128   5.699  14.078  30.662 -0.3690  0.4386 -0.0610
  631BOLB   C1B15129   6.600  14.096  31.165  0.0618 -0.1674 -0.1107
  631BOLB   C2B15130   6.260  13.865  30.909  0.1776  0.0311  0.2249
  631BOLB   C3B15131   5.928  13.639  30.772  0.2244 -0.0846 -0.1744
  631BOLB   C4B15132   5.737  13.557  30.302 -0.1335  0.0558  0.2175
  631BOLB   NC215133   3.261  13.507  31.473  0.1357 -0.1863  0.0675
  631BOLB   PO215134   3.397  13.445  31.151 -0.2419 -0.1382 -0.2822
  631BOLB   GL315135   3.783  13.448  31.242 -0.2654 -0.0380 -0.3295
  631BOLB   GL415136   3.998  13.503  31.499  0.0604  0.1445  0.0176
  631BOLB   C1C15137   4.074  13.804  31.027 -0.2566  0.0674 -0.2369
  631BOLB   C2C15138   4.394  14.187  30.837 -0.2686  0.0773 -0.1365
  631BOLB   C3C15139   4.881  14.120  30.688 -0.1913 -0.2517 -0.1363
  631BOLB   C4C15140   5.210  14.146  30.708 -0.3237 -0.2087 -0.2958
  631BOLB   C1D15141   4.140  13.566  31.923 -0.1055 -0.2663  0.0353
  631BOLB   C2D15142   4.425  13.582  32.071  0.0006 -0.1135 -0.0709
  631BOLB   C3D15143   4.695  13.898  32.172 -0.2475  0.1376 -0.1321
  631BOLB   C4D15144   5.106  13.925  32.110  0.0134  0.0070  0.1147
  632BOLB   NC115145   9.254  18.159  27.753  0.1753 -0.0434 -0.3721
  632BOLB   PO115146   9.118  17.825  27.567 -0.1241  0.2444 -0.0808
  632BOLB   GL115147   8.784  18.219  27.602 -0.1626  0.0369 -0.3359
  632BOLB   GL215148   8.572  18.135  27.906  0.0064  0.2080  0.3635
  632BOLB   C1A15149   8.504  18.509  27.571  0.0653  0.0357  0.0348
  632BOLB   C2A15150   8.407  18.890  27.541  0.2128 -0.4188 -0.0701
  632BOLB   C3A15151   8.351  19.294  27.612  0.0501 -0.2159  0.0497
  632BOLB   C4A15152   8.215  19.638  27.436  0.0544 -0.1059 -0.0467
  632BOLB   C1B15153   8.219  18.163  27.732  0.0258 -0.0171  0.0841
  632BOLB   C2B15154   7.824  18.464  27.846 -0.0148 -0.0030 -0.0909
  632BOLB   C3B15155   7.335  18.606  27.940 -0.1134  0.0334 -0.0857
  632BOLB   C4B15156   6.918  18.614  28.208 -0.1488  0.1517 -0.2765
  632BOLB   NC215157   6.087  21.294  27.494 -0.2286  0.2300  0.0095
  632BOLB   PO215158   6.056  21.149  27.936 -0.2420 -0.0606 -0.0796
  632BOLB   GL315159   6.366  20.919  27.661 -0.2355  0.0708  0.2864
  632BOLB   GL415160   6.250  20.693  27.887 -0.0216 -0.1875 -0.3133
  632BOLB   C1C15161   6.687  20.616  27.543 -0.2387 -0.0850  0.0912
  632BOLB   C2C15162   7.021  20.374  27.502  0.3179 -0.0268 -0.0727
  632BOLB   C3C15163   7.387  20.048  27.560  0.1319  0.0489 -0.0544
  632BOLB   C4C15164   7.843  20.051  27.538 -0.1579 -0.1637  0.2646
  632BOLB   C1D15165   6.591  20.526  28.094 -0.0119  0.5657 -0.1284
  632BOLB   C2D15166   6.967  20.308  28.180  0.0063 -0.1118  0.0128
  632BOLB   C3D15167   7.139  19.940  28.070  0.1855 -0.0877 -0.2567
  632BOLB   C4D15168   7.534  19.634  28.043 -0.1732 -0.5458 -0.0425
  633BOLB   NC115169   9.739  16.285  35.649  0.0260 -0.1034 -0.1868
  633BOLB   PO115170   9.755  15.825  35.812  0.2678 -0.0292  0.1473
  633BOLB   GL115171   9.442  16.038  35.999 -0.3749  0.3313  0.0880
  633BOLB   GL215172   9.197  15.854  35.883 -0.1177 -0.3449  0.1536
  633BOLB   C1A15173   9.311  15.755  36.396  0.0155  0.4456 -0.2787
  633BOLB   C2A15174   8.964  15.813  36.771  0.1167  0.0452  0.4220
  633BOLB   C3A15175   8.702  15.943  37.040 -0.1492  0.1132 -0.0797
  633BOLB   C4A15176   8.600  15.747  37.434  0.0017 -0.2096 -0.0363
  633BOLB   C1B15177   8.907  15.864  36.211 -0.2657  0.3037  0.0186
  633BOLB   C2B15178   8.499  15.989  36.374 -0.0664  0.1678  0.2080
  633BOLB   C3B15179   8.171  16.144  36.647 -0.2263 -0.1067 -0.1827
  633BOLB   C4B15180   7.850  16.394  36.910  0.1753  0.1827 -0.0790
  633BOLB   NC215181   7.076  16.621  39.439 -0.2340 -0.3732 -0.0111
  633BOLB   PO215182   6.910  16.858  39.153  0.2484 -0.1385 -0.0379
  633BOLB   GL315183   7.246  16.727  38.945 -0.0821 -0.2430  0.0658
  633BOLB   GL415184   7.450  16.684  39.156 -0.4829  0.4590  0.4242
  633BOLB   C1C15185   7.319  16.465  38.587 -0.0803 -0.2137 -0.2580
  633BOLB   C2C15186   7.716  16.207  38.411  0.0396 -0.4289  0.3461
  633BOLB   C3C15187   7.986  15.886  38.201 -0.0673 -0.1128 -0.3223
  633BOLB   C4C15188   8.266  15.770  37.837 -0.0304 -0.2538 -0.0558
  633BOLB   C1D15189   7.604  16.270  38.973 -0.0883 -0.1915 -0.0191
  633BOLB   C2D15190   7.376  15.978  38.718  0.1855  0.2391  0.0387
  633BOLB   C3D15191   7.164  15.498  38.581 -0.2169 -0.0727 -0.3292
  633BOLB   C4D15192   7.122  15.102  38.525 -0.3222  0.0163  0.0734
  634BOLB   NC115193   9.565  17.540  34.720  0.0929  0.1565 -0.0987
  634BOLB   PO115194   9.650  18.010  34.495 -0.0809 -0.1933 -0.2571
  634BOLB   GL115195   9.328  18.083  34.811  0.0014  0.0208  0.0429
  634BOLB   GL215196   9.138  17.800  34.801 -0.0674 -0.0527  0.1770
  634BOLB   C1A15197   8.815  18.138  35.020 -0.0731 -0.0689 -0.0327
  634BOLB   C2A15198   8.409  18.462  35.012 -0.1493  0.1828  0.2052
  634BOLB   C3A15199   8.217  18.675  35.305 -0.0208 -0.1278  0.0327
  634BOLB   C4A15200   8.053  18.857  35.624  0.2998 -0.1780 -0.0320
  634BOLB   C1B15201   8.824  17.648  34.975  0.1155  0.2985 -0.1475
  634BOLB   C2B15202   8.585  17.684  35.313 -0.0404 -0.1230  0.2465
  634BOLB   C3B15203   8.627  17.697  35.679 -0.0243 -0.0909  0.1608
  634BOLB   C4B15204   8.376  17.693  35.943 -0.1246 -0.3136 -0.1986
  634BOLB   NC215205   7.016  21.016  36.262 -0.0520 -0.0176 -0.1004
  634BOLB   PO215206   7.169  20.812  36.578 -0.1459 -0.2308  0.2501
  634BOLB   GL315207   7.367  20.460  36.613 -0.4022 -0.2291  0.1053
  634BOLB   GL415208   7.585  20.584  36.419  0.0582  0.2484  0.2009
  634BOLB   C1C15209   7.438  19.989  36.548 -0.1707 -0.0724  0.1806
  634BOLB   C2C15210   7.757  19.764  36.356  0.0492  0.0597  0.2206
  634BOLB   C3C15211   7.867  19.485  36.156  0.0238  0.1942  0.0613
  634BOLB   C4C15212   7.984  19.136  35.990 -0.0127 -0.0242 -0.1664
  634BOLB   C1D15213   7.620  20.290  36.150 -0.3208  0.0438 -0.0962
  634BOLB   C2D15214   7.849  19.968  35.909 -0.0885 -0.2792 -0.2594
  634BOLB   C3D15215   8.137  19.786  35.715 -0.0093  0.0973  0.1501
  634BOLB   C4D15216   8.337  19.531  35.920 -0.4658 -0.0088  0.0489
  635BOLB   NC115217  20.162   5.866  33.170 -0.2282  0.1915  0.0884
  635BOLB   PO115218  20.117   5.483  32.859 -0.1126 -0.0327 -0.0359
  635BOLB   GL115219  20.420   5.230  33.094 -0.1162  0.2001  0.0160
  635BOLB   GL215220  20.268   5.401  33.340 -0.0265  0.0319  0.0230
  635BOLB   C1A15221  20.690   4.980  33.180 -0.1759 -0.2464 -0.0196
  635BOLB   C2A15222  21.049   4.736  33.374 -0.1560  0.1983 -0.0914
  635BOLB   C3A15223  21.085   4.387  33.345  0.1336  0.4582  0.1197
  635BOLB   C4A15224  21.499   4.072  33.435  0.0373 -0.0213  0.2246
  635BOLB   C1B15225  20.321   5.015  33.596 -0.0688 -0.1073  0.0669
  635BOLB   C2B15226  20.644   4.662  33.830 -0.3229 -0.4286  0.3548
  635BOLB   C3B15227  20.740   4.283  33.933 -0.0793 -0.0810 -0.2224
  635BOLB   C4B15228  20.404   3.875  34.040 -0.2265 -0.2794  0.1013
  635BOLB   NC215229  22.290   1.951  33.741  0.0158 -0.4095 -0.1585
  635BOLB   PO215230  22.011   2.012  34.130 -0.0324 -0.1791 -0.0609
  635BOLB   GL315231  22.397   2.411  34.042  0.1428  0.0995 -0.1058
  635BOLB   GL415232  22.609   2.374  33.864 -0.2223  0.0607  0.3399
  635BOLB   C1C15233  22.248   2.889  33.936  0.0854 -0.2269 -0.1166
  635BOLB   C2C15234  22.417   3.251  33.935  0.6313 -0.1806 -0.1547
  635BOLB   C3C15235  22.150   3.677  33.767  0.0115  0.1374 -0.2651
  635BOLB   C4C15236  21.820   3.761  33.541  0.2012  0.0661  0.0735
  635BOLB   C1D15237  22.289   2.545  33.594 -0.1746 -0.0099 -0.0015
  635BOLB   C2D15238  22.222   2.819  33.272 -0.2300  0.1237  0.1406
  635BOLB   C3D15239  22.208   3.200  33.072  0.4155 -0.0585 -0.0171
  635BOLB   C4D15240  21.893   3.557  32.936  0.0255 -0.0400  0.0694
  636BOLB   NC115241  21.383   6.452  24.950  0.1118 -0.2252  0.1237
  636BOLB   PO115242  21.786   6.822  24.866  0.5168 -0.2634  0.2827
  636BOLB   GL115243  22.060   6.612  24.627  0.2447  0.0322 -0.0195
  636BOLB   GL215244  21.876   6.551  24.421  0.2309 -0.1272 -0.0564
  636BOLB   C1A15245  22.327   6.261  24.550 -0.3332  0.1082 -0.1047
  636BOLB   C2A15246  22.538   5.971  24.180 -0.0329  0.0661  0.2493
  636BOLB   C3A15247  22.909   5.765  23.924  0.1010  0.3320  0.1939
  636BOLB   C4A15248  23.426   5.712  23.943 -0.1570  0.1108 -0.1222
  636BOLB   C1B15249  21.822   6.111  24.472  0.0950  0.1819  0.0630
  636BOLB   C2B15250  22.071   5.779  24.569  0.4425 -0.2383 -0.1804
  636BOLB   C3B15251  22.312   5.554  24.251 -0.1325  0.1532 -0.1881
  636BOLB   C4B15252  22.739   5.371  24.223 -0.2860  0.1630 -0.1479
  636BOLB   NC215253  25.770   5.053  23.380  0.3745 -0.0151 -0.1348
  636BOLB   PO215254  25.372   5.217  23.640 -0.0319  0.3350 -0.1586
  636BOLB   GL315255  25.303   5.611  23.745  0.2478 -0.0098  0.0824
  636BOLB   GL415256  25.478   5.838  23.948  0.2084  0.1993  0.4674
  636BOLB   C1C15257  24.831   5.740  23.771 -0.3538 -0.1187 -0.0897
  636BOLB   C2C15258  24.535   5.615  23.837  0.2120  0.0683 -0.0681
  636BOLB   C3C15259  24.177   5.493  23.675  0.0695  0.4253 -0.0273
  636BOLB   C4C15260  23.783   5.566  23.754  0.2236  0.2084 -0.1671
  636BOLB   C1D15261  25.115   6.038  24.163 -0.0648  0.1682 -0.2649
  636BOLB   C2D15262  24.625   6.028  24.087  0.2332  0.1253 -0.1946
  636BOLB   C3D15263  24.138   5.944  23.953  0.0912  0.0368 -0.1419
  636BOLB   C4D15264  23.744   6.017  24.129 -0.0483  0.5455  0.1579
  637BOLB   NC115265  22.956   9.816  33.966 -0.1211  0.0313  0.2625
  637BOLB   PO115266  23.047   9.940  34.392  0.2232  0.0935 -0.1161
  637BOLB   GL115267  23.305   9.750  34.333  0.0700  0.0063  0.1705
  637BOLB   GL215268  23.464   9.932  34.091  0.0686 -0.2355 -0.0969
  637BOLB   C1A15269  23.601   9.523  34.293  0.0198 -0.0317  0.2511
  637BOLB   C2A15270  24.104   9.638  34.523  0.1595  0.2214 -0.1432
  637BOLB   C3A15271  24.341   9.908  34.645 -0.1165 -0.1491  0.0421
  637BOLB   C4A15272  24.688  10.230  34.525 -0.0925  0.0149  0.1667
  637BOLB   C1B15273  23.906  10.120  34.227 -0.2100  0.4936 -0.2716
  637BOLB   C2B15274  24.190  10.437  34.526  0.0421  0.2485  0.3020
  637BOLB   C3B15275  24.420  10.566  34.880  0.0578 -0.1799 -0.0263
  637BOLB   C4B15276  24.873  10.554  34.844  0.2256 -0.2705 -0.0360
  637BOLB   NC215277   0.015   9.917  35.561 -0.0538 -0.1567  0.3944
  637BOLB   PO215278  26.890   9.659  35.392 -0.2460 -0.0534  0.2412
  637BOLB   GL315279  26.661   9.781  35.081 -0.0954 -0.0569 -0.0705
  637BOLB   GL415280  26.851   9.954  34.867  0.2779 -0.1811 -0.3618
  637BOLB   C1C15281  26.269   9.688  34.968  0.0083 -0.1592  0.0285
  637BOLB   C2C15282  25.916   9.709  34.827 -0.1867  0.1142 -0.0330
  637BOLB   C3C15283  25.582   9.940  34.533 -0.0949 -0.1158  0.0483
  637BOLB   C4C15284  25.229  10.100  34.540  0.2949  0.0594  0.1822
  637BOLB   C1D15285  26.459  10.156  34.778 -0.0013  0.1652 -0.3288
  637BOLB   C2D15286  26.109  10.095  34.553 -0.1480 -0.2875 -0.2536
  637BOLB   C3D15287  25.899  10.232  34.256 -0.3460  0.0563  0.0033
  637BOLB   C4D15288  25.533  10.087  34.082 -0.1856 -0.2613  0.0868
  638BOLB   NC115289  12.485  12.318  20.790  0.0300 -0.1333 -0.0092
  638BOLB   PO115290  12.926  12.538  20.831  0.0281  0.1998 -0.2586
  638BOLB   GL115291  12.761  12.416  20.395  0.2193 -0.1296  0.0327
  638BOLB   GL215292  12.743  12.760  20.193  0.2197 -0.1647  0.4259
  638BOLB   C1A15293  12.440  12.229  20.008 -0.0056  0.0469 -0.1550
  638BOLB   C2A15294  12.400  12.525  19.693 -0.2690  0.5473  0.1167
  638BOLB   C3A15295  12.214  12.784  19.496 -0.1105  0.2203 -0.2187
  638BOLB   C4A15296  12.068  13.033  19.216  0.0278 -0.0945  0.0047
  638BOLB   C1B15297  12.267  12.901  20.142 -0.0235  0.1315 -0.0485
  638BOLB   C2B15298  12.155  13.247  19.797  0.2954 -0.1916  0.1637
  638BOLB   C3B15299  11.728  13.367  19.553  0.1114  0.5015 -0.2245
  638BOLB   C4B15300  11.432  13.701  19.447 -0.3380  0.4233 -0.1465
  638BOLB   NC215301  11.085  13.418  17.492 -0.1246  0.2052 -0.0604
  638BOLB   PO215302  11.007  13.102  17.238  0.1346  0.1919  0.2796
  638BOLB   GL315303  10.874  12.955  17.665 -0.2709  0.1502 -0.0444
  638BOLB   GL415304  10.546  12.883  17.698  0.4014  0.2067  0.1549
  638BOLB   C1C15305  10.778  13.148  18.048 -0.0900  0.0473  0.0609
  638BOLB   C2C15306  10.896  13.141  18.431 -0.0220 -0.0334  0.1793
  638BOLB   C3C15307  11.343  13.141  18.685 -0.2521  0.1231 -0.2521
  638BOLB   C4C15308  11.668  13.011  19.043  0.1324 -0.2456  0.1938
  638BOLB   C1D15309  10.764  12.612  18.111  0.0210 -0.1324  0.2646
  638BOLB   C2D15310  11.166  12.656  18.332 -0.0871  0.1876 -0.0586
  638BOLB   C3D15311  11.529  12.575  18.245 -0.0276 -0.1142  0.0034
  638BOLB   C4D15312  11.875  12.337  18.069 -0.3039  0.0805 -0.7852
  639BOLB   NC115313  21.291   6.270  25.770 -0.1639  0.1128  0.0750
  639BOLB   PO115314  21.474   6.508  25.495 -0.1234 -0.0678  0.0038
  639BOLB   GL115315  21.886   6.315  25.346  0.4421  0.1850 -0.0321
  639BOLB   GL215316  21.959   6.524  25.187  0.0579 -0.1858 -0.2504
  639BOLB   C1A15317  22.004   6.046  24.975  0.0216  0.2521  0.0899
  639BOLB   C2A15318  22.343   5.598  24.953 -0.2958 -0.0012 -0.1479
  639BOLB   C3A15319  22.400   5.335  24.671 -0.4222  0.1907 -0.1712
  639BOLB   C4A15320  22.394   5.004  24.418  0.1483 -0.0843  0.0880
  639BOLB   C1B15321  22.359   6.390  25.060 -0.1421  0.2908  0.0122
  639BOLB   C2B15322  22.707   6.097  24.853 -0.0515 -0.0964  0.3516
  639BOLB   C3B15323  22.995   5.932  24.537  0.2150  0.1755 -0.0261
  639BOLB   C4B15324  23.253   5.685  24.432  0.2301  0.0696 -0.4671
  639BOLB   NC215325  23.844   3.321  23.083  0.0183 -0.0140  0.0252
  639BOLB   PO215326  24.005   3.618  23.374 -0.0746 -0.0789  0.0240
  639BOLB   GL315327  23.776   3.994  23.490 -0.0718 -0.0176 -0.0307
  639BOLB   GL415328  24.109   4.187  23.472 -0.1390 -0.1824  0.0817
  639BOLB   C1C15329  23.453   4.061  23.653 -0.0390  0.1702  0.0267
  639BOLB   C2C15330  23.280   4.374  23.908  0.2335  0.2448 -0.3732
  639BOLB   C3C15331  23.167   4.692  24.199 -0.1226 -0.0490 -0.0011
  639BOLB   C4C15332  22.849   4.887  24.344 -0.3378  0.3091 -0.2362
  639BOLB   C1D15333  23.886   4.569  23.446 -0.1775 -0.4983  0.1090
  639BOLB   C2D15334  23.706   4.795  23.146 -0.1715  0.2269 -0.0016
  639BOLB   C3D15335  23.385   4.705  22.716 -0.1505 -0.2723 -0.1464
  639BOLB   C4D15336  23.042   4.596  22.544  0.2304  0.0965 -0.1492
  640BOLB   NC115337  14.487   6.233  23.832  0.0133 -0.0491 -0.3143
  640BOLB   PO115338  14.107   6.310  23.629 -0.0904  0.0727 -0.1068
  640BOLB   GL115339  13.983   6.219  23.197 -0.1775  0.0379 -0.1097
  640BOLB   GL215340  14.210   6.167  23.105  0.1921 -0.0700 -0.3699
  640BOLB   C1A15341  13.825   5.845  22.969 -0.0597  0.3249 -0.1573
  640BOLB   C2A15342  13.889   5.558  22.647 -0.1331  0.2867  0.0369
  640BOLB   C3A15343  13.904   5.416  22.236 -0.2170 -0.3424 -0.0678
  640BOLB   C4A15344  14.042   5.346  21.718 -0.2389 -0.1845 -0.0738
  640BOLB   C1B15345  14.274   5.736  22.899 -0.0532 -0.1348 -0.1838
  640BOLB   C2B15346  14.318   5.393  22.554 -0.0019  0.2204 -0.0019
  640BOLB   C3B15347  14.443   5.160  22.105 -0.2230  0.0211  0.2952
  640BOLB   C4B15348  14.527   5.197  21.625 -0.0291 -0.3094  0.0993
  640BOLB   NC215349  13.298   4.293  19.505 -0.2079 -0.2753 -0.1609
  640BOLB   PO215350  13.322   4.648  19.748 -0.0415 -0.0189  0.1621
  640BOLB   GL315351  13.777   4.860  19.768  0.0688 -0.2408  0.3955
  640BOLB   GL415352  13.576   5.099  19.769  0.1153  0.3604  0.2646
  640BOLB   C1C15353  14.058   4.990  20.078 -0.1141  0.3098  0.1281
  640BOLB   C2C15354  14.069   5.368  20.413 -0.2232 -0.1218  0.0555
  640BOLB   C3C15355  14.103   5.366  20.802  0.2120 -0.2861  0.2954
  640BOLB   C4C15356  14.144   5.425  21.244 -0.2144 -0.1122  0.0772
  640BOLB   C1D15357  13.649   5.348  20.117  0.2011  0.0758  0.1982
  640BOLB   C2D15358  13.712   5.693  20.238  0.5557 -0.2590  0.2046
  640BOLB   C3D15359  13.939   5.850  20.581 -0.1684  0.1646 -0.1001
  640BOLB   C4D15360  14.256   5.842  20.908 -0.1052 -0.0659 -0.3308
  641BOLB   NC115361  18.235   7.074  37.219 -0.1238 -0.2853 -0.2065
  641BOLB   PO115362  18.317   7.359  37.586  0.4172  0.0779 -0.1680
  641BOLB   GL115363  18.233   6.920  37.736 -0.0479  0.2303 -0.1399
  641BOLB   GL215364  17.926   6.794  37.925  0.1296  0.1177  0.0642
  641BOLB   C1A15365  18.421   6.628  38.052 -0.2647 -0.2154  0.2659
  641BOLB   C2A15366  18.579   6.504  38.445  0.1953  0.0092 -0.1823
  641BOLB   C3A15367  18.702   6.237  38.817  0.0241 -0.2915  0.1720
  641BOLB   C4A15368  18.649   6.093  39.239 -0.0723 -0.0424  0.1744
  641BOLB   C1B15369  18.076   6.711  38.351  0.0772 -0.1331 -0.0217
  641BOLB   C2B15370  18.268   6.718  38.756 -0.1034  0.2276 -0.2933
  641BOLB   C3B15371  18.362   6.506  39.115  0.0472  0.0960 -0.1059
  641BOLB   C4B15372  18.489   6.510  39.500 -0.0155 -0.1855 -0.0756
  641BOLB   NC215373  18.722   3.845  40.115 -0.3861  0.1283  0.0319
  641BOLB   PO215374  18.897   3.697  39.779 -0.0121  0.2444  0.4185
  641BOLB   GL315375  18.895   4.143  39.758 -0.1409  0.2975 -0.2129
  641BOLB   GL415376  19.256   4.264  39.816 -0.2169  0.0636 -0.0387
  641BOLB   C1C15377  18.851   4.564  39.789  0.0771  0.2589  0.1194
  641BOLB   C2C15378  18.812   4.979  39.903 -0.0672  0.1218 -0.1051
  641BOLB   C3C15379  18.638   5.357  39.756 -0.2812  0.0934  0.1172
  641BOLB   C4C15380  18.548   5.716  39.573 -0.2282 -0.0672 -0.1054
  641BOLB   C1D15381  19.350   4.397  39.361  0.2228  0.4017 -0.2803
  641BOLB   C2D15382  19.618   4.694  39.071  0.3692  0.0909 -0.0805
  641BOLB   C3D15383  19.697   5.019  38.853 -0.1237  0.0074  0.0208
  641BOLB   C4D15384  19.636   5.460  38.747 -0.3708 -0.1204 -0.3423
  642BOLB   NC115385  20.364   7.175  24.165  0.1316  0.1053  0.1353
  642BOLB   PO115386  20.458   6.838  23.886  0.0900  0.1452  0.1779
  642BOLB   GL115387  20.686   6.546  23.586  0.1001  0.1212  0.0084
  642BOLB   GL215388  20.583   6.270  23.405  0.1023  0.1529 -0.0475
  642BOLB   C1A15389  20.962   6.725  23.288  0.0488  0.0024 -0.1759
  642BOLB   C2A15390  21.328   6.538  23.061  0.1458 -0.0174 -0.1307
  642BOLB   C3A15391  21.739   6.281  22.841  0.1653 -0.0816  0.0865
  642BOLB   C4A15392  21.988   6.178  22.505 -0.1145 -0.0185  0.3926
  642BOLB   C1B15393  20.844   6.024  23.201  0.3604  0.2555  0.1514
  642BOLB   C2B15394  21.057   5.632  23.114  0.1609 -0.4317 -0.0558
  642BOLB   C3B15395  21.172   5.147  23.216  0.0805 -0.1450  0.1300
  642BOLB   C4B15396  21.599   4.884  23.117  0.0244  0.1663  0.0600
  642BOLB   NC215397  23.946   5.127  21.815  0.0440  0.2091 -0.2358
  642BOLB   PO215398  23.823   4.724  21.968  0.1607  0.1629  0.0847
  642BOLB   GL315399  23.534   5.040  22.143 -0.0129 -0.4595 -0.1980
  642BOLB   GL415400  23.256   4.970  22.318 -0.1013 -0.0706  0.1278
  642BOLB   C1C15401  23.183   5.366  21.996 -0.1555 -0.0820  0.1047
  642BOLB   C2C15402  22.837   5.741  21.928  0.3581  0.1276 -0.0914
  642BOLB   C3C15403  22.422   5.821  21.978 -0.0508  0.1445 -0.1823
  642BOLB   C4C15404  22.202   5.933  22.302 -0.3214 -0.0611 -0.0497
  642BOLB   C1D15405  23.028   5.170  22.626 -0.0391  0.1909  0.1892
  642BOLB   C2D15406  22.725   5.315  22.733 -0.0264  0.2462 -0.0297
  642BOLB   C3D15407  22.624   5.442  23.014  0.2682 -0.0081 -0.4162
  642BOLB   C4D15408  22.276   5.676  23.207  0.0790  0.0113 -0.4023
  643BOLB   NC115409   8.311  17.150  29.921  0.1707  0.1269  0.0870
  643BOLB   PO115410   7.846  17.008  29.915 -0.1666  0.0244  0.0178
  643BOLB   GL115411   7.579  17.295  29.849 -0.0930 -0.2083 -0.2458
  643BOLB   GL215412   7.396  17.217  30.104  0.0498  0.5825 -0.2152
  643BOLB   C1A15413   7.139  17.273  29.494 -0.2183 -0.0674  0.1746
  643BOLB   C2A15414   6.811  17.441  29.578 -0.0798  0.2454  0.1097
  643BOLB   C3A15415   6.379  17.529  29.757 -0.4107 -0.3726 -0.1128
  643BOLB   C4A15416   6.113  17.718  29.545 -0.2789 -0.1117  0.3299
  643BOLB   C1B15417   7.127  16.957  29.932  0.1210  0.2821 -0.0875
  643BOLB   C2B15418   6.863  16.659  29.677  0.1415 -0.0290  0.0392
  643BOLB   C3B15419   6.573  16.337  29.574 -0.1542  0.2448  0.2359
  643BOLB   C4B15420   6.514  15.968  29.438  0.0638 -0.0219 -0.0600
  643BOLB   NC215421   4.842  19.579  29.026  0.1925  0.1170  0.2154
  643BOLB   PO215422   5.092  19.774  28.613  0.3040  0.1942 -0.0979
  643BOLB   GL315423   5.457  19.465  28.871  0.1047 -0.3426 -0.1611
  643BOLB   GL415424   5.248  19.327  29.115  0.2560 -0.0182 -0.4213
  643BOLB   C1C15425   5.751  19.222  29.076  0.2026 -0.1678 -0.1069
  643BOLB   C2C15426   5.799  18.805  29.187  0.2772  0.1045  0.1430
  643BOLB   C3C15427   5.829  18.469  29.375  0.1544  0.4006 -0.0284
  643BOLB   C4C15428   6.090  18.042  29.225  0.0686 -0.4462  0.0115
  643BOLB   C1D15429   5.333  18.968  29.330  0.0601  0.1316  0.0619
  643BOLB   C2D15430   5.409  18.665  29.666 -0.1563 -0.3409  0.0499
  643BOLB   C3D15431   5.190  18.303  30.023 -0.1621  0.1654 -0.2874
  643BOLB   C4D15432   5.466  18.066  30.279  0.1107 -0.4742 -0.1941
  644BOLB   NC115433  12.397  16.457  22.139  0.1952  0.0732  0.1085
  644BOLB   PO115434  12.285  16.779  22.521  0.1413 -0.0256 -0.0325
  644BOLB   GL115435  12.225  17.034  22.239  0.0480 -0.0369 -0.0245
  644BOLB   GL215436  12.296  17.367  22.358 -0.0194  0.2124  0.1610
  644BOLB   C1A15437  11.953  17.162  21.894 -0.1094 -0.1248  0.0567
  644BOLB   C2A15438  11.608  17.026  21.577  0.0384  0.1846 -0.3668
  644BOLB   C3A15439  11.246  17.183  21.274  0.0385  0.0377 -0.1476
  644BOLB   C4A15440  10.820  17.212  20.970  0.1151 -0.2439  0.3634
  644BOLB   C1B15441  12.101  17.596  21.955 -0.1540 -0.3219  0.2571
  644BOLB   C2B15442  12.035  17.884  21.674 -0.2896 -0.0878  0.1160
  644BOLB   C3B15443  11.741  18.186  21.577  0.0141 -0.0190  0.0420
  644BOLB   C4B15444  11.315  18.080  21.432 -0.0613  0.1425  0.0675
  644BOLB   NC215445   8.980  18.129  19.783 -0.0948 -0.2630 -0.0683
  644BOLB   PO215446   8.794  18.221  20.134  0.1848  0.1935 -0.2468
  644BOLB   GL315447   8.997  17.786  20.158  0.2420 -0.1500 -0.0386
  644BOLB   GL415448   8.863  17.469  20.031  0.0204 -0.3095 -0.0823
  644BOLB   C1C15449   9.349  17.595  20.108 -0.0464 -0.0145 -0.2815
  644BOLB   C2C15450   9.694  17.208  20.254  0.4047 -0.0284  0.0357
  644BOLB   C3C15451  10.104  17.204  20.441 -0.2054  0.4212  0.0657
  644BOLB   C4C15452  10.549  17.229  20.641  0.0400  0.5302  0.0315
  644BOLB   C1D15453   9.282  17.151  19.865  0.1758  0.0354 -0.0777
  644BOLB   C2D15454   9.128  16.686  19.820 -0.0614 -0.1414  0.4154
  644BOLB   C3D15455   9.211  16.308  19.967 -0.0942 -0.3852 -0.1538
  644BOLB   C4D15456   9.097  16.084  20.282  0.1548 -0.0162 -0.4081
  645BOLB   NC115457  22.641   8.996  28.546  0.2887  0.1100  0.0288
  645BOLB   PO115458  22.900   8.830  28.897  0.0909  0.0644 -0.0245
  645BOLB   GL115459  23.300   8.708  29.178 -0.2692  0.0083  0.1219
  645BOLB   GL215460  23.467   8.377  29.101 -0.1836  0.0384 -0.0145
  645BOLB   C1A15461  23.799   8.682  29.332  0.4281 -0.0624 -0.2737
  645BOLB   C2A15462  24.142   8.766  29.304 -0.2443  0.1113 -0.1892
  645BOLB   C3A15463  24.630   8.746  29.375  0.0447 -0.2539  0.1392
  645BOLB   C4A15464  25.112   8.770  29.485  0.1781 -0.2497 -0.1354
  645BOLB   C1B15465  23.879   8.148  29.050 -0.0341 -0.2096 -0.2182
  645BOLB   C2B15466  24.312   8.069  28.894  0.3191  0.0072 -0.0040
  645BOLB   C3B15467  24.774   7.883  28.806  0.1015 -0.0208  0.0610
  645BOLB   C4B15468  25.159   7.818  28.535 -0.5809 -0.1455  0.1688
  645BOLB   NC215469   0.361   7.275  29.668  0.0625 -0.0866 -0.0047
  645BOLB   PO215470   0.313   7.768  29.717  0.0202  0.3246 -0.0057
  645BOLB   GL315471   0.062   7.945  29.479 -0.0475  0.0839  0.2797
  645BOLB   GL415472   0.027   8.191  29.776 -0.0694 -0.1757  0.2431
  645BOLB   C1C15473  26.682   8.170  29.475  0.1933 -0.0519 -0.1560
  645BOLB   C2C15474  26.272   8.392  29.501 -0.1095  0.0544  0.0430
  645BOLB   C3C15475  25.821   8.553  29.578  0.1495 -0.4049 -0.1765
  645BOLB   C4C15476  25.541   8.767  29.476 -0.1165 -0.0994  0.1473
  645BOLB   C1D15477  26.735   8.148  29.997  0.2206 -0.0125  0.0600
  645BOLB   C2D15478  26.276   8.113  29.898  0.0837 -0.2394 -0.0095
  645BOLB   C3D15479  25.806   8.117  29.906 -0.4170 -0.0193  0.4563
  645BOLB   C4D15480  25.389   8.443  29.832  0.0089  0.2771 -0.2753
  646BOLB   NC115481  10.757  19.742  30.163  0.0899  0.0487 -0.0017
  646BOLB   PO115482  10.584  20.029  29.799  0.0827  0.1493  0.0464
  646BOLB   GL115483  10.394  20.497  29.870  0.0393 -0.1646 -0.1783
  646BOLB   GL215484  10.325  20.894  29.933 -0.0532 -0.2789 -0.0853
  646BOLB   C1A15485  10.059  20.698  29.580 -0.2882  0.0617 -0.1126
  646BOLB   C2A15486   9.708  21.019  29.521 -0.1807 -0.1544  0.0098
  646BOLB   C3A15487   9.609  21.411  29.447  0.0101 -0.1124 -0.1828
  646BOLB   C4A15488   9.309  21.788  29.378 -0.2466 -0.2159  0.5308
  646BOLB   C1B15489  10.180  21.281  30.061 -0.1912  0.0275  0.1307
  646BOLB   C2B15490  10.085  21.604  30.430 -0.0614  0.2711 -0.1653
  646BOLB   C3B15491   9.690  21.806  30.320 -0.4229 -0.0844 -0.3131
  646BOLB   C4B15492   9.351  21.976  30.391 -0.2540 -0.0594 -0.2416
  646BOLB   NC215493   7.524  23.309  29.287  0.3255 -0.3163  0.0744
  646BOLB   PO215494   7.385  23.208  29.633  0.2659  0.1509  0.0535
  646BOLB   GL315495   7.577  22.886  29.525  0.0624  0.0554 -0.2365
  646BOLB   GL415496   7.564  22.784  29.845  0.0276 -0.0556  0.0733
  646BOLB   C1C15497   7.617  22.440  29.379  0.2949 -0.3522 -0.0833
  646BOLB   C2C15498   8.039  22.244  29.424 -0.0439  0.0590  0.0864
  646BOLB   C3C15499   8.568  22.076  29.574  0.1067 -0.3766  0.1701
  646BOLB   C4C15500   8.974  22.011  29.644 -0.2963  0.0858 -0.0670
  646BOLB   C1D15501   7.870  22.447  29.942  0.2421 -0.0067 -0.3904
  646BOLB   C2D15502   8.103  22.042  29.926  0.0329  0.4586  0.0243
  646BOLB   C3D15503   8.391  21.737  29.914 -0.0747  0.1714  0.1250
  646BOLB   C4D15504   8.609  21.359  29.892 -0.3439  0.0142  0.1248
  647BOLB   NC115505  14.787   9.608  39.861  0.0903  0.0904  0.2002
  647BOLB   PO115506  14.652  10.051  39.860 -0.1169 -0.1377 -0.1386
  647BOLB   GL115507  14.703  10.101  40.318 -0.0316  0.2765  0.0571
  647BOLB   GL215508  15.002  10.270  40.263 -0.2512  0.3128  0.0420
  647BOLB   C1A15509  14.673   9.904  40.732  0.1614  0.2506 -0.0299
  647BOLB   C2A15510  14.727   9.580  41.107 -0.3356  0.0276 -0.1301
  647BOLB   C3A15511  14.998   9.708  41.524  0.0013 -0.3804 -0.1256
  647BOLB   C4A15512  15.112  10.098  41.752 -0.0285 -0.1715  0.0702
  647BOLB   C1B15513  15.101  10.164  40.764 -0.0502 -0.2516  0.0623
  647BOLB   C2B15514  15.340  10.144  41.159 -0.0984 -0.2655 -0.1099
  647BOLB   C3B15515  15.472   9.815  41.378  0.2175 -0.0656 -0.4201
  647BOLB   C4B15516  15.480   9.623  41.716 -0.1016  0.0609  0.0513
  647BOLB   NC215517  16.244   9.109  43.696  0.1549 -0.0131 -0.1146
  647BOLB   PO215518  15.846   8.833  43.591  0.0647  0.3648 -0.0371
  647BOLB   GL315519  15.858   8.950  43.191  0.2942  0.0984 -0.0394
  647BOLB   GL415520  16.008   8.794  42.924  0.2161  0.1163  0.1744
  647BOLB   C1C15521  15.559   9.207  42.929 -0.1129 -0.0031  0.2179
  647BOLB   C2C15522  15.438   9.277  42.583 -0.0092  0.1744  0.0021
  647BOLB   C3C15523  15.440   9.577  42.230 -0.0354  0.0829  0.0556
  647BOLB   C4C15524  15.285   9.958  42.089 -0.2038 -0.0219 -0.0946
  647BOLB   C1D15525  16.324   8.806  42.567 -0.0423 -0.3030  0.0924
  647BOLB   C2D15526  16.232   8.639  42.252  0.2189  0.2089  0.2395
  647BOLB   C3D15527  16.218   8.419  41.857 -0.0255 -0.1575  0.3506
  647BOLB   C4D15528  16.215   8.376  41.428 -0.1778  0.2898 -0.4240
  648BOLB   NC115529  21.552   8.009  35.291 -0.1462  0.2085  0.2735
  648BOLB   PO115530  21.266   7.611  35.340  0.0875 -0.2489 -0.1308
  648BOLB   GL115531  21.678   7.550  35.464  0.1210 -0.0884  0.1655
  648BOLB   GL215532  21.875   7.786  35.532  0.0824  0.1620  0.2085
  648BOLB   C1A15533  22.162   7.416  35.593  0.0646  0.2045  0.3203
  648BOLB   C2A15534  22.532   7.327  35.344  0.3492 -0.0220 -0.0826
  648BOLB   C3A15535  22.801   6.969  35.484 -0.0036  0.2900 -0.0665
  648BOLB   C4A15536  22.933   6.586  35.695 -0.0397 -0.4529 -0.0298
  648BOLB   C1B15537  22.339   7.943  35.766 -0.1237  0.0015  0.0097
  648BOLB   C2B15538  22.679   8.194  35.839 -0.0683  0.0215  0.0256
  648BOLB   C3B15539  23.132   8.253  35.864  0.1617  0.1100 -0.1812
  648BOLB   C4B15540  23.619   8.026  35.942 -0.3802 -0.0085 -0.0559
  648BOLB   NC215541  25.177   6.548  36.959  0.0634  0.1740  0.2424
  648BOLB   PO215542  24.878   6.301  36.967  0.0617  0.1876 -0.1070
  648BOLB   GL315543  24.584   6.592  37.104 -0.0501 -0.0087  0.1055
  648BOLB   GL415544  24.719   6.855  37.258  0.1721  0.0610  0.1273
  648BOLB   C1C15545  24.277   6.782  36.793 -0.0264  0.1484 -0.1010
  648BOLB   C2C15546  24.049   6.619  36.444  0.1846  0.1204 -0.0662
  648BOLB   C3C15547  23.546   6.514  36.328  0.1788 -0.1903  0.1148
  648BOLB   C4C15548  23.122   6.575  36.098  0.1624  0.0630  0.2709
  648BOLB   C1D15549  24.534   7.273  37.025 -0.0547 -0.1369  0.1625
  648BOLB   C2D15550  24.177   7.570  37.101 -0.2042  0.1024  0.4039
  648BOLB   C3D15551  24.019   7.858  37.275  0.0184  0.0032  0.1020
  648BOLB   C4D15552  24.205   7.956  37.691  0.3749  0.0489 -0.1424
  649BOLB   NC115553  18.509  19.559  33.422  0.1228  0.2680 -0.1702
  649BOLB   PO115554  18.322  19.615  33.020 -0.1250 -0.2221  0.0063
  649BOLB   GL115555  18.364  20.061  32.775 -0.5535  0.2380 -0.0695
  649BOLB   GL215556  18.478  20.024  32.475  0.2160  0.2647 -0.1284
  649BOLB   C1A15557  18.605  20.374  32.803 -0.0515 -0.1392 -0.1595
  649BOLB   C2A15558  18.825  20.657  32.957  0.1199 -0.0357 -0.1471
  649BOLB   C3A15559  19.082  20.944  33.050  0.2011  0.3191  0.1946
  649BOLB   C4A15560  19.204  21.325  33.171 -0.0283  0.0772 -0.3495
  649BOLB   C1B15561  18.539  20.488  32.311 -0.0916  0.2794  0.2119
  649BOLB   C2B15562  18.445  20.872  32.271 -0.0640  0.5372  0.1780
  649BOLB   C3B15563  18.720  21.295  32.244  0.4150  0.2587 -0.1545
  649BOLB   C4B15564  18.877  21.709  32.372  0.2488  0.1443 -0.3287
  649BOLB   NC215565  19.013  23.731  33.387 -0.2367 -0.1292  0.4814
  649BOLB   PO215566  19.448  23.524  33.523  0.3525 -0.2625 -0.2439
  649BOLB   GL315567  19.548  23.200  33.738  0.3666  0.1775 -0.0522
  649BOLB   GL415568  19.625  23.090  34.086  0.2074 -0.0285  0.0585
  649BOLB   C1C15569  19.685  22.782  33.644 -0.1703  0.0984  0.4118
  649BOLB   C2C15570  19.756  22.454  33.328 -0.2187 -0.1143  0.2601
  649BOLB   C3C15571  19.519  22.108  33.271  0.0568 -0.0659  0.0917
  649BOLB   C4C15572  19.363  21.796  33.123 -0.2917  0.1311  0.3523
  649BOLB   C1D15573  19.622  22.606  34.066 -0.3666  0.3386  0.2325
  649BOLB   C2D15574  19.468  22.244  33.875 -0.2189 -0.1689 -0.4692
  649BOLB   C3D15575  19.109  22.201  33.529 -0.2003 -0.2333 -0.3908
  649BOLB   C4D15576  19.046  22.590  33.361  0.2544 -0.0064  0.0537
  650BOLB   NC115577  19.403  10.494  39.065  0.2469  0.4111  0.1130
  650BOLB   PO115578  19.706  10.553  39.113 -0.1640 -0.2006 -0.0813
  650BOLB   GL115579  19.792  10.351  39.425 -0.0062  0.1838 -0.1930
  650BOLB   GL215580  19.454  10.284  39.548  0.3362 -0.1845 -0.1561
  650BOLB   C1A15581  19.858   9.980  39.679 -0.1225  0.1819 -0.2938
  650BOLB   C2A15582  19.740   9.781  39.996 -0.0139  0.0140 -0.0066
  650BOLB   C3A15583  19.566   9.395  40.267 -0.4283 -0.0123  0.1706
  650BOLB   C4A15584  19.634   9.083  40.597  0.4579  0.2167  0.0822
  650BOLB   C1B15585  19.658  10.335  39.941  0.2603 -0.0595 -0.1154
  650BOLB   C2B15586  19.803  10.147  40.367  0.0012 -0.3603  0.0608
  650BOLB   C3B15587  19.836   9.751  40.620 -0.2177  0.1519 -0.0603
  650BOLB   C4B15588  20.001   9.362  40.551 -0.1610 -0.0805  0.2759
  650BOLB   NC215589  20.237   9.570  43.526  0.1684 -0.1068  0.3347
  650BOLB   PO215590  20.113   9.369  43.077 -0.0500 -0.3818 -0.3037
  650BOLB   GL315591  19.686   9.263  42.819 -0.2203  0.0554  0.1408
  650BOLB   GL415592  19.372   9.462  42.972  0.3902  0.0022  0.0399
  650BOLB   C1C15593  19.447   9.255  42.401 -0.2768  0.0020  0.3789
  650BOLB   C2C15594  19.530   9.205  41.940 -0.0889  0.0220 -0.0601
  650BOLB   C3C15595  19.594   9.202  41.432 -0.0681  0.1132 -0.1228
  650BOLB   C4C15596  19.712   9.101  41.004 -0.0368  0.0778 -0.0681
  650BOLB   C1D15597  19.371   9.677  42.604 -0.0657  0.2069  0.0411
  650BOLB   C2D15598  19.670   9.709  42.253  0.3556  0.4146 -0.2691
  650BOLB   C3D15599  19.690   9.706  41.800  0.1291  0.1347  0.1143
  650BOLB   C4D15600  19.565   9.763  41.292  0.0468 -0.1740 -0.1737
  651BOLB   NC115601  18.619   4.284  27.466 -0.1294 -0.4545  0.0455
  651BOLB   PO115602  18.443   4.331  27.101  0.0037 -0.0208 -0.1956
  651BOLB   GL115603  18.428   3.894  27.191 -0.0702 -0.3462 -0.0288
  651BOLB   GL215604  18.262   3.635  26.921  0.2224 -0.1235 -0.0882
  651BOLB   C1A15605  18.574   3.585  27.452 -0.0428 -0.0338 -0.1180
  651BOLB   C2A15606  18.508   3.110  27.306 -0.2244  0.0019 -0.1217
  651BOLB   C3A15607  18.461   2.695  27.460  0.3172 -0.3007  0.4215
  651BOLB   C4A15608  18.488   2.237  27.261 -0.1462  0.1935 -0.1916
  651BOLB   C1B15609  17.903   3.414  26.859  0.0871  0.3140 -0.3164
  651BOLB   C2B15610  17.714   3.054  26.821 -0.0530 -0.0751  0.1063
  651BOLB   C3B15611  17.439   2.559  26.703  0.1519  0.0522 -0.1071
  651BOLB   C4B15612  17.564   2.233  26.789  0.1756 -0.3001  0.0914
  651BOLB   NC215613  19.710   0.272  25.762  0.1229  0.1113  0.1025
  651BOLB   PO215614  19.659   0.378  26.200  0.0365  0.3759 -0.2624
  651BOLB   GL315615  19.472   0.820  26.331  0.0519  0.0183  0.2870
  651BOLB   GL415616  19.656   1.100  26.383 -0.0798  0.0187 -0.3854
  651BOLB   C1C15617  19.162   1.108  26.357  0.1542 -0.2307  0.2464
  651BOLB   C2C15618  19.073   1.506  26.600 -0.1641  0.1267 -0.0053
  651BOLB   C3C15619  19.085   1.808  26.927 -0.2286  0.2914 -0.0518
  651BOLB   C4C15620  18.838   2.176  26.955  0.3040  0.0267 -0.1493
  651BOLB   C1D15621  19.901   1.539  26.270 -0.0240 -0.4036 -0.2446
  651BOLB   C2D15622  19.805   1.982  26.174  0.2767  0.0996 -0.3023
  651BOLB   C3D15623  19.465   2.003  25.911 -0.0248  0.0370  0.0502
  651BOLB   C4D15624  19.385   1.762  25.462 -0.3192 -0.0856 -0.1341
  652BOLB   NC115625  18.249  17.184  36.849 -0.1287  0.2323 -0.1365
  652BOLB   PO115626  18.223  17.647  37.050 -0.0248 -0.0706  0.3924
  652BOLB   GL115627  18.496  18.003  37.231  0.0184 -0.1439 -0.1510
  652BOLB   GL215628  18.441  17.900  37.579 -0.2602  0.3406  0.0039
  652BOLB   C1A15629  18.923  18.244  37.334  0.1196  0.0885 -0.0732
  652BOLB   C2A15630  19.305  18.465  37.323 -0.2107  0.3683 -0.2292
  652BOLB   C3A15631  19.688  18.468  37.632  0.0849 -0.0941 -0.2221
  652BOLB   C4A15632  19.914  18.741  37.893 -0.1682 -0.1295  0.1723
  652BOLB   C1B15633  18.671  18.149  37.768  0.1355 -0.1645  0.0118
  652BOLB   C2B15634  18.894  18.527  37.846 -0.2831 -0.2497  0.1049
  652BOLB   C3B15635  18.919  18.910  37.972  0.1723  0.0323  0.0720
  652BOLB   C4B15636  19.087  19.227  37.884  0.0046 -0.1829 -0.0528
  652BOLB   NC215637  20.504  20.437  39.640  0.0569  0.0121  0.0980
  652BOLB   PO215638  20.112  20.323  39.785 -0.0412 -0.0406 -0.1442
  652BOLB   GL315639  20.046  19.986  39.553  0.2674  0.0152  0.1360
  652BOLB   GL415640  20.189  19.642  39.525 -0.0073  0.0611 -0.1959
  652BOLB   C1C15641  19.658  19.768  39.348 -0.1570  0.1923  0.1396
  652BOLB   C2C15642  19.636  19.631  39.010 -0.0191  0.2008 -0.0628
  652BOLB   C3C15643  19.645  19.318  38.610  0.1699 -0.2813 -0.0413
  652BOLB   C4C15644  19.724  19.048  38.235  0.0317 -0.3873 -0.1363
  652BOLB   C1D15645  19.870  19.332  39.576  0.1391 -0.1172 -0.1829
  652BOLB   C2D15646  19.613  19.196  39.267  0.0802 -0.0224 -0.2269
  652BOLB   C3D15647  19.261  19.151  38.933  0.0706 -0.0967  0.3459
  652BOLB   C4D15648  18.952  18.883  38.833  0.0025  0.0003 -0.0832
  653BOLB   NC115649  19.898   5.044  25.939  0.0360  0.0139 -0.2374
  653BOLB   PO115650  20.191   4.883  26.002  0.1766  0.0835 -0.0131
  653BOLB   GL115651  20.519   4.677  25.827  0.0223  0.2222  0.1451
  653BOLB   GL215652  20.684   4.903  25.770 -0.0880 -0.4613  0.1010
  653BOLB   C1A15653  20.888   4.423  25.708 -0.1869  0.0270  0.0857
  653BOLB   C2A15654  21.206   4.191  25.679 -0.0985 -0.0586  0.1990
  653BOLB   C3A15655  21.569   4.044  25.540  0.0310  0.0506  0.0298
  653BOLB   C4A15656  21.992   4.019  25.717 -0.0839  0.1718  0.0560
  653BOLB   C1B15657  21.154   4.826  25.674  0.2005  0.2634 -0.1952
  653BOLB   C2B15658  21.582   4.626  25.591  0.0556  0.0166 -0.0086
  653BOLB   C3B15659  21.933   4.586  25.787  0.1717  0.1247 -0.1645
  653BOLB   C4B15660  22.332   4.387  25.870  0.2906 -0.1443 -0.2417
  653BOLB   NC215661  23.276   1.713  26.494 -0.3016 -0.2343  0.3239
  653BOLB   PO215662  23.423   1.897  26.836  0.1407  0.0383 -0.0293
  653BOLB   GL315663  23.417   2.407  26.667  0.0201 -0.1547 -0.0413
  653BOLB   GL415664  22.978   2.321  26.627  0.0844 -0.2366 -0.0789
  653BOLB   C1C15665  23.224   2.799  26.372 -0.0507  0.3014  0.0774
  653BOLB   C2C15666  22.955   3.160  26.069 -0.1158 -0.0285 -0.4819
  653BOLB   C3C15667  22.758   3.560  25.968  0.0140  0.0263  0.0761
  653BOLB   C4C15668  22.405   3.758  25.791  0.1313 -0.3775 -0.5046
  653BOLB   C1D15669  22.949   2.697  26.852  0.2833 -0.5708  0.2308
  653BOLB   C2D15670  22.665   3.002  27.000  0.0304 -0.2438 -0.0495
  653BOLB   C3D15671  22.305   3.245  26.731 -0.1713 -0.0328  0.1913
  653BOLB   C4D15672  22.154   3.621  26.704  0.0977  0.0681  0.1786
  654BOLB   NC115673  15.624  20.061  34.858  0.3253  0.0635 -0.0990
  654BOLB   PO115674  15.913  20.216  35.154 -0.2158 -0.1799  0.0340
  654BOLB   GL115675  15.845  20.617  35.224 -0.1380 -0.1181  0.0038
  654BOLB   GL215676  15.580  20.775  35.442 -0.5243  0.0200  0.1742
  654BOLB   C1A15677  16.044  20.916  35.255 -0.1678 -0.4325 -0.2967
  654BOLB   C2A15678  15.828  21.204  35.442  0.2424  0.3889 -0.1243
  654BOLB   C3A15679  15.534  21.365  35.520  0.1383 -0.0875  0.0633
  654BOLB   C4A15680  15.399  21.746  35.784  0.0112 -0.1394 -0.1229
  654BOLB   C1B15681  15.269  20.964  35.331  0.1710  0.3124 -0.0959
  654BOLB   C2B15682  14.925  20.814  35.459  0.1391  0.0428  0.0544
  654BOLB   C3B15683  14.688  20.696  35.849  0.2286  0.3172 -0.0875
  654BOLB   C4B15684  14.240  20.542  35.885  0.1355  0.1361  0.1090
  654BOLB   NC215685  15.932  23.965  36.543  0.2257  0.0354  0.2493
  654BOLB   PO215686  16.355  23.873  36.444 -0.0117  0.2516 -0.0599
  654BOLB   GL315687  16.206  23.656  36.174 -0.2289  0.1971 -0.0691
  654BOLB   GL415688  16.582  23.530  35.911  0.2432  0.4773 -0.0396
  654BOLB   C1C15689  16.044  23.193  36.176  0.1310  0.1293  0.4733
  654BOLB   C2C15690  15.888  22.799  36.201 -0.0261 -0.0432 -0.3449
  654BOLB   C3C15691  15.605  22.579  36.372 -0.0118  0.1478  0.0267
  654BOLB   C4C15692  15.526  22.179  36.107 -0.2881 -0.3563 -0.0653
  654BOLB   C1D15693  16.387  23.218  35.777 -0.0446 -0.0350 -0.0839
  654BOLB   C2D15694  16.210  22.852  35.872  0.2236  0.1742  0.0142
  654BOLB   C3D15695  15.956  22.457  35.796 -0.0531 -0.2738 -0.0741
  654BOLB   C4D15696  15.779  22.013  35.573 -0.1090  0.0762 -0.0095
  655BOLB   NC115697  18.875  19.113  30.059 -0.0871 -0.0431 -0.1823
  655BOLB   PO115698  19.156  18.823  29.782  0.2313 -0.0420 -0.2480
  655BOLB   GL115699  19.362  19.126  29.712 -0.0418 -0.0248 -0.3284
  655BOLB   GL215700  19.615  19.145  29.949  0.1848 -0.1852  0.1084
  655BOLB   C1A15701  19.363  19.596  29.758 -0.1930 -0.2611  0.2345
  655BOLB   C2A15702  19.461  20.025  29.620  0.1400 -0.1074  0.2547
  655BOLB   C3A15703  19.675  20.319  29.485  0.0121 -0.3056  0.4532
  655BOLB   C4A15704  19.711  20.698  29.413 -0.3446 -0.0641  0.1122
  655BOLB   C1B15705  19.887  19.482  29.699  0.2679  0.0528  0.2355
  655BOLB   C2B15706  20.003  19.824  29.504  0.0504 -0.0983  0.2902
  655BOLB   C3B15707  20.289  20.014  29.351 -0.1473 -0.0056  0.0343
  655BOLB   C4B15708  20.578  20.285  29.226  0.0234  0.0074 -0.1721
  655BOLB   NC215709  22.347  21.962  29.625 -0.0215  0.1442 -0.1517
  655BOLB   PO215710  22.015  21.653  29.730  0.2225  0.1378  0.1013
  655BOLB   GL315711  21.662  21.639  29.557 -0.0680  0.2160 -0.0363
  655BOLB   GL415712  21.353  21.842  29.553  0.2523 -0.0252  0.0886
  655BOLB   C1C15713  21.312  21.350  29.693 -0.1080 -0.2003  0.1861
  655BOLB   C2C15714  20.917  21.169  29.340 -0.2331 -0.0599 -0.1231
  655BOLB   C3C15715  20.513  21.166  29.145  0.4073  0.0486  0.0918
  655BOLB   C4C15716  20.107  21.037  29.304 -0.0808 -0.3700 -0.0453
  655BOLB   C1D15717  21.203  21.559  29.176 -0.2468  0.2231  0.0125
  655BOLB   C2D15718  20.782  21.583  29.083  0.0456  0.0681 -0.1311
  655BOLB   C3D15719  20.440  21.621  29.191  0.3273  0.2525  0.3342
  655BOLB   C4D15720  20.051  21.549  29.329 -0.0107 -0.0670  0.0732
  656BOLB   NC115721   8.238  14.797  26.879  0.6255 -0.0659 -0.0896
  656BOLB   PO115722   7.783  15.004  27.025 -0.1503  0.1228  0.0271
  656BOLB   GL115723   7.393  14.745  26.990  0.0413 -0.2078 -0.0591
  656BOLB   GL215724   7.373  14.954  26.759 -0.0527  0.0554 -0.0750
  656BOLB   C1A15725   6.973  14.677  26.741  0.1028  0.1183 -0.1971
  656BOLB   C2A15726   6.618  14.786  26.520 -0.2589  0.1441  0.1964
  656BOLB   C3A15727   6.483  15.074  26.358 -0.0175 -0.0420 -0.0166
  656BOLB   C4A15728   6.469  15.214  26.020  0.0773  0.2740 -0.1457
  656BOLB   C1B15729   7.081  15.230  26.518  0.1999  0.2795  0.1849
  656BOLB   C2B15730   6.791  15.485  26.423  0.1959  0.0741  0.2385
  656BOLB   C3B15731   6.420  15.711  26.171  0.1776  0.1327  0.0513
  656BOLB   C4B15732   6.082  15.625  25.897  0.0520  0.1452  0.3984
  656BOLB   NC215733   4.403  16.336  24.942 -0.1962  0.2007 -0.1500
  656BOLB   PO215734   4.625  16.044  25.091 -0.1338  0.2655  0.0575
  656BOLB   GL315735   5.030  15.964  24.904 -0.0950  0.1492 -0.0570
  656BOLB   GL415736   4.998  15.734  25.247 -0.2203  0.1211  0.2829
  656BOLB   C1C15737   5.509  15.868  25.137  0.0029  0.0274  0.0141
  656BOLB   C2C15738   5.884  15.854  25.149  0.0041  0.2898 -0.1339
  656BOLB   C3C15739   6.254  15.555  25.289 -0.0268  0.1141 -0.0105
  656BOLB   C4C15740   6.537  15.311  25.619 -0.1113 -0.0839 -0.2400
  656BOLB   C1D15741   5.146  15.925  25.644  0.1456 -0.0123 -0.2316
  656BOLB   C2D15742   5.429  15.999  25.958  0.3168  0.0859 -0.1660
  656BOLB   C3D15743   5.853  16.060  26.068 -0.0691 -0.0751 -0.2724
  656BOLB   C4D15744   6.357  16.167  25.990  0.1721  0.0823  0.0027
  657BOLB   NC115745  16.797   7.346  38.222 -0.3574 -0.0954  0.3002
  657BOLB   PO115746  16.655   7.769  38.316  0.0428  0.0071  0.3103
  657BOLB   GL115747  16.460   7.423  38.591 -0.0416 -0.0703 -0.1911
  657BOLB   GL215748  16.176   7.210  38.737 -0.0148 -0.0759  0.2897
  657BOLB   C1A15749  16.570   7.355  39.049  0.4083 -0.0209 -0.0030
  657BOLB   C2A15750  16.589   7.333  39.421  0.3153  0.2743  0.0321
  657BOLB   C3A15751  16.724   7.196  39.847  0.1710  0.3835  0.2448
  657BOLB   C4A15752  16.919   7.068  40.210 -0.0482 -0.3162  0.0121
  657BOLB   C1B15753  16.374   6.870  38.813 -0.2465 -0.3972 -0.1776
  657BOLB   C2B15754  16.699   6.902  39.012 -0.1271 -0.0990  0.0435
  657BOLB   C3B15755  16.767   6.880  39.482 -0.0758 -0.3053 -0.1636
  657BOLB   C4B15756  16.878   6.655  39.860  0.2240 -0.1607 -0.2940
  657BOLB   NC215757  16.705   5.480  41.888  0.0763 -0.1940  0.1369
  657BOLB   PO215758  16.603   5.070  41.716  0.1203 -0.1710 -0.3111
  657BOLB   GL315759  16.515   5.410  41.399 -0.3029  0.0781  0.2668
  657BOLB   GL415760  16.223   5.605  41.255  0.3302  0.1895 -0.0445
  657BOLB   C1C15761  16.747   5.679  41.101  0.0987  0.2457  0.4131
  657BOLB   C2C15762  16.912   6.005  40.896 -0.0382 -0.1857 -0.0159
  657BOLB   C3C15763  16.792   6.438  40.666 -0.3771  0.1786 -0.1887
  657BOLB   C4C15764  17.083   6.776  40.435 -0.0026  0.2424  0.2464
  657BOLB   C1D15765  15.921   5.833  41.026  0.3156  0.0666  0.2236
  657BOLB   C2D15766  15.904   5.780  40.517 -0.2317  0.1997  0.0461
  657BOLB   C3D15767  16.106   5.878  40.064  0.1660  0.0286  0.1035
  657BOLB   C4D15768  16.060   5.958  39.643 -0.1901 -0.4765  0.0893
  658BOLB   NC115769  12.344   8.424  22.585  0.1119 -0.0684  0.0988
  658BOLB   PO115770  12.291   8.197  22.978 -0.1289  0.1485  0.1011
  658BOLB   GL115771  11.863   8.215  22.867 -0.0540  0.1008  0.2223
  658BOLB   GL215772  11.651   8.440  22.750  0.0099  0.1474  0.3497
  658BOLB   C1A15773  11.585   7.999  22.654  0.2310 -0.0377  0.0815
  658BOLB   C2A15774  11.380   7.714  22.506 -0.0916 -0.1984  0.3626
  658BOLB   C3A15775  11.152   7.330  22.316 -0.2881 -0.0089 -0.1222
  658BOLB   C4A15776  10.689   7.289  22.139  0.0463 -0.1791 -0.1388
  658BOLB   C1B15777  11.160   8.413  22.640 -0.1155 -0.0399 -0.2292
  658BOLB   C2B15778  11.023   8.096  22.304 -0.1356  0.0804 -0.2977
  658BOLB   C3B15779  11.203   7.968  21.921 -0.2890  0.3279  0.1192
  658BOLB   C4B15780  11.460   7.865  21.569  0.2483 -0.0372  0.0890
  658BOLB   NC215781   8.977   5.258  21.046  0.2037 -0.4093 -0.0733
  658BOLB   PO215782   9.345   5.553  21.194 -0.2082 -0.3569 -0.0301
  658BOLB   GL315783   9.435   5.977  21.357 -0.5039  0.1921 -0.0093
  658BOLB   GL415784   9.554   5.976  21.584 -0.2781 -0.3700 -0.1273
  658BOLB   C1C15785   9.573   6.340  21.292 -0.2769  0.2604 -0.0534
  658BOLB   C2C15786   9.661   6.780  21.471 -0.1536 -0.1447 -0.1116
  658BOLB   C3C15787  10.047   6.995  21.652  0.1996 -0.0468  0.1199
  658BOLB   C4C15788  10.423   7.101  21.869 -0.1520  0.0120 -0.2022
  658BOLB   C1D15789   9.702   6.105  21.959  0.0244  0.0800  0.0091
  658BOLB   C2D15790   9.599   5.782  22.302 -0.2479 -0.0166  0.1455
  658BOLB   C3D15791   9.445   5.585  22.575 -0.3657  0.0700  0.2428
  658BOLB   C4D15792   9.317   5.613  23.040  0.1225 -0.1160  0.1185
  659BOLB   NC115793  23.753  10.091  29.791 -0.0372  0.2948 -0.0105
  659BOLB   PO115794  23.651   9.793  30.140  0.2323 -0.0325  0.1093
  659BOLB   GL115795  23.989   9.789  30.199  0.1540  0.2553 -0.1304
  659BOLB   GL215796  24.117   9.482  30.328  0.0941  0.1057  0.2071
  659BOLB   C1A15797  24.349   9.986  30.550  0.4256 -0.1662  0.2918
  659BOLB   C2A15798  24.684   9.732  30.830 -0.0639 -0.0197  0.0385
  659BOLB   C3A15799  24.974   9.640  30.984  0.3190 -0.0242 -0.0440
  659BOLB   C4A15800  25.386   9.429  30.999 -0.0800 -0.1107  0.1847
  659BOLB   C1B15801  24.549   9.459  30.426 -0.0300  0.1423 -0.1066
  659BOLB   C2B15802  24.935   9.607  30.379  0.0046 -0.1296  0.0131
  659BOLB   C3B15803  25.002   9.890  30.057  0.2902  0.1044  0.4580
  659BOLB   C4B15804  24.734  10.153  29.679 -0.2007 -0.1213 -0.2029
  659BOLB   NC215805   0.545   8.804  30.321  0.3456  0.1414 -0.0228
  659BOLB   PO215806   0.720   8.854  30.709  0.0369  0.0265  0.1827
  659BOLB   GL315807   0.396   9.115  30.850  0.2823  0.2663 -0.1662
  659BOLB   GL415808   0.209   9.358  30.601 -0.1500  0.1611 -0.1306
  659BOLB   C1C15809   0.108   9.253  31.197  0.0094  0.2186  0.1276
  659BOLB   C2C15810  26.652   9.264  31.169 -0.1318 -0.2311 -0.1387
  659BOLB   C3C15811  26.214   9.299  31.123  0.5032 -0.1058 -0.2215
  659BOLB   C4C15812  25.798   9.255  30.988  0.0616  0.4312  0.1673
  659BOLB   C1D15813  26.959   9.447  30.249 -0.0084 -0.1085  0.2259
  659BOLB   C2D15814  26.471   9.523  30.247 -0.1409 -0.1516 -0.0683
  659BOLB   C3D15815  25.971   9.687  30.126 -0.1277  0.3010  0.0591
  659BOLB   C4D15816  25.499   9.692  29.978 -0.1382 -0.2331 -0.1263
  660BOLB   NC115817   8.041  13.542  27.241  0.2289  0.0293  0.0003
  660BOLB   PO115818   7.864  13.890  26.962  0.2140  0.0127 -0.0814
  660BOLB   GL115819   7.508  13.753  26.792 -0.0773  0.1149  0.1402
  660BOLB   GL215820   7.621  13.953  26.522  0.2108  0.0145  0.0263
  660BOLB   C1A15821   7.153  13.788  26.993  0.0320  0.0873 -0.1893
  660BOLB   C2A15822   6.779  13.857  27.121 -0.0493  0.1387 -0.2606
  660BOLB   C3A15823   6.359  13.573  27.141  0.1019 -0.0456 -0.2506
  660BOLB   C4A15824   5.989  13.471  27.126 -0.0691  0.2540 -0.0115
  660BOLB   C1B15825   7.220  14.100  26.371  0.1910 -0.3051  0.1170
  660BOLB   C2B15826   6.827  14.248  26.183  0.0415  0.2850  0.1090
  660BOLB   C3B15827   6.377  14.307  26.236 -0.0619 -0.0409  0.3992
  660BOLB   C4B15828   5.877  14.389  26.398 -0.4147 -0.2917 -0.0076
  660BOLB   NC215829   3.670  14.848  26.759  0.1917  0.4010 -0.3159
  660BOLB   PO215830   3.830  14.520  26.823  0.0910 -0.0215 -0.0370
  660BOLB   GL315831   4.275  14.458  26.884 -0.1502  0.1517 -0.1349
  660BOLB   GL415832   4.417  14.254  26.758  0.2721 -0.1773 -0.1859
  660BOLB   C1C15833   4.563  14.449  27.181  0.1302  0.0630 -0.2959
  660BOLB   C2C15834   4.990  14.250  27.347  0.0519  0.0877 -0.0627
  660BOLB   C3C15835   5.375  14.009  27.494 -0.1174 -0.0701  0.0628
  660BOLB   C4C15836   5.715  13.620  27.461  0.1662  0.1470  0.2525
  660BOLB   C1D15837   4.709  13.979  26.980  0.3245  0.1154  0.2919
  660BOLB   C2D15838   5.120  13.790  27.087 -0.5016  0.0856 -0.2230
  660BOLB   C3D15839   5.531  13.645  26.917 -0.1202 -0.2475 -0.0819
  660BOLB   C4D15840   5.826  13.724  26.533  0.1129  0.0512  0.0059
  661BOLB   NC115841  13.499  10.912  39.226  0.2176 -0.5510 -0.1507
  661BOLB   PO115842  13.309  10.466  39.121  0.0412 -0.1779 -0.0433
  661BOLB   GL115843  13.109  10.647  39.529  0.1292 -0.0191 -0.1745
  661BOLB   GL215844  13.356  10.488  39.771  0.1301 -0.0919  0.0509
  661BOLB   C1A15845  12.911  10.494  39.928 -0.1418 -0.4067  0.1380
  661BOLB   C2A15846  12.866  10.476  40.342 -0.1735  0.0071 -0.1236
  661BOLB   C3A15847  12.799  10.533  40.760 -0.0799 -0.1187  0.1988
  661BOLB   C4A15848  12.982  10.722  41.139 -0.1211  0.4896 -0.1131
  661BOLB   C1B15849  13.361  10.588  40.238  0.2656 -0.1804 -0.1481
  661BOLB   C2B15850  13.416  10.617  40.730  0.0779 -0.2596  0.1132
  661BOLB   C3B15851  13.472  10.436  41.093 -0.1965 -0.2324 -0.4719
  661BOLB   C4B15852  13.497  10.065  41.453  0.0082 -0.1266  0.2415
  661BOLB   NC215853  13.343   9.941  44.021 -0.1060  0.0809 -0.1860
  661BOLB   PO215854  13.052  10.292  43.772 -0.0052 -0.0440  0.0992
  661BOLB   GL315855  13.024  10.324  43.305 -0.1897  0.2176  0.1033
  661BOLB   GL415856  13.375  10.168  43.166 -0.0579 -0.1470 -0.0482
  661BOLB   C1C15857  13.002  10.288  42.781  0.3559  0.0223 -0.3849
  661BOLB   C2C15858  12.887  10.484  42.386 -0.2130 -0.0472 -0.1887
  661BOLB   C3C15859  12.780  10.558  41.956  0.3659  0.2690 -0.2010
  661BOLB   C4C15860  12.828  10.712  41.497  0.1487  0.1952  0.1723
  661BOLB   C1D15861  13.487  10.139  42.670  0.0635 -0.3566  0.0341
  661BOLB   C2D15862  13.429  10.431  42.344 -0.0400 -0.1278 -0.0534
  661BOLB   C3D15863  13.525  10.778  42.113  0.0729  0.1838 -0.3427
  661BOLB   C4D15864  13.936  10.893  41.978 -0.0341  0.0468  0.0366
  662BOLB   NC115865  22.111   8.129  25.619 -0.1051 -0.1151  0.0971
  662BOLB   PO115866  22.320   7.956  25.277  0.2544 -0.1306  0.2049
  662BOLB   GL115867  22.753   8.002  25.304 -0.0876 -0.0272 -0.2746
  662BOLB   GL215868  23.008   8.122  25.601  0.0257  0.1747 -0.1520
  662BOLB   C1A15869  23.014   7.679  25.092 -0.2608  0.1585  0.1795
  662BOLB   C2A15870  23.298   7.435  24.719 -0.4885 -0.2257 -0.0293
  662BOLB   C3A15871  23.670   7.350  24.541  0.0421  0.0867 -0.0688
  662BOLB   C4A15872  23.955   7.444  24.278 -0.4277 -0.0727  0.0607
  662BOLB   C1B15873  23.275   7.800  25.514  0.1715 -0.0913 -0.1097
  662BOLB   C2B15874  23.548   7.464  25.580 -0.0450 -0.0824  0.0282
  662BOLB   C3B15875  23.459   7.280  25.143 -0.2803  0.2603 -0.0452
  662BOLB   C4B15876  23.388   6.827  25.039 -0.2472 -0.0039  0.0225
  662BOLB   NC215877  26.541   7.009  23.627  0.2167 -0.1138 -0.2145
  662BOLB   PO215878  26.342   6.659  23.956  0.0678  0.1233 -0.2394
  662BOLB   GL315879  26.009   6.678  24.140  0.2275  0.1711  0.1797
  662BOLB   GL415880  25.846   6.703  24.395  0.0525 -0.1064 -0.0644
  662BOLB   C1C15881  25.591   6.873  24.008 -0.3459  0.1009  0.1423
  662BOLB   C2C15882  25.250   7.121  24.111 -0.0394  0.0241  0.1734
  662BOLB   C3C15883  24.856   7.281  24.300  0.0354 -0.0951  0.2129
  662BOLB   C4C15884  24.514   7.597  24.245 -0.1946  0.0364  0.1309
  662BOLB   C1D15885  25.522   6.887  24.467 -0.1609 -0.0281 -0.1762
  662BOLB   C2D15886  25.022   6.929  24.543 -0.1643 -0.3270  0.0280
  662BOLB   C3D15887  24.540   6.957  24.638 -0.2865 -0.1020 -0.0215
  662BOLB   C4D15888  24.234   7.261  24.818  0.0763  0.0263 -0.0992
  663BOLB   NC115889  18.657  10.251  39.432 -0.0502 -0.2106 -0.2400
  663BOLB   PO115890  18.303  10.549  39.353 -0.1735 -0.1096 -0.1680
  663BOLB   GL115891  18.349  10.481  39.759  0.3852 -0.1405 -0.0848
  663BOLB   GL215892  18.070  10.340  39.978 -0.1161  0.1222  0.0054
  663BOLB   C1A15893  18.521  10.458  40.264 -0.4128  0.1059 -0.2152
  663BOLB   C2A15894  18.474  10.324  40.718  0.1205  0.1375 -0.2961
  663BOLB   C3A15895  18.576  10.393  41.185 -0.0072 -0.2026  0.0133
  663BOLB   C4A15896  18.504  10.128  41.508 -0.2648  0.1395 -0.0563
  663BOLB   C1B15897  18.012  10.273  40.351 -0.2506 -0.0460 -0.1036
  663BOLB   C2B15898  17.928  10.181  40.748  0.2724  0.2137 -0.0681
  663BOLB   C3B15899  17.561   9.972  41.064 -0.0546 -0.0570 -0.0113
  663BOLB   C4B15900  17.358   9.870  41.415  0.0986  0.1349  0.4940
  663BOLB   NC215901  17.903   9.629  44.147  0.0560  0.1097 -0.0474
  663BOLB   PO215902  17.743   9.807  43.737 -0.1443  0.0806  0.1432
  663BOLB   GL315903  17.488   9.852  43.379 -0.4979 -0.0426 -0.0670
  663BOLB   GL415904  17.393  10.211  43.449  0.0827 -0.1496  0.0383
  663BOLB   C1C15905  17.531  10.100  42.958 -0.1884  0.1921 -0.1841
  663BOLB   C2C15906  17.820  10.180  42.595 -0.0840  0.1891 -0.1652
  663BOLB   C3C15907  17.875  10.299  42.146  0.0539 -0.0441 -0.1993
  663BOLB   C4C15908  18.250  10.188  41.993 -0.0086 -0.0603 -0.0148
  663BOLB   C1D15909  17.245  10.447  43.063 -0.0951 -0.1038  0.0393
  663BOLB   C2D15910  17.266  10.497  42.628 -0.3808 -0.2136  0.0275
  663BOLB   C3D15911  17.297  10.687  42.157 -0.1986 -0.0392 -0.1577
  663BOLB   C4D15912  17.355  11.055  41.931  0.3626 -0.1305  0.0073
  664BOLB   NC115913  22.435   7.609  32.726  0.1303  0.1426 -0.0130
  664BOLB   PO115914  22.230   7.462  33.110 -0.0579  0.1686 -0.1552
  664BOLB   GL115915  22.373   7.365  33.407 -0.0010  0.0071 -0.2371
  664BOLB   GL215916  22.469   7.705  33.496 -0.4399  0.0509  0.0655
  664BOLB   C1A15917  22.736   7.097  33.518 -0.3194  0.1633  0.1942
  664BOLB   C2A15918  23.061   6.720  33.474 -0.2035  0.0458  0.1931
  664BOLB   C3A15919  23.164   6.435  33.174 -0.1684  0.0877  0.2715
  664BOLB   C4A15920  23.309   6.025  33.090 -0.0515  0.1230  0.2576
  664BOLB   C1B15921  22.916   7.553  33.600  0.0847 -0.1597 -0.1652
  664BOLB   C2B15922  23.197   7.249  33.320  0.0340  0.2657 -0.0610
  664BOLB   C3B15923  23.012   6.974  33.023  0.1478  0.0368 -0.0406
  664BOLB   C4B15924  23.049   6.596  32.721 -0.1105  0.0413 -0.1229
  664BOLB   NC215925  25.523   5.260  34.005 -0.2200 -0.0636  0.1757
  664BOLB   PO215926  25.360   4.970  33.747  0.1261 -0.1553 -0.0313
  664BOLB   GL315927  25.087   5.336  33.767  0.1354 -0.2412 -0.1047
  664BOLB   GL415928  25.359   5.557  33.594  0.1124  0.1587 -0.2805
  664BOLB   C1C15929  24.636   5.670  33.927  0.1470  0.3256 -0.0969
  664BOLB   C2C15930  24.221   5.606  33.724  0.1987 -0.0539  0.0290
  664BOLB   C3C15931  23.929   5.726  33.522 -0.1754  0.0285  0.3254
  664BOLB   C4C15932  23.775   5.861  33.162 -0.3175 -0.0104 -0.0731
  664BOLB   C1D15933  24.903   5.772  33.514  0.1288  0.1515 -0.0744
  664BOLB   C2D15934  24.529   5.986  33.501 -0.1860  0.0996  0.1674
  664BOLB   C3D15935  24.210   6.073  33.179  0.2879 -0.1288  0.2803
  664BOLB   C4D15936  23.815   6.376  33.115 -0.0268 -0.2914 -0.0489
  665BOLB   NC115937  25.409  14.079  19.259  0.0743  0.0986  0.0563
  665BOLB   PO115938  25.046  13.788  19.121 -0.0101  0.1342  0.1177
  665BOLB   GL115939  24.747  13.613  19.392 -0.0431  0.0511  0.1923
  665BOLB   GL215940  24.835  13.680  19.708 -0.0866  0.1029 -0.2999
  665BOLB   C1A15941  24.258  13.838  19.525  0.0689 -0.0236 -0.3356
  665BOLB   C2A15942  23.899  14.113  19.690 -0.1060  0.0054  0.1144
  665BOLB   C3A15943  23.603  14.337  19.484  0.1056 -0.3953 -0.0209
  665BOLB   C4A15944  23.567  14.468  19.060  0.1377  0.3789  0.0417
  665BOLB   C1B15945  24.734  13.557  20.156 -0.3733 -0.2497 -0.1495
  665BOLB   C2B15946  24.344  13.248  20.280  0.0031  0.1455  0.0673
  665BOLB   C3B15947  23.955  13.125  20.065  0.3183  0.1780 -0.0140
  665BOLB   C4B15948  24.013  13.008  19.654 -0.0189  0.0458  0.0319
  665BOLB   NC215949  23.647  15.501  17.723  0.2258  0.2341 -0.0249
  665BOLB   PO215950  23.379  15.880  17.970  0.0542  0.0056 -0.1368
  665BOLB   GL315951  23.032  15.704  18.075 -0.0046 -0.0114  0.1526
  665BOLB   GL415952  22.801  15.734  17.767 -0.5406 -0.1758  0.2364
  665BOLB   C1C15953  23.000  15.312  18.338 -0.1413  0.0847 -0.2751
  665BOLB   C2C15954  23.293  14.974  18.395 -0.1846  0.1322 -0.0434
  665BOLB   C3C15955  23.459  14.627  18.401 -0.0710 -0.0206  0.0731
  665BOLB   C4C15956  23.572  14.373  18.662 -0.0891 -0.2659 -0.3199
  665BOLB   C1D15957  22.626  15.412  17.918  0.1835 -0.0516  0.2400
  665BOLB   C2D15958  22.412  15.211  18.211 -0.0575 -0.0457 -0.0944
  665BOLB   C3D15959  22.125  15.072  18.240 -0.2852  0.1710 -0.1574
  665BOLB   C4D15960  21.819  14.713  18.080 -0.0178  0.2107  0.0427
  666BOLB   NC115961  13.525   8.246  22.065 -0.2408  0.0210  0.1322
  666BOLB   PO115962  13.396   8.730  22.070 -0.0548 -0.2350 -0.1277
  666BOLB   GL115963  13.105   8.488  21.943 -0.0433  0.3770  0.2161
  666BOLB   GL215964  13.034   8.730  21.698  0.0666  0.0086 -0.1404
  666BOLB   C1A15965  12.954   8.192  21.697 -0.1581 -0.1077 -0.1552
  666BOLB   C2A15966  12.595   7.812  21.704  0.3021 -0.2756 -0.0905
  666BOLB   C3A15967  12.364   7.648  21.490 -0.0049  0.0348  0.0785
  666BOLB   C4A15968  11.801   7.522  21.492 -0.0625  0.0524 -0.1082
  666BOLB   C1B15969  12.921   8.643  21.274 -0.2253 -0.2490 -0.3875
  666BOLB   C2B15970  12.694   8.493  20.996 -0.0335 -0.0048  0.1588
  666BOLB   C3B15971  12.572   8.297  20.709  0.1764 -0.2019  0.3220
  666BOLB   C4B15972  12.531   8.120  20.331  0.3304  0.3303  0.0129
  666BOLB   NC215973   9.907   6.426  20.250 -0.0042  0.0080  0.4005
  666BOLB   PO215974  10.205   6.649  19.931 -0.0903  0.0747  0.2523
  666BOLB   GL315975  10.564   6.734  20.047  0.1269 -0.0560 -0.0430
  666BOLB   GL415976  10.714   7.047  19.992 -0.5478  0.2804 -0.0910
  666BOLB   C1C15977  10.703   6.819  20.544 -0.3168 -0.1560 -0.0696
  666BOLB   C2C15978  11.097   6.839  20.788  0.0719  0.3261 -0.0625
  666BOLB   C3C15979  11.264   6.882  21.202  0.1320  0.1616 -0.0896
  666BOLB   C4C15980  11.489   7.195  21.505  0.3460  0.2403  0.1506
  666BOLB   C1D15981  10.988   7.204  20.340  0.1562  0.1788  0.2023
  666BOLB   C2D15982  11.299   7.644  20.391  0.3501  0.2287  0.0943
  666BOLB   C3D15983  11.644   7.787  20.649 -0.0258  0.0823  0.1340
  666BOLB   C4D15984  11.873   7.687  20.900  0.2757  0.0350 -0.1090
  667BOLB   NC115985  20.639  18.054  31.840 -0.2317 -0.2009 -0.0281
  667BOLB   PO115986  20.306  18.065  32.247 -0.0573  0.1545  0.0423
  667BOLB   GL115987  20.525  18.459  32.293 -0.0383  0.0676 -0.0380
  667BOLB   GL215988  20.793  18.518  32.421 -0.2484  0.0679  0.0211
  667BOLB   C1A15989  20.496  18.883  32.375 -0.1727 -0.2792 -0.0659
  667BOLB   C2A15990  20.588  19.357  32.332  0.0156  0.1166  0.0444
  667BOLB   C3A15991  20.825  19.692  32.197 -0.0743 -0.0444  0.1227
  667BOLB   C4A15992  20.730  20.023  32.403 -0.1277 -0.1587  0.2870
  667BOLB   C1B15993  21.119  18.743  32.468 -0.2435  0.0488 -0.0970
  667BOLB   C2B15994  21.413  18.978  32.608 -0.1771  0.1051  0.1808
  667BOLB   C3B15995  21.569  19.403  32.713  0.0154 -0.2952  0.0040
  667BOLB   C4B15996  21.836  19.731  32.962  0.0664 -0.1702  0.0092
  667BOLB   NC215997  22.554  22.099  32.828 -0.0719 -0.0321 -0.0423
  667BOLB   PO215998  22.491  21.746  33.094 -0.1793  0.2467  0.3280
  667BOLB   GL315999  22.326  21.577  32.701 -0.2398 -0.0545  0.1495
  667BOLB   GL416000  22.463  21.717  32.453 -0.1378 -0.3049  0.4324
  667BOLB   C1C16001  21.895  21.382  32.527 -0.0805 -0.2011 -0.2683
  667BOLB   C2C16002  21.496  21.178  32.528  0.3720 -0.2855  0.1556
  667BOLB   C3C16003  21.110  20.849  32.427 -0.1881 -0.0110  0.0233
  667BOLB   C4C16004  20.783  20.475  32.262 -0.0546  0.1437  0.1985
  667BOLB   C1D16005  22.249  21.514  32.109  0.1376 -0.0629  0.2572
  667BOLB   C2D16006  21.923  21.242  32.033 -0.0957 -0.0329 -0.0802
  667BOLB   C3D16007  21.668  20.829  32.220  0.0015 -0.0995  0.3384
  667BOLB   C4D16008  21.375  20.421  32.218  0.4462  0.1724  0.2937
  668BOLB   NC116009  15.884   6.514  36.986  0.1379 -0.1178 -0.2076
  668BOLB   PO116010  15.879   6.955  37.234  0.4076 -0.0287  0.2660
  668BOLB   GL116011  15.841   6.635  37.474  0.0227  0.0246 -0.1339
  668BOLB   GL216012  16.189   6.554  37.634  0.0442  0.1233  0.1720
  668BOLB   C1A16013  15.792   6.290  37.816 -0.0953 -0.0216  0.2559
  668BOLB   C2A16014  15.957   5.873  38.062  0.2532 -0.1261 -0.1159
  668BOLB   C3A16015  16.033   5.596  38.358  0.1392  0.1633 -0.1849
  668BOLB   C4A16016  15.936   5.326  38.764  0.3581  0.1084  0.1097
  668BOLB   C1B16017  16.138   6.014  37.496  0.1476 -0.0079 -0.1221
  668BOLB   C2B16018  16.510   5.720  37.371  0.2220  0.0918 -0.3981
  668BOLB   C3B16019  16.697   5.341  37.600  0.1632 -0.2956 -0.0761
  668BOLB   C4B16020  16.755   5.080  37.903  0.0338  0.1094  0.1068
  668BOLB   NC216021  15.457   4.308  40.573  0.2950 -0.1474  0.1180
  668BOLB   PO216022  15.211   4.040  40.444  0.0438 -0.0045  0.3973
  668BOLB   GL316023  15.271   4.223  40.025  0.2222  0.1208 -0.2267
  668BOLB   GL416024  15.390   4.465  40.099  0.1639 -0.1959 -0.0184
  668BOLB   C1C16025  15.200   4.211  39.582 -0.0640 -0.1083 -0.0420
  668BOLB   C2C16026  15.264   4.495  39.262  0.1490  0.1482  0.0263
  668BOLB   C3C16027  15.702   4.705  39.102 -0.2970 -0.2192  0.0076
  668BOLB   C4C16028  16.013   4.941  38.920  0.0206  0.0984 -0.1958
  668BOLB   C1D16029  15.623   4.429  39.668 -0.1784 -0.4049  0.0096
  668BOLB   C2D16030  15.824   4.252  39.251 -0.1740 -0.2619 -0.2268
  668BOLB   C3D16031  16.141   4.490  39.098  0.0833  0.3268 -0.1258
  668BOLB   C4D16032  16.698   4.317  38.997 -0.3195  0.3492  0.0880
  669BOLB   NC116033  13.331  19.178  24.846 -0.0998 -0.2743 -0.1675
  669BOLB   PO116034  13.181  19.538  24.505 -0.1368  0.0103 -0.1037
  669BOLB   GL116035  13.015  19.840  24.130 -0.2005 -0.0345 -0.0693
  669BOLB   GL216036  12.751  19.831  23.917 -0.3441  0.0428  0.0042
  669BOLB   C1A16037  13.075  20.200  23.831  0.3494  0.5023  0.0833
  669BOLB   C2A16038  12.954  20.591  23.652 -0.1218  0.0982 -0.0192
  669BOLB   C3A16039  12.773  20.874  23.337  0.0805  0.1783  0.3677
  669BOLB   C4A16040  12.697  21.305  23.239 -0.1079 -0.0304  0.2158
  669BOLB   C1B16041  12.504  20.249  23.896  0.1326 -0.0932  0.1406
  669BOLB   C2B16042  12.316  20.541  23.715 -0.3630 -0.1991 -0.0073
  669BOLB   C3B16043  12.267  21.012  23.531  0.0918  0.5057 -0.1660
  669BOLB   C4B16044  12.161  21.320  23.291  0.0927  0.1953  0.0784
  669BOLB   NC216045  12.535  23.192  21.407  0.1668  0.4691 -0.0662
  669BOLB   PO216046  12.855  22.903  21.390 -0.1537 -0.1104 -0.2439
  669BOLB   GL316047  12.923  22.660  21.892  0.0454 -0.1754  0.1972
  669BOLB   GL416048  12.989  22.875  22.169 -0.1749  0.0085  0.1361
  669BOLB   C1C16049  13.062  22.366  22.178  0.0308 -0.0346 -0.0494
  669BOLB   C2C16050  12.905  22.223  22.489  0.1165  0.0948  0.1664
  669BOLB   C3C16051  12.963  22.092  22.893 -0.0135  0.2202 -0.1750
  669BOLB   C4C16052  12.778  21.762  23.117 -0.0267  0.0088  0.1232
  669BOLB   C1D16053  13.098  22.784  22.523 -0.0595 -0.2303 -0.0045
  669BOLB   C2D16054  13.265  22.468  22.758  0.0389  0.1457 -0.1021
  669BOLB   C3D16055  13.222  22.394  23.190 -0.2685 -0.0463 -0.0089
  669BOLB   C4D16056  13.334  22.139  23.436 -0.0105 -0.2744  0.0965
  670BOLB   NC116057  10.250  16.442  24.127 -0.0668 -0.0851 -0.1811
  670BOLB   PO116058   9.966  16.732  24.153 -0.1187 -0.1281  0.3004
  670BOLB   GL116059   9.522  16.861  24.008  0.1758 -0.0521 -0.4193
  670BOLB   GL216060   9.318  16.637  24.198 -0.2757  0.1383  0.0654
  670BOLB   C1A16061   9.149  16.990  23.793  0.1837 -0.2501  0.3363
  670BOLB   C2A16062   8.752  16.979  23.560  0.0816  0.0681 -0.2047
  670BOLB   C3A16063   8.360  16.742  23.476 -0.0627 -0.0940 -0.0200
  670BOLB   C4A16064   8.241  16.251  23.369 -0.1800  0.2393 -0.1242
  670BOLB   C1B16065   8.887  16.635  23.970 -0.1782 -0.0720  0.1859
  670BOLB   C2B16066   8.571  16.779  23.983  0.4439 -0.3254  0.1356
  670BOLB   C3B16067   8.264  17.079  23.875  0.2334 -0.2312 -0.3812
  670BOLB   C4B16068   7.784  17.284  24.023 -0.0744 -0.0805  0.0630
  670BOLB   NC216069   5.957  16.379  22.276  0.1250  0.1463  0.0430
  670BOLB   PO216070   5.881  16.267  22.757  0.2367  0.0598  0.2493
  670BOLB   GL316071   6.277  16.120  22.795  0.0250 -0.1444  0.0049
  670BOLB   GL416072   6.205  15.900  23.116  0.0431  0.2393 -0.0345
  670BOLB   C1C16073   6.691  16.112  22.900 -0.1096  0.0667  0.1781
  670BOLB   C2C16074   7.023  16.040  23.030 -0.1195 -0.2433 -0.1419
  670BOLB   C3C16075   7.397  16.096  23.247  0.2949 -0.1423 -0.2123
  670BOLB   C4C16076   7.815  16.017  23.300 -0.2719 -0.3320 -0.2141
  670BOLB   C1D16077   6.633  15.855  23.378  0.2630  0.1540  0.0501
  670BOLB   C2D16078   7.041  15.993  23.729  0.0750  0.1662  0.2909
  670BOLB   C3D16079   6.926  16.394  23.920 -0.1160 -0.1323  0.3138
  670BOLB   C4D16080   6.431  16.456  23.955 -0.1099  0.1705  0.0230
  671BOLB   NC116081   7.693   5.787  37.910  0.1030 -0.1463  0.1856
  671BOLB   PO116082   7.880   6.280  38.115  0.3958  0.0164 -0.0342
  671BOLB   GL116083   8.327   6.324  38.016  0.1099  0.2991 -0.2739
  671BOLB   GL216084   8.662   6.425  38.192  0.2032 -0.0808  0.1011
  671BOLB   C1A16085   8.613   6.087  37.747 -0.1390 -0.0472 -0.1385
  671BOLB   C2A16086   8.718   6.058  37.276 -0.0535 -0.0566  0.0268
  671BOLB   C3A16087   8.875   6.434  37.092 -0.1197 -0.0440 -0.0305
  671BOLB   C4A16088   8.689   6.612  36.647  0.1964  0.1316  0.0609
  671BOLB   C1B16089   8.874   6.752  37.891 -0.1147  0.2724  0.3351
  671BOLB   C2B16090   9.079   6.921  37.652 -0.2165  0.2828  0.3455
  671BOLB   C3B16091   9.419   6.887  37.364  0.2542  0.0995 -0.1963
  671BOLB   C4B16092   9.720   7.297  37.202 -0.0527  0.2186  0.1194
  671BOLB   NC216093   7.502   4.655  35.974  0.0898  0.1611 -0.0319
  671BOLB   PO216094   7.436   5.096  36.036 -0.2149 -0.0442 -0.0020
  671BOLB   GL316095   7.776   5.392  36.093  0.1142  0.2549  0.0444
  671BOLB   GL416096   8.035   5.356  36.030  0.1669  0.0749  0.0151
  671BOLB   C1C16097   7.956   5.825  36.149  0.1794 -0.2930  0.0696
  671BOLB   C2C16098   8.226   6.052  35.897 -0.2383  0.0569  0.2407
  671BOLB   C3C16099   8.500   6.425  35.927  0.2864  0.0069 -0.0110
  671BOLB   C4C16100   8.501   6.708  36.232 -0.2639 -0.2309  0.3989
  671BOLB   C1D16101   8.415   5.517  35.813 -0.0638 -0.0448 -0.1040
  671BOLB   C2D16102   8.757   5.867  35.772 -0.1670  0.3647  0.1013
  671BOLB   C3D16103   8.923   6.230  35.832 -0.0691  0.0442  0.0643
  671BOLB   C4D16104   9.100   6.528  35.594 -0.0380  0.1815  0.2614
  672BOLB   NC116105  15.992  20.564  18.242  0.1615  0.0576 -0.2152
  672BOLB   PO116106  16.344  20.519  18.356 -0.1597  0.3183 -0.0946
  672BOLB   GL116107  16.175  20.251  18.628 -0.1747  0.3019  0.3147
  672BOLB   GL216108  15.907  20.130  18.483  0.1943 -0.3105 -0.1585
  672BOLB   C1A16109  15.835  20.170  18.968  0.1380 -0.1946 -0.1096
  672BOLB   C2A16110  15.747  19.926  19.379 -0.0939  0.0761 -0.1752
  672BOLB   C3A16111  15.415  20.083  19.680  0.0206 -0.1246 -0.0119
  672BOLB   C4A16112  15.407  20.140  20.163 -0.3867  0.1719 -0.2444
  672BOLB   C1B16113  15.601  19.840  18.641 -0.2859 -0.1554 -0.1206
  672BOLB   C2B16114  15.427  19.537  18.475 -0.1260 -0.2332 -0.2195
  672BOLB   C3B16115  15.503  19.296  18.160  0.0960  0.2352  0.0816
  672BOLB   C4B16116  15.794  19.175  18.008  0.0880  0.0546  0.0839
  672BOLB   NC216117  17.125  21.590  18.966  0.0146 -0.1566  0.1401
  672BOLB   PO216118  17.385  21.293  19.251 -0.0886  0.2793  0.2009
  672BOLB   GL316119  17.331  21.248  19.621  0.0205  0.4788 -0.0226
  672BOLB   GL416120  17.382  21.402  19.951 -0.0018  0.3028 -0.2560
  672BOLB   C1C16121  16.892  21.035  19.742 -0.0108 -0.2398 -0.1002
  672BOLB   C2C16122  16.438  20.887  19.951 -0.0289  0.0190  0.2355
  672BOLB   C3C16123  16.190  20.661  20.272 -0.2645 -0.0429  0.1855
  672BOLB   C4C16124  15.754  20.459  20.283 -0.1893  0.2183 -0.1385
  672BOLB   C1D16125  17.162  21.158  20.266 -0.2855  0.2047 -0.1858
  672BOLB   C2D16126  17.066  20.716  20.203  0.1580 -0.1663  0.2080
  672BOLB   C3D16127  16.724  20.419  20.103  0.1128  0.0502  0.0717
  672BOLB   C4D16128  16.340  20.215  20.258  0.1647  0.0910 -0.2013
  673BOLB   NC116129  10.324  16.970  24.382  0.0514  0.3775  0.0005
  673BOLB   PO116130  10.470  17.405  24.395  0.1054  0.1898  0.1406
  673BOLB   GL116131  10.219  17.367  23.953 -0.0222 -0.1193  0.2277
  673BOLB   GL216132  10.070  17.126  23.850 -0.2162 -0.0291 -0.0634
  673BOLB   C1A16133   9.959  17.621  23.623 -0.1090 -0.0086 -0.1094
  673BOLB   C2A16134   9.620  17.740  23.331 -0.5485  0.0617 -0.1644
  673BOLB   C3A16135   9.237  17.781  23.234 -0.1019  0.0415 -0.1735
  673BOLB   C4A16136   8.723  17.700  23.134  0.0244  0.0097  0.1249
  673BOLB   C1B16137   9.682  17.257  23.800 -0.0013 -0.2845 -0.0764
  673BOLB   C2B16138   9.379  17.379  23.501  0.1165  0.1380  0.3011
  673BOLB   C3B16139   8.999  17.305  23.314 -0.0978  0.0864  0.2968
  673BOLB   C4B16140   9.110  16.956  23.111 -0.2375 -0.3345  0.1668
  673BOLB   NC216141   6.585  16.918  22.342 -0.0695  0.1557 -0.0843
  673BOLB   PO216142   6.627  17.402  22.432 -0.2665  0.3028 -0.2444
  673BOLB   GL316143   7.015  17.292  22.197 -0.0532 -0.3491 -0.0830
  673BOLB   GL416144   7.111  16.953  22.263  0.1362  0.3171 -0.0301
  673BOLB   C1C16145   7.403  17.319  22.355  0.2349 -0.1935  0.1365
  673BOLB   C2C16146   7.662  17.356  22.706 -0.1136  0.2410 -0.2345
  673BOLB   C3C16147   8.044  17.519  22.778 -0.1188 -0.3239 -0.0786
  673BOLB   C4C16148   8.336  17.781  22.938 -0.6783 -0.0903  0.3156
  673BOLB   C1D16149   7.374  16.674  22.562  0.0398  0.0159  0.1995
  673BOLB   C2D16150   7.740  16.821  22.740 -0.1202  0.1607  0.1550
  673BOLB   C3D16151   8.104  16.862  22.972  0.2344 -0.1260  0.0064
  673BOLB   C4D16152   8.521  17.019  22.971  0.2968  0.0474  0.0179
  674BOLB   NC116153   8.906  17.927  33.934 -0.2272 -0.2215  0.1296
  674BOLB   PO116154   8.917  18.341  33.737 -0.3108  0.0099  0.0704
  674BOLB   GL116155   8.736  18.738  33.877 -0.3646 -0.1017  0.2613
  674BOLB   GL216156   8.487  18.702  33.833  0.0488 -0.0366  0.0256
  674BOLB   C1A16157   8.551  19.047  34.220  0.1393  0.0493  0.0205
  674BOLB   C2A16158   8.355  18.975  34.571 -0.1546 -0.1523 -0.0470
  674BOLB   C3A16159   8.031  18.779  34.729  0.2305  0.0153 -0.2098
  674BOLB   C4A16160   7.557  18.635  34.884  0.2426 -0.0238 -0.3217
  674BOLB   C1B16161   8.142  18.629  34.147  0.2135 -0.0403  0.2252
  674BOLB   C2B16162   7.770  18.571  34.400  0.1126 -0.3304  0.2134
  674BOLB   C3B16163   7.472  18.263  34.597 -0.1657  0.4178 -0.1409
  674BOLB   C4B16164   7.269  18.116  34.968  0.1343 -0.0970 -0.0131
  674BOLB   NC216165   5.382  19.451  35.206 -0.0768  0.3383 -0.0759
  674BOLB   PO216166   5.289  19.239  34.776 -0.0950 -0.3115  0.3130
  674BOLB   GL316167   5.603  19.061  34.932 -0.0465  0.1840  0.0340
  674BOLB   GL416168   5.674  18.858  35.201 -0.0575 -0.2376  0.1574
  674BOLB   C1C16169   5.991  18.900  34.847 -0.3622 -0.1794 -0.0938
  674BOLB   C2C16170   6.383  18.890  34.781 -0.0907 -0.1318  0.1893
  674BOLB   C3C16171   6.791  18.782  34.572  0.2212 -0.0574  0.3188
  674BOLB   C4C16172   7.254  18.687  34.750 -0.0201 -0.0082 -0.0121
  674BOLB   C1D16173   6.165  19.036  35.243  0.2725  0.1671 -0.1231
  674BOLB   C2D16174   6.351  19.446  35.290  0.1810  0.0633  0.0745
  674BOLB   C3D16175   6.674  19.788  35.307  0.1465  0.1621 -0.2182
  674BOLB   C4D16176   6.731  20.170  35.260 -0.2866 -0.5747 -0.0851
  675BOLB   NC116177   9.850  18.420  26.073 -0.2280 -0.0820  0.0575
  675BOLB   PO116178  10.273  18.554  25.964 -0.3194  0.1040  0.0218
  675BOLB   GL116179  10.085  18.782  25.765 -0.1696 -0.2547  0.0067
  675BOLB   GL216180   9.815  18.885  25.904  0.0566  0.1501  0.0274
  675BOLB   C1A16181   9.757  18.936  25.444  0.2572 -0.0731  0.0192
  675BOLB   C2A16182   9.453  19.167  25.207 -0.1321  0.0002  0.2429
  675BOLB   C3A16183   9.022  19.501  25.204 -0.0966 -0.4655  0.3692
  675BOLB   C4A16184   8.984  19.888  25.122  0.0138  0.2162 -0.1971
  675BOLB   C1B16185   9.405  19.055  25.856 -0.3291  0.0460 -0.1123
  675BOLB   C2B16186   9.033  19.190  25.605  0.1756  0.1295  0.4204
  675BOLB   C3B16187   8.619  19.218  25.425  0.2354  0.1085 -0.0682
  675BOLB   C4B16188   8.235  19.204  25.579 -0.2755  0.0633  0.1435
  675BOLB   NC216189   7.775  22.069  24.252 -0.0006  0.2436 -0.2447
  675BOLB   PO216190   8.266  22.086  24.229  0.0301  0.4464 -0.2719
  675BOLB   GL316191   8.455  21.882  24.549 -0.2932  0.3819  0.0319
  675BOLB   GL416192   8.356  22.117  24.814 -0.2856 -0.2048  0.1036
  675BOLB   C1C16193   8.717  21.527  24.492  0.3670  0.1983 -0.0268
  675BOLB   C2C16194   8.679  21.060  24.610  0.1974 -0.1574 -0.1822
  675BOLB   C3C16195   8.767  20.580  24.649  0.0977 -0.3055  0.2025
  675BOLB   C4C16196   8.862  20.086  24.713 -0.0910 -0.0767 -0.0740
  675BOLB   C1D16197   8.698  21.871  25.041 -0.0647 -0.5628  0.0047
  675BOLB   C2D16198   8.898  21.686  24.946  0.3417 -0.1224  0.3513
  675BOLB   C3D16199   9.165  21.314  25.024  0.0500  0.1146 -0.4137
  675BOLB   C4D16200   9.374  20.913  25.318 -0.2312  0.3678 -0.2864
  676BOLB   NC116201  22.205   7.971  27.024  0.2615 -0.1148  0.0025
  676BOLB   PO116202  22.515   8.226  27.213 -0.1194 -0.1608 -0.1109
  676BOLB   GL116203  22.922   8.181  27.208  0.3138  0.1553 -0.0826
  676BOLB   GL216204  22.890   7.864  27.221  0.5471  0.0940 -0.1426
  676BOLB   C1A16205  23.341   8.252  27.230 -0.1252 -0.1668 -0.0455
  676BOLB   C2A16206  23.730   8.106  27.178  0.0059 -0.1283 -0.0674
  676BOLB   C3A16207  24.086   8.094  26.873  0.0369 -0.0001  0.1515
  676BOLB   C4A16208  24.508   7.757  26.793  0.2679 -0.3259  0.1857
  676BOLB   C1B16209  23.278   7.756  27.078  0.0229  0.0081 -0.0855
  676BOLB   C2B16210  23.682   7.644  27.194 -0.0410 -0.0641 -0.1052
  676BOLB   C3B16211  24.124   7.714  27.438  0.3210 -0.0368 -0.1397
  676BOLB   C4B16212  24.505   7.558  27.469 -0.3022 -0.1345  0.0432
  676BOLB   NC216213   0.139   7.199  25.965 -0.0748 -0.0430  0.0348
  676BOLB   PO216214  26.733   7.057  25.935  0.0914 -0.0487  0.1892
  676BOLB   GL316215  26.459   7.273  26.161  0.0778  0.1653 -0.0205
  676BOLB   GL416216  26.362   7.405  26.410  0.1987  0.3472  0.1622
  676BOLB   C1C16217  25.962   7.323  26.042 -0.1419  0.1794  0.1968
  676BOLB   C2C16218  25.593   7.285  26.341  0.1820 -0.0950  0.1925
  676BOLB   C3C16219  25.178   7.578  26.431 -0.1457  0.2229 -0.0649
  676BOLB   C4C16220  24.714   7.539  26.504 -0.0807  0.1352 -0.0801
  676BOLB   C1D16221  25.904   7.628  26.431 -0.0152  0.1437 -0.1034
  676BOLB   C2D16222  25.589   7.845  26.232 -0.0377  0.2088 -0.0962
  676BOLB   C3D16223  25.195   8.030  26.245  0.1730  0.3845  0.1781
  676BOLB   C4D16224  24.811   8.054  26.373  0.1302 -0.0460  0.2191
  677BOLB   NC116225  19.048  26.992  31.372  0.2042 -0.0030 -0.5900
  677BOLB   PO116226  18.975   0.334  31.553  0.2334  0.1712 -0.1145
  677BOLB   GL116227  18.926   0.799  31.680 -0.1803 -0.3146 -0.3021
  677BOLB   GL216228  19.135   0.907  31.982  0.1031  0.1055  0.0254
  677BOLB   C1A16229  18.794   1.316  31.720  0.2722  0.3186  0.3009
  677BOLB   C2A16230  18.867   1.732  31.978 -0.1500 -0.1907 -0.0758
  677BOLB   C3A16231  19.039   2.118  31.937 -0.0448 -0.0595  0.5028
  677BOLB   C4A16232  19.257   2.503  31.934 -0.0516 -0.3836 -0.3283
  677BOLB   C1B16233  19.221   1.407  32.015  0.2121  0.0699  0.1090
  677BOLB   C2B16234  19.410   1.750  32.108 -0.3550  0.1005  0.1170
  677BOLB   C3B16235  19.385   2.195  32.333  0.0104 -0.1051 -0.0063
  677BOLB   C4B16236  19.351   2.528  32.652  0.2133  0.1046  0.1325
  677BOLB   NC216237  20.306   0.719  31.108 -0.0094 -0.2329  0.2070
  677BOLB   PO216238  20.601   1.058  31.456  0.1528 -0.1278  0.1954
  677BOLB   GL316239  20.472   1.385  31.506  0.0115 -0.1193  0.2119
  677BOLB   GL416240  20.471   1.569  31.862  0.0187  0.1603 -0.1573
  677BOLB   C1C16241  20.239   1.691  31.433 -0.1030 -0.1585  0.4327
  677BOLB   C2C16242  20.236   2.179  31.296  0.0705 -0.0469 -0.2883
  677BOLB   C3C16243  20.034   2.515  31.441  0.1205  0.1515  0.0095
  677BOLB   C4C16244  19.645   2.656  31.667  0.0960  0.2908 -0.0493
  677BOLB   C1D16245  20.398   1.889  32.166 -0.0430 -0.2250 -0.1795
  677BOLB   C2D16246  20.501   2.257  32.201  0.1246  0.3193 -0.2659
  677BOLB   C3D16247  20.617   2.598  32.009  0.0180 -0.1152 -0.0133
  677BOLB   C4D16248  21.048   2.811  31.906 -0.2822 -0.0372 -0.0673
  678BOLB   NC116249  10.155  19.301  19.097 -0.1134 -0.2778  0.0263
  678BOLB   PO116250  10.317  19.296  19.478  0.1508  0.0057 -0.0235
  678BOLB   GL116251  10.727  19.195  19.565 -0.1785 -0.0305  0.1499
  678BOLB   GL216252  10.929  19.220  19.232 -0.4004 -0.2211  0.0468
  678BOLB   C1A16253  11.004  19.066  19.962  0.2817 -0.0692  0.1475
  678BOLB   C2A16254  11.294  18.949  20.202 -0.2400 -0.1715 -0.3100
  678BOLB   C3A16255  11.659  19.064  20.416  0.2729 -0.0830 -0.1486
  678BOLB   C4A16256  12.026  19.236  20.569  0.2562 -0.0051  0.2430
  678BOLB   C1B16257  11.116  18.911  19.394  0.1490 -0.1596  0.2359
  678BOLB   C2B16258  11.295  18.757  19.760  0.2002  0.0377 -0.1307
  678BOLB   C3B16259  11.665  18.477  19.660 -0.0665 -0.1833 -0.1098
  678BOLB   C4B16260  11.882  18.138  19.836 -0.2340  0.1252 -0.1489
  678BOLB   NC216261  12.670  19.926  18.524  0.2632  0.2199  0.3696
  678BOLB   PO216262  12.383  20.091  18.812 -0.1448 -0.1640 -0.1998
  678BOLB   GL316263  12.602  19.871  19.011 -0.1995  0.2440 -0.0637
  678BOLB   GL416264  12.807  19.606  18.888 -0.2988  0.1643  0.0308
  678BOLB   C1C16265  12.608  19.739  19.432  0.6354 -0.1469  0.1051
  678BOLB   C2C16266  12.658  19.901  19.835  0.0343  0.2668  0.1321
  678BOLB   C3C16267  12.517  19.882  20.371 -0.4071 -0.4899 -0.1843
  678BOLB   C4C16268  12.377  19.593  20.617  0.2533  0.3281  0.3821
  678BOLB   C1D16269  12.939  19.372  19.366  0.2146  0.0091  0.0189
  678BOLB   C2D16270  12.732  19.418  19.769 -0.0987  0.1690  0.3329
  678BOLB   C3D16271  12.787  19.503  20.143  0.0011  0.0306  0.3876
  678BOLB   C4D16272  13.028  19.393  20.390 -0.0226  0.0254 -0.2611
  679BOLB   NC116273  21.911   7.085  25.329 -0.0606 -0.1658  0.1090
  679BOLB   PO116274  21.943   7.561  25.346 -0.3042  0.1279 -0.0497
  679BOLB   GL116275  22.328   7.468  25.093 -0.0853 -0.0402 -0.1123
  679BOLB   GL216276  22.543   7.473  24.817 -0.0633 -0.0987 -0.0956
  679BOLB   C1A16277  22.435   6.981  24.912 -0.2292 -0.0711  0.0874
  679BOLB   C2A16278  22.638   6.634  24.645  0.0790  0.0173  0.1841
  679BOLB   C3A16279  22.812   6.381  24.321 -0.0230  0.0186  0.1495
  679BOLB   C4A16280  23.095   6.569  24.013 -0.2259  0.1157  0.0321
  679BOLB   C1B16281  22.646   7.287  24.477 -0.0531 -0.0140 -0.0729
  679BOLB   C2B16282  22.732   6.938  24.172  0.3669  0.0010  0.2051
  679BOLB   C3B16283  22.640   6.614  23.895  0.0007  0.0786 -0.3436
  679BOLB   C4B16284  22.767   6.213  23.800 -0.2763 -0.1642  0.0357
  679BOLB   NC216285  24.960   5.197  23.323 -0.0762 -0.0087  0.0690
  679BOLB   PO216286  25.232   5.450  23.226 -0.2069  0.0506  0.3013
  679BOLB   GL316287  24.887   5.703  23.290  0.2751  0.0055 -0.1112
  679BOLB   GL416288  24.742   5.842  22.943 -0.2804 -0.3395  0.0097
  679BOLB   C1C16289  24.575   6.040  23.390 -0.0530  0.3006  0.1696
  679BOLB   C2C16290  24.261   6.341  23.682 -0.1495 -0.1261 -0.0435
  679BOLB   C3C16291  23.839   6.463  23.890  0.2456 -0.1878  0.1112
  679BOLB   C4C16292  23.495   6.641  24.056 -0.2519 -0.3138 -0.0176
  679BOLB   C1D16293  24.580   6.346  22.882 -0.1365  0.0871 -0.2018
  679BOLB   C2D16294  24.286   6.478  23.197  0.1548 -0.1246  0.0465
  679BOLB   C3D16295  23.928   6.639  23.379 -0.1094 -0.0803  0.0702
  679BOLB   C4D16296  23.555   6.923  23.627  0.0812  0.2485  0.0405
  680BOLB   NC116297  18.406   4.976  32.849 -0.2834 -0.0222 -0.2054
  680BOLB   PO116298  18.089   5.254  33.194 -0.0636 -0.0341 -0.0553
  680BOLB   GL116299  18.181   4.852  33.320  0.2724 -0.0011  0.2325
  680BOLB   GL216300  18.027   4.633  33.101  0.1355 -0.0468  0.1074
  680BOLB   C1A16301  18.403   4.749  33.653 -0.2131 -0.3741 -0.1483
  680BOLB   C2A16302  18.647   4.369  33.771 -0.1717 -0.0471 -0.1738
  680BOLB   C3A16303  18.718   4.110  34.051  0.2552  0.0128  0.1536
  680BOLB   C4A16304  18.948   3.825  34.228  0.1560 -0.0428  0.1224
  680BOLB   C1B16305  18.188   4.344  33.449  0.1925 -0.0917 -0.2469
  680BOLB   C2B16306  18.261   4.033  33.767  0.2475 -0.2224 -0.3075
  680BOLB   C3B16307  18.298   3.540  33.839 -0.0477 -0.3878 -0.0533
  680BOLB   C4B16308  18.316   3.127  33.995 -0.0734 -0.2256 -0.1636
  680BOLB   NC216309  20.726   2.018  34.540  0.5709  0.2310 -0.0946
  680BOLB   PO216310  20.398   1.874  34.735 -0.1201  0.1422  0.2294
  680BOLB   GL316311  20.205   2.254  34.579 -0.3083  0.2630  0.1108
  680BOLB   GL416312  20.488   2.469  34.614  0.0818  0.0931  0.0228
  680BOLB   C1C16313  19.963   2.590  34.503  0.2796  0.4609 -0.1542
  680BOLB   C2C16314  19.766   3.059  34.564  0.0405  0.0058  0.0787
  680BOLB   C3C16315  19.530   3.383  34.489  0.0375  0.2231  0.0249
  680BOLB   C4C16316  19.120   3.554  34.349 -0.0402  0.1348  0.3070
  680BOLB   C1D16317  20.380   2.676  34.280 -0.0475 -0.4827  0.1455
  680BOLB   C2D16318  20.218   3.074  34.311 -0.1165 -0.1129 -0.0834
  680BOLB   C3D16319  20.170   3.139  33.854  0.1078  0.2338 -0.0953
  680BOLB   C4D16320  20.415   3.128  33.441  0.1126  0.0563  0.0522
  681BOLB   NC116321   7.885  12.602  34.782  0.1660 -0.0741  0.1656
  681BOLB   PO116322   8.012  12.688  34.404  0.1793  0.0577  0.0164
  681BOLB   GL116323   7.518  12.916  34.576  0.1622  0.0795  0.2411
  681BOLB   GL216324   7.381  12.648  34.615  0.3149  0.2176  0.0018
  681BOLB   C1A16325   7.117  12.962  34.448 -0.1318 -0.0883  0.2558
  681BOLB   C2A16326   6.857  12.631  34.336  0.0068  0.0926 -0.0509
  681BOLB   C3A16327   6.495  12.487  34.197 -0.0953 -0.2689 -0.0031
  681BOLB   C4A16328   6.132  12.351  34.045 -0.2332  0.3674 -0.1295
  681BOLB   C1B16329   7.129  12.636  34.976  0.0078 -0.2143  0.2124
  681BOLB   C2B16330   7.061  12.515  35.359 -0.0113  0.1719 -0.1736
  681BOLB   C3B16331   6.746  12.677  35.665  0.0057 -0.1027  0.0926
  681BOLB   C4B16332   6.525  12.582  35.970 -0.1928  0.3091  0.0098
  681BOLB   NC216333   4.054  11.640  35.333  0.2382 -0.2850 -0.0648
  681BOLB   PO216334   3.895  11.513  34.992  0.2559  0.2138 -0.1115
  681BOLB   GL316335   4.306  11.441  34.848 -0.0253 -0.1720  0.1682
  681BOLB   GL416336   4.515  11.498  35.082  0.1495  0.0538 -0.2206
  681BOLB   C1C16337   4.735  11.694  34.700  0.1004  0.1629  0.2912
  681BOLB   C2C16338   4.979  11.801  34.466  0.0637 -0.3105  0.0765
  681BOLB   C3C16339   5.443  11.941  34.464 -0.2584  0.1180  0.4619
  681BOLB   C4C16340   5.856  11.997  34.173  0.1932  0.2468 -0.1410
  681BOLB   C1D16341   4.903  11.414  35.370  0.0467 -0.1271  0.1866
  681BOLB   C2D16342   5.331  11.310  35.179 -0.0513 -0.0833  0.1581
  681BOLB   C3D16343   5.426  10.834  34.991  0.1383 -0.1097  0.1082
  681BOLB   C4D16344   5.833  10.579  35.066  0.2505 -0.3681  0.0119
  682BOLB   NC116345   8.867  13.945  25.967 -0.3584 -0.0743 -0.0474
  682BOLB   PO116346   8.754  13.552  25.734 -0.1365 -0.0606 -0.0209
  682BOLB   GL116347   8.372  13.500  25.548  0.0739 -0.3042 -0.2644
  682BOLB   GL216348   8.201  13.672  25.738  0.1360 -0.0576 -0.1401
  682BOLB   C1A16349   7.996  13.324  25.302  0.3060  0.0308 -0.2310
  682BOLB   C2A16350   7.694  13.052  25.327 -0.2103 -0.0419 -0.4230
  682BOLB   C3A16351   7.256  13.020  25.497 -0.1749  0.1678  0.0451
  682BOLB   C4A16352   6.960  12.838  25.500  0.1193 -0.4577 -0.1312
  682BOLB   C1B16353   7.850  13.885  25.561 -0.3160 -0.2205  0.0504
  682BOLB   C2B16354   7.444  13.986  25.546 -0.1340 -0.2855  0.0560
  682BOLB   C3B16355   7.194  14.032  25.202 -0.0948  0.1723  0.1912
  682BOLB   C4B16356   7.254  14.264  24.739  0.0143  0.0452  0.0376
  682BOLB   NC216357   5.004  13.217  24.170  0.1778 -0.1154 -0.0504
  682BOLB   PO216358   4.896  13.563  24.176  0.1136 -0.3056  0.2026
  682BOLB   GL316359   5.122  13.588  24.530  0.0502  0.0435 -0.0156
  682BOLB   GL416360   5.072  13.293  24.715  0.0256  0.3082 -0.3759
  682BOLB   C1C16361   5.525  13.459  24.634  0.0499  0.0405 -0.1008
  682BOLB   C2C16362   5.794  13.333  24.918  0.4642  0.0076  0.1818
  682BOLB   C3C16363   6.228  13.074  24.974  0.0579 -0.0677  0.0499
  682BOLB   C4C16364   6.563  13.054  25.267  0.2179 -0.2651 -0.1349
  682BOLB   C1D16365   5.279  13.262  25.134  0.1520 -0.1023  0.3780
  682BOLB   C2D16366   5.700  13.116  25.310  0.0134 -0.2364  0.2299
  682BOLB   C3D16367   6.153  13.023  25.539  0.1794  0.0607 -0.1965
  682BOLB   C4D16368   6.484  12.783  25.659  0.2645 -0.0463 -0.1985
  683BOLB   NC116369  16.183  20.683  28.318 -0.1033  0.0314 -0.1265
  683BOLB   PO116370  16.607  20.538  28.326  0.0330  0.2063  0.0524
  683BOLB   GL116371  16.768  20.825  28.141 -0.0367 -0.2552  0.0096
  683BOLB   GL216372  16.442  21.013  28.009 -0.0191  0.0257 -0.0356
  683BOLB   C1A16373  16.883  21.049  27.778  0.0609  0.1938 -0.1148
  683BOLB   C2A16374  17.089  21.385  27.750  0.2305 -0.2547 -0.0936
  683BOLB   C3A16375  17.018  21.828  27.569  0.3134  0.2655 -0.2398
  683BOLB   C4A16376  17.219  22.192  27.458  0.1852  0.2145  0.2035
  683BOLB   C1B16377  16.759  21.401  28.219  0.0967 -0.1662 -0.0342
  683BOLB   C2B16378  17.098  21.659  28.353  0.2055 -0.0700  0.0206
  683BOLB   C3B16379  17.089  22.113  28.453 -0.0261  0.0815 -0.0090
  683BOLB   C4B16380  17.112  22.434  28.226 -0.1825  0.0771 -0.0803
  683BOLB   NC216381  18.391  24.137  27.092 -0.1113 -0.1435  0.1649
  683BOLB   PO216382  18.243  24.409  26.865 -0.3512  0.1031  0.0326
  683BOLB   GL316383  17.984  23.974  26.645 -0.0131 -0.2005 -0.2292
  683BOLB   GL416384  18.099  23.768  26.403 -0.2615  0.0928  0.0482
  683BOLB   C1C16385  17.648  23.791  26.896  0.1012 -0.1458 -0.0815
  683BOLB   C2C16386  17.496  23.354  26.832 -0.1768 -0.1850  0.0746
  683BOLB   C3C16387  17.405  23.003  27.017  0.1252 -0.0147  0.0162
  683BOLB   C4C16388  17.387  22.612  27.315 -0.1911  0.2804  0.4364
  683BOLB   C1D16389  17.835  23.557  26.144  0.0329 -0.0910 -0.1172
  683BOLB   C2D16390  17.759  23.038  26.146 -0.0707  0.0288  0.1142
  683BOLB   C3D16391  17.316  22.920  26.027 -0.2167 -0.3478  0.1862
  683BOLB   C4D16392  16.878  22.988  26.171  0.0523 -0.0353  0.2169
  684BOLB   NC116393  16.275  13.816  39.373  0.0511 -0.1633  0.1050
  684BOLB   PO116394  16.256  14.207  39.627  0.1899  0.2273 -0.1076
  684BOLB   GL116395  16.169  14.408  39.965 -0.2386 -0.1397 -0.2456
  684BOLB   GL216396  16.152  14.688  40.072 -0.3133  0.0722 -0.1625
  684BOLB   C1A16397  16.098  14.334  40.496  0.0489  0.1828 -0.2654
  684BOLB   C2A16398  15.972  13.928  40.795  0.0467  0.1321  0.1969
  684BOLB   C3A16399  16.031  13.603  41.098 -0.1517  0.1688 -0.4311
  684BOLB   C4A16400  16.318  13.639  41.427  0.2675 -0.3370  0.0757
  684BOLB   C1B16401  16.326  14.836  40.506 -0.0598  0.0026  0.0656
  684BOLB   C2B16402  16.595  15.076  40.773  0.1534 -0.0122 -0.2655
  684BOLB   C3B16403  16.594  14.804  41.116  0.1289 -0.0234 -0.0718
  684BOLB   C4B16404  16.704  14.655  41.468  0.2786  0.0142  0.1912
  684BOLB   NC216405  17.427  13.883  43.933 -0.1769  0.0717  0.1912
  684BOLB   PO216406  17.215  14.130  43.611 -0.0060 -0.1630  0.1419
  684BOLB   GL316407  17.230  14.028  43.187  0.1127 -0.0223  0.0358
  684BOLB   GL416408  17.366  14.233  43.047 -0.1047  0.1700  0.0451
  684BOLB   C1C16409  17.126  14.010  42.720  0.0657  0.0409  0.0452
  684BOLB   C2C16410  17.206  13.943  42.239  0.3588  0.0940 -0.0331
  684BOLB   C3C16411  17.054  13.757  41.819 -0.1709 -0.1279 -0.0052
  684BOLB   C4C16412  16.683  13.528  41.755  0.0229 -0.1015  0.0455
  684BOLB   C1D16413  17.129  14.498  42.852  0.1346 -0.0489 -0.0862
  684BOLB   C2D16414  16.679  14.430  42.675 -0.1230 -0.0227  0.1509
  684BOLB   C3D16415  16.397  14.314  42.387 -0.0390  0.3570  0.0470
  684BOLB   C4D16416  16.132  14.039  42.201 -0.0202 -0.0062 -0.0569
  685BOLB   NC116417  19.420  18.620  30.150  0.0159  0.1337 -0.1154
  685BOLB   PO116418  19.592  18.620  30.521  0.1472 -0.1049 -0.1150
  685BOLB   GL116419  19.654  19.008  30.441  0.1469  0.0463  0.2169
  685BOLB   GL216420  19.562  19.215  30.776  0.0073 -0.2414  0.0984
  685BOLB   C1A16421  19.868  19.365  30.345  0.0808 -0.1955 -0.1861
  685BOLB   C2A16422  20.190  19.689  30.140  0.5056 -0.1906  0.1717
  685BOLB   C3A16423  20.503  20.029  30.003 -0.1099 -0.1921  0.0523
  685BOLB   C4A16424  20.540  20.416  29.755 -0.0324  0.3199  0.1300
  685BOLB   C1B16425  19.688  19.610  30.740  0.0826 -0.0178  0.1094
  685BOLB   C2B16426  19.967  19.920  30.552 -0.0629 -0.2858 -0.2954
  685BOLB   C3B16427  20.065  20.335  30.309  0.0100  0.1681  0.2081
  685BOLB   C4B16428  20.237  20.768  30.332 -0.1929  0.0120 -0.2057
  685BOLB   NC216429  21.002  22.899  30.156 -0.0551  0.2395  0.2383
  685BOLB   PO216430  21.092  22.779  29.820  0.0205  0.2552 -0.4273
  685BOLB   GL316431  20.815  22.502  29.707  0.2172  0.2061 -0.0017
  685BOLB   GL416432  20.578  22.600  29.585 -0.0460 -0.3190 -0.3042
  685BOLB   C1C16433  20.887  21.991  29.749 -0.0147  0.0953  0.0961
  685BOLB   C2C16434  20.851  21.580  29.582 -0.1483 -0.2978 -0.1191
  685BOLB   C3C16435  20.755  21.075  29.806 -0.5415 -0.2164 -0.0947
  685BOLB   C4C16436  20.786  20.718  29.927  0.0036  0.2087  0.0132
  685BOLB   C1D16437  20.235  22.485  29.691  0.0399 -0.2039 -0.1987
  685BOLB   C2D16438  19.996  22.204  30.084 -0.1674 -0.2827 -0.2239
  685BOLB   C3D16439  20.200  22.048  30.498  0.1934  0.1794  0.2029
  685BOLB   C4D16440  20.529  22.148  30.731 -0.0397  0.2657  0.0921
  686BOLB   NC116441   7.906  15.620  29.850  0.1735  0.1845  0.1133
  686BOLB   PO116442   7.650  16.082  29.905 -0.0002 -0.0158  0.0667
  686BOLB   GL116443   7.263  16.144  29.702  0.0478  0.2140 -0.2272
  686BOLB   GL216444   6.976  15.952  29.687 -0.2402 -0.0727 -0.0331
  686BOLB   C1A16445   6.979  16.317  29.269 -0.0994 -0.0055 -0.1974
  686BOLB   C2A16446   6.599  16.479  29.098  0.0458  0.0604 -0.0300
  686BOLB   C3A16447   6.181  16.340  28.882 -0.1870  0.1854 -0.3343
  686BOLB   C4A16448   5.772  16.224  28.721  0.0000 -0.2385  0.0757
  686BOLB   C1B16449   6.638  15.729  29.832 -0.2036  0.0035 -0.1308
  686BOLB   C2B16450   6.145  15.801  29.746  0.1415  0.0399 -0.1404
  686BOLB   C3B16451   5.631  15.840  29.816 -0.2582  0.0337 -0.1058
  686BOLB   C4B16452   5.547  16.262  29.602  0.1025  0.0333  0.0073
  686BOLB   NC216453   3.679  16.783  29.532 -0.0758  0.0738  0.1741
  686BOLB   PO216454   3.758  16.589  29.982  0.0200 -0.1403 -0.0567
  686BOLB   GL316455   4.138  16.660  29.732 -0.1761 -0.0207 -0.0729
  686BOLB   GL416456   4.221  16.320  29.706 -0.0162  0.2335 -0.1162
  686BOLB   C1C16457   4.425  16.599  29.345  0.0381  0.0057  0.4251
  686BOLB   C2C16458   4.819  16.681  29.153  0.1617  0.2223  0.0362
  686BOLB   C3C16459   5.060  16.467  28.777 -0.0409 -0.0492 -0.0375
  686BOLB   C4C16460   5.394  16.455  28.568  0.1792 -0.0008  0.1554
  686BOLB   C1D16461   4.638  16.326  29.768 -0.0820  0.2175  0.2712
  686BOLB   C2D16462   4.901  16.453  30.112 -0.1722 -0.4285  0.0203
  686BOLB   C3D16463   5.193  16.835  30.050  0.0735  0.2395  0.0762
  686BOLB   C4D16464   5.123  17.088  30.343 -0.0772  0.1447  0.1454
  687BOLB   NC116465  14.533   5.120  32.094 -0.0294 -0.3335  0.1067
  687BOLB   PO116466  14.450   5.011  31.736  0.0054  0.0623 -0.1806
  687BOLB   GL116467  14.361   4.496  31.671 -0.0014 -0.0253 -0.0237
  687BOLB   GL216468  14.135   4.373  31.965  0.1424 -0.0179  0.0520
  687BOLB   C1A16469  14.346   3.910  31.581  0.3589 -0.3779  0.0632
  687BOLB   C2A16470  14.134   3.629  31.382 -0.0830  0.1796 -0.0110
  687BOLB   C3A16471  13.969   3.139  31.427 -0.4347 -0.0028  0.0089
  687BOLB   C4A16472  14.202   2.850  31.172  0.1277 -0.0226 -0.3524
  687BOLB   C1B16473  14.190   3.936  32.050  0.0224 -0.1547 -0.1419
  687BOLB   C2B16474  13.970   3.627  32.349 -0.1623  0.2282 -0.0601
  687BOLB   C3B16475  13.841   3.316  32.462  0.0387 -0.1449  0.2807
  687BOLB   C4B16476  13.607   3.108  32.828  0.3024  0.0793 -0.0443
  687BOLB   NC216477  13.974   0.368  30.592  0.0045 -0.1038 -0.2651
  687BOLB   PO216478  13.851   0.694  31.004 -0.1369 -0.0969  0.2460
  687BOLB   GL316479  13.584   1.082  30.990 -0.0110 -0.0543 -0.1470
  687BOLB   GL416480  13.302   0.993  31.154 -0.1172  0.1796 -0.1704
  687BOLB   C1C16481  13.521   1.473  31.033 -0.0886 -0.2217 -0.2803
  687BOLB   C2C16482  13.545   1.871  30.952 -0.0290 -0.0377 -0.2580
  687BOLB   C3C16483  13.765   2.279  30.884  0.1813  0.2596  0.0246
  687BOLB   C4C16484  14.036   2.639  30.887  0.1186  0.2973  0.0131
  687BOLB   C1D16485  13.274   1.234  31.601  0.1311  0.2524 -0.2114
  687BOLB   C2D16486  13.158   1.617  31.757  0.0317  0.3397 -0.0139
  687BOLB   C3D16487  13.109   2.005  31.898  0.0867  0.2833  0.0491
  687BOLB   C4D16488  13.293   2.394  31.986  0.3071  0.1451  0.1893
  688BOLB   NC116489  22.107  12.657  25.190  0.1830 -0.2046  0.0011
  688BOLB   PO116490  21.906  13.128  25.191  0.2147  0.0896 -0.0311
  688BOLB   GL116491  22.316  13.415  25.024 -0.4933 -0.0584 -0.2792
  688BOLB   GL216492  22.236  13.676  24.985  0.0992 -0.0357  0.0319
  688BOLB   C1A16493  22.707  13.727  24.781  0.2092  0.2430 -0.2178
  688BOLB   C2A16494  23.106  13.765  24.462 -0.4383 -0.0251 -0.2398
  688BOLB   C3A16495  23.395  13.881  24.496 -0.1793  0.1099  0.2908
  688BOLB   C4A16496  23.867  14.049  24.530 -0.1231  0.0971 -0.0054
  688BOLB   C1B16497  22.334  14.115  25.001  0.1689  0.3213  0.0980
  688BOLB   C2B16498  22.629  14.279  24.964 -0.0914 -0.0190 -0.1513
  688BOLB   C3B16499  23.086  14.101  24.913 -0.0093  0.3375  0.0928
  688BOLB   C4B16500  23.532  14.249  24.851 -0.0718  0.0247 -0.0331
  688BOLB   NC216501  26.041  14.405  23.999 -0.1244  0.0206  0.0631
  688BOLB   PO216502  26.059  14.712  24.344 -0.0365  0.2970  0.2388
  688BOLB   GL316503  25.681  14.561  24.314  0.0581  0.1238 -0.2700
  688BOLB   GL416504  25.612  14.286  24.447 -0.0146 -0.0244 -0.0087
  688BOLB   C1C16505  25.213  14.561  24.320 -0.0008 -0.1134  0.0263
  688BOLB   C2C16506  24.851  14.343  24.458 -0.0060 -0.3693 -0.3565
  688BOLB   C3C16507  24.649  14.085  24.195 -0.2022 -0.1110  0.2238
  688BOLB   C4C16508  24.201  14.156  24.219 -0.1954 -0.0384 -0.0147
  688BOLB   C1D16509  25.409  13.954  24.776  0.0976 -0.1149  0.0848
  688BOLB   C2D16510  25.014  13.638  24.983 -0.0922 -0.2415 -0.3507
  688BOLB   C3D16511  24.781  13.423  25.330  0.2831  0.2187  0.1017
  688BOLB   C4D16512  24.411  13.201  25.579  0.1295  0.0538  0.1146
  689BOLB   NC116513  14.089  17.394  37.202 -0.0070 -0.5214 -0.0588
  689BOLB   PO116514  14.114  17.650  37.633  0.1986 -0.0817 -0.0309
  689BOLB   GL116515  14.152  17.983  37.907  0.2555  0.0008  0.4228
  689BOLB   GL216516  14.163  18.246  37.849 -0.3374  0.1556 -0.1640
  689BOLB   C1A16517  13.905  18.044  38.270  0.0108 -0.0489  0.2761
  689BOLB   C2A16518  13.772  18.217  38.568  0.2132  0.4041  0.6604
  689BOLB   C3A16519  13.966  18.110  39.007  0.2032 -0.0029 -0.0744
  689BOLB   C4A16520  14.093  18.224  39.387  0.0522 -0.2514  0.1419
  689BOLB   C1B16521  14.071  18.529  38.126 -0.1932 -0.0113 -0.2220
  689BOLB   C2B16522  14.096  18.654  38.489  0.2720  0.0641 -0.1041
  689BOLB   C3B16523  13.768  18.625  38.848 -0.0141 -0.1581  0.1963
  689BOLB   C4B16524  13.319  18.665  38.992 -0.0099  0.0750 -0.4293
  689BOLB   NC216525  12.981  19.733  40.804 -0.0129 -0.1593  0.0429
  689BOLB   PO216526  12.762  20.076  40.480  0.1680  0.2136 -0.0800
  689BOLB   GL316527  12.930  19.901  40.186  0.0387 -0.1008  0.3268
  689BOLB   GL416528  12.821  19.594  40.302 -0.2942  0.1122  0.0920
  689BOLB   C1C16529  13.182  19.602  39.989 -0.1799 -0.1609  0.2160
  689BOLB   C2C16530  13.496  19.282  40.001 -0.1436 -0.1298  0.1862
  689BOLB   C3C16531  13.838  18.903  39.851  0.3167 -0.3510 -0.2478
  689BOLB   C4C16532  13.952  18.480  39.656  0.2221 -0.4016 -0.2993
  689BOLB   C1D16533  12.915  19.216  40.033 -0.0110 -0.1753  0.0050
  689BOLB   C2D16534  12.749  18.913  39.826  0.1315 -0.3653  0.1512
  689BOLB   C3D16535  12.487  18.643  39.497 -0.1048  0.3490  0.0127
  689BOLB   C4D16536  12.107  18.731  39.303  0.0195  0.0225  0.1683
  690BOLB   NC116537  15.288   7.975  21.777 -0.0256  0.0621  0.0714
  690BOLB   PO116538  15.411   7.591  21.850  0.2004  0.2841 -0.0741
  690BOLB   GL116539  15.243   7.555  21.445  0.1705 -0.0096 -0.1810
  690BOLB   GL216540  15.293   7.336  21.387 -0.0199  0.2515  0.0438
  690BOLB   C1A16541  15.014   7.600  21.024 -0.0367 -0.1425 -0.2010
  690BOLB   C2A16542  14.895   7.269  20.682 -0.0476 -0.1879 -0.2304
  690BOLB   C3A16543  14.824   7.165  20.345  0.0318  0.3527 -0.0494
  690BOLB   C4A16544  14.846   7.128  19.896  0.1022 -0.0712  0.0128
  690BOLB   C1B16545  15.056   7.122  21.161  0.0074  0.3181  0.2406
  690BOLB   C2B16546  14.999   6.816  20.942 -0.1246 -0.0683 -0.0040
  690BOLB   C3B16547  14.611   6.574  20.953  0.1755 -0.1264  0.1472
  690BOLB   C4B16548  14.283   6.359  20.929  0.0394 -0.0770  0.2227
  690BOLB   NC216549  13.536   6.866  17.404 -0.2820  0.0040 -0.0136
  690BOLB   PO216550  13.746   6.812  17.820  0.2598  0.1246  0.0400
  690BOLB   GL316551  13.853   7.070  18.131  0.0855 -0.0901  0.3637
  690BOLB   GL416552  14.215   7.151  18.055 -0.2771  0.1672  0.0896
  690BOLB   C1C16553  13.770   7.106  18.647 -0.0053  0.2918  0.1964
  690BOLB   C2C16554  14.052   7.133  18.985 -0.2261 -0.2571 -0.0860
  690BOLB   C3C16555  14.226   7.336  19.307 -0.0638  0.0427  0.1763
  690BOLB   C4C16556  14.525   7.133  19.565  0.0367 -0.2850 -0.0752
  690BOLB   C1D16557  14.261   7.229  18.546  0.1259  0.1128  0.2919
  690BOLB   C2D16558  14.423   7.533  18.846 -0.1932  0.2813  0.2280
  690BOLB   C3D16559  14.289   7.942  19.031 -0.3148  0.0172 -0.1108
  690BOLB   C4D16560  13.905   8.266  18.965  0.1885 -0.0888  0.0612
  691BOLB   NC116561  13.433  20.021  34.854  0.4009 -0.0858  0.0583
  691BOLB   PO116562  13.402  20.097  34.469 -0.0211 -0.0833 -0.1612
  691BOLB   GL116563  13.395  20.483  34.548  0.1383  0.0459  0.2011
  691BOLB   GL216564  13.741  20.646  34.516  0.0914  0.0330 -0.0559
  691BOLB   C1A16565  13.211  20.892  34.628 -0.0290 -0.0656 -0.0831
  691BOLB   C2A16566  13.116  21.198  34.544  0.1295  0.0789  0.1341
  691BOLB   C3A16567  13.076  21.615  34.725 -0.2042 -0.0156 -0.1219
  691BOLB   C4A16568  12.775  21.904  34.925 -0.1801 -0.0222 -0.1555
  691BOLB   C1B16569  13.668  21.079  34.420 -0.0084  0.0929  0.0129
  691BOLB   C2B16570  13.618  21.585  34.252  0.2378 -0.0384 -0.0377
  691BOLB   C3B16571  13.736  22.036  34.404  0.1026 -0.2122 -0.1232
  691BOLB   C4B16572  13.912  22.247  34.790 -0.0585  0.0565  0.2057
  691BOLB   NC216573  12.218  23.851  36.043 -0.0451  0.1221  0.0016
  691BOLB   PO216574  11.845  23.894  35.714 -0.0989 -0.2509  0.2987
  691BOLB   GL316575  11.822  23.512  35.645 -0.3029 -0.0937  0.1503
  691BOLB   GL416576  11.932  23.383  35.919 -0.2392  0.0324 -0.3818
  691BOLB   C1C16577  12.071  23.114  35.543  0.0255  0.0689  0.1641
  691BOLB   C2C16578  12.074  22.805  35.276  0.1954  0.2916  0.2611
  691BOLB   C3C16579  12.109  22.406  34.974 -0.0763 -0.2353 -0.0505
  691BOLB   C4C16580  12.405  22.210  34.833 -0.0464  0.1046 -0.1700
  691BOLB   C1D16581  11.647  23.023  35.949 -0.4811 -0.3898  0.0174
  691BOLB   C2D16582  11.391  22.611  35.964 -0.0004  0.4506 -0.3251
  691BOLB   C3D16583  11.264  22.205  35.812  0.3745  0.2854  0.0287
  691BOLB   C4D16584  11.414  21.819  35.883 -0.1259 -0.1190  0.0519
  692BOLB   NC116585  10.556  11.459  37.363 -0.1369  0.0458 -0.2078
  692BOLB   PO116586  10.449  11.771  37.741 -0.0034  0.1478 -0.0005
  692BOLB   GL116587  10.370  11.796  38.192  0.0626  0.1896  0.1172
  692BOLB   GL216588  10.308  11.467  38.322 -0.1470  0.0474  0.0025
  692BOLB   C1A16589  10.197  11.812  38.632 -0.3489 -0.3026 -0.2830
  692BOLB   C2A16590   9.816  11.879  38.858  0.1107 -0.2816  0.2253
  692BOLB   C3A16591   9.398  12.152  38.956  0.3338  0.1051 -0.1313
  692BOLB   C4A16592   9.001  12.059  39.059  0.2196  0.1107 -0.1422
  692BOLB   C1B16593   9.929  11.441  38.424 -0.1968  0.2774 -0.0911
  692BOLB   C2B16594   9.741  11.321  38.776 -0.1556 -0.0871  0.0304
  692BOLB   C3B16595   9.462  11.110  39.011 -0.0626  0.1599 -0.0521
  692BOLB   C4B16596   9.275  11.129  39.412  0.2540 -0.1153 -0.0502
  692BOLB   NC216597   7.784  11.730  41.059 -0.1816  0.3212 -0.3260
  692BOLB   PO216598   7.496  12.140  41.002  0.3541 -0.2516 -0.0725
  692BOLB   GL316599   7.883  11.979  40.618  0.0457 -0.1351 -0.2822
  692BOLB   GL416600   7.970  11.669  40.578 -0.1651  0.0940  0.2504
  692BOLB   C1C16601   8.278  12.112  40.602 -0.1010  0.1087 -0.2462
  692BOLB   C2C16602   8.510  12.219  40.172 -0.2209 -0.2294 -0.0257
  692BOLB   C3C16603   8.723  12.337  39.864 -0.0740  0.1722  0.0275
  692BOLB   C4C16604   8.720  12.143  39.450 -0.2609  0.2693 -0.1862
  692BOLB   C1D16605   8.415  11.586  40.405 -0.2562  0.1429 -0.3650
  692BOLB   C2D16606   8.802  11.873  40.372 -0.1224 -0.1610 -0.3237
  692BOLB   C3D16607   9.112  12.127  40.151  0.0626 -0.2851  0.2334
  692BOLB   C4D16608   9.212  12.521  39.885  0.1307  0.4358  0.2601
  693BOLB   NC116609  11.091   6.796  26.683 -0.0835 -0.0581  0.2843
  693BOLB   PO116610  10.948   6.427  26.443 -0.1770 -0.2768  0.2150
  693BOLB   GL116611  10.731   5.990  26.357 -0.0933  0.0176 -0.3842
  693BOLB   GL216612  10.546   5.888  26.105 -0.0235  0.1598  0.0844
  693BOLB   C1A16613  10.868   5.511  26.294  0.2679  0.0590 -0.0042
  693BOLB   C2A16614  10.720   5.065  26.382  0.0711  0.0523 -0.0148
  693BOLB   C3A16615  10.760   4.850  26.732  0.1016  0.3413  0.0576
  693BOLB   C4A16616  10.840   4.622  27.102 -0.0946 -0.0625 -0.1233
  693BOLB   C1B16617  10.438   5.505  25.776  0.3683  0.1902  0.2909
  693BOLB   C2B16618  10.237   5.079  25.542  0.2406 -0.0754  0.1347
  693BOLB   C3B16619   9.856   4.774  25.639  0.2242 -0.0322 -0.3056
  693BOLB   C4B16620   9.639   4.726  25.335  0.0207  0.2554 -0.2940
  693BOLB   NC216621   9.750   2.113  26.796 -0.2021 -0.1638  0.2244
  693BOLB   PO216622   9.681   2.409  27.192  0.0634  0.0800 -0.0897
  693BOLB   GL316623   9.761   2.828  27.203 -0.0212  0.4262 -0.2509
  693BOLB   GL416624   9.839   3.042  26.916  0.2743 -0.1575 -0.0472
  693BOLB   C1C16625  10.147   3.064  27.325 -0.0781  0.0274  0.1310
  693BOLB   C2C16626  10.256   3.541  27.300 -0.0386  0.2074 -0.1232
  693BOLB   C3C16627  10.392   3.988  27.452 -0.0918 -0.1491 -0.0969
  693BOLB   C4C16628  10.560   4.346  27.310 -0.3187  0.0570 -0.0281
  693BOLB   C1D16629  10.294   3.284  26.845  0.2789  0.2054  0.1365
  693BOLB   C2D16630  10.632   3.459  26.889 -0.0844  0.0965 -0.0183
  693BOLB   C3D16631  11.000   3.735  26.763 -0.0977  0.0507 -0.1154
  693BOLB   C4D16632  10.926   4.123  26.935 -0.1648 -0.0077 -0.1782
  694BOLB   NC116633  20.686  17.682  34.743 -0.0062  0.6019 -0.0229
  694BOLB   PO116634  21.106  17.515  34.823 -0.2603 -0.0328  0.3462
  694BOLB   GL116635  20.999  17.678  35.242  0.2182 -0.2579  0.1384
  694BOLB   GL216636  20.869  17.572  35.545 -0.0507  0.0311  0.2115
  694BOLB   C1A16637  21.326  17.938  35.492  0.0761 -0.3711  0.0103
  694BOLB   C2A16638  21.621  18.271  35.473 -0.0850  0.3630 -0.0992
  694BOLB   C3A16639  21.944  18.426  35.500  0.0413  0.0454 -0.4078
  694BOLB   C4A16640  22.344  18.464  35.767 -0.0407  0.4539  0.0540
  694BOLB   C1B16641  21.218  17.601  35.871  0.1062  0.0813  0.0055
  694BOLB   C2B16642  21.366  17.775  36.353  0.0656  0.1468 -0.0961
  694BOLB   C3B16643  21.836  17.882  36.392  0.1506 -0.2002  0.0304
  694BOLB   C4B16644  22.125  18.194  36.222  0.2399 -0.1456  0.0072
  694BOLB   NC216645  23.664  20.637  36.891  0.1575 -0.1465  0.0755
  694BOLB   PO216646  23.443  20.146  36.880  0.3080 -0.2690 -0.0971
  694BOLB   GL316647  23.282  19.885  36.548 -0.0295  0.0385 -0.1754
  694BOLB   GL416648  23.226  20.024  36.197 -0.2049  0.0769  0.0932
  694BOLB   C1C16649  23.035  19.526  36.580  0.1305 -0.1904  0.1536
  694BOLB   C2C16650  22.710  19.298  36.352 -0.0253  0.3147 -0.0924
  694BOLB   C3C16651  22.603  18.884  36.432  0.0231  0.3291 -0.1826
  694BOLB   C4C16652  22.491  18.622  36.137  0.1712  0.1877 -0.3713
  694BOLB   C1D16653  22.770  19.923  36.384  0.3497  0.1340 -0.0519
  694BOLB   C2D16654  22.427  19.708  36.178  0.1817 -0.0641 -0.3575
  694BOLB   C3D16655  22.225  19.296  36.282 -0.0225  0.1644  0.1877
  694BOLB   C4D16656  22.114  18.858  36.195  0.0864 -0.2993  0.0745
  695BOLB   NC116657  20.721  14.073  37.836  0.1131 -0.1411 -0.0941
  695BOLB   PO116658  20.254  14.281  37.940 -0.2921 -0.0354 -0.1939
  695BOLB   GL116659  20.534  14.225  38.308  0.0275 -0.0373 -0.2791
  695BOLB   GL216660  20.864  14.256  38.250  0.0032  0.1059 -0.1333
  695BOLB   C1A16661  20.660  14.337  38.752  0.2100 -0.0134 -0.1730
  695BOLB   C2A16662  20.794  14.465  39.086 -0.1665  0.2065  0.0004
  695BOLB   C3A16663  20.783  14.471  39.617 -0.1833 -0.3230  0.0262
  695BOLB   C4A16664  20.873  14.365  40.033 -0.3254 -0.0901 -0.4538
  695BOLB   C1B16665  21.062  14.677  38.430  0.1653 -0.0953 -0.0645
  695BOLB   C2B16666  21.432  14.894  38.465 -0.2114  0.1779 -0.1554
  695BOLB   C3B16667  21.904  14.999  38.684 -0.1458  0.1955  0.1793
  695BOLB   C4B16668  22.277  15.242  38.947 -0.1917  0.3451  0.1239
  695BOLB   NC216669  20.925  15.147  42.423  0.0403  0.1154  0.3393
  695BOLB   PO216670  21.226  14.823  42.405  0.1430  0.0751  0.1815
  695BOLB   GL316671  21.019  15.006  41.917 -0.0974  0.1368 -0.2413
  695BOLB   GL416672  20.742  14.868  41.956  0.0520 -0.0802  0.2435
  695BOLB   C1C16673  20.929  14.738  41.544  0.0631  0.0020 -0.0285
  695BOLB   C2C16674  20.801  14.529  41.268 -0.3300 -0.0010  0.2804
  695BOLB   C3C16675  20.604  14.558  40.905  0.0618 -0.2465  0.0634
  695BOLB   C4C16676  20.683  14.594  40.400 -0.2286 -0.2725 -0.0598
  695BOLB   C1D16677  20.369  14.837  41.733  0.2408 -0.1227 -0.1881
  695BOLB   C2D16678  20.289  14.846  41.251 -0.0321 -0.1997 -0.2245
  695BOLB   C3D16679  20.115  14.727  40.971  0.3100 -0.3088  0.3022
  695BOLB   C4D16680  19.856  14.453  40.726  0.1703  0.2112  0.0937
  696BOLB   NC116681  14.706  19.780  35.120  0.2926 -0.1826  0.1172
  696BOLB   PO116682  14.366  19.993  35.340  0.3762  0.0268 -0.1337
  696BOLB   GL116683  14.393  20.022  35.859 -0.0345 -0.1515 -0.2612
  696BOLB   GL216684  14.397  19.801  36.146 -0.1305  0.3779 -0.0407
  696BOLB   C1A16685  14.447  20.322  36.275  0.0682 -0.0901  0.2347
  696BOLB   C2A16686  14.499  20.717  36.308 -0.1724 -0.1151 -0.1011
  696BOLB   C3A16687  14.685  21.077  36.499  0.0211 -0.1316 -0.1376
  696BOLB   C4A16688  15.024  21.334  36.596 -0.3594 -0.3666  0.0357
  696BOLB   C1B16689  14.180  20.031  36.497  0.4049  0.0700 -0.1793
  696BOLB   C2B16690  14.056  20.418  36.662 -0.2253  0.1164 -0.1704
  696BOLB   C3B16691  13.878  20.457  37.107  0.0421  0.1027  0.3900
  696BOLB   C4B16692  13.479  20.255  37.313 -0.1003  0.1367 -0.2309
  696BOLB   NC216693  14.275  23.337  38.114  0.2386 -0.1832  0.1375
  696BOLB   PO216694  14.550  23.564  37.894 -0.2279  0.1146 -0.1812
  696BOLB   GL316695  14.578  23.110  37.705  0.2747 -0.1086  0.0799
  696BOLB   GL416696  14.350  23.055  37.604 -0.1029  0.0273 -0.0115
  696BOLB   C1C16697  14.777  22.883  37.450  0.1774 -0.0002  0.2010
  696BOLB   C2C16698  14.912  22.626  37.146  0.1606  0.0562 -0.1870
  696BOLB   C3C16699  15.054  22.189  37.101  0.0151  0.0427 -0.2473
  696BOLB   C4C16700  15.120  21.710  36.898 -0.1954 -0.0456  0.1191
  696BOLB   C1D16701  14.358  22.591  37.335 -0.0076  0.4291 -0.0634
  696BOLB   C2D16702  14.512  22.334  37.038 -0.2466  0.0047  0.0181
  696BOLB   C3D16703  14.694  21.970  36.872  0.1654 -0.0714  0.1219
  696BOLB   C4D16704  14.798  21.790  36.436 -0.1116  0.0106 -0.1830
  697BOLB   NC116705  16.588  13.232  39.865  0.2336  0.0896  0.0127
  697BOLB   PO116706  16.842  13.547  39.596  0.2148 -0.1871  0.2740
  697BOLB   GL116707  17.004  13.960  39.886 -0.1722 -0.1221 -0.1351
  697BOLB   GL216708  16.894  14.285  39.916 -0.0946  0.2287  0.1564
  697BOLB   C1A16709  17.413  13.915  40.156  0.2400 -0.2087 -0.0186
  697BOLB   C2A16710  17.634  14.051  40.562 -0.2113  0.4546 -0.0603
  697BOLB   C3A16711  17.565  14.414  40.925  0.0077  0.2240  0.3085
  697BOLB   C4A16712  17.689  14.778  41.274  0.0496  0.1102  0.1657
  697BOLB   C1B16713  17.014  14.202  40.325  0.0899 -0.1004  0.2870
  697BOLB   C2B16714  17.169  14.254  40.727 -0.0194  0.0458 -0.2050
  697BOLB   C3B16715  17.024  14.073  41.217 -0.0176  0.1590  0.1425
  697BOLB   C4B16716  16.906  14.215  41.670  0.2588  0.0882 -0.1789
  697BOLB   NC216717  19.240  14.697  43.408  0.0749  0.0071 -0.2479
  697BOLB   PO216718  18.916  14.944  43.244  0.3953  0.1672  0.3623
  697BOLB   GL316719  18.749  14.945  42.849 -0.1243  0.0525  0.2596
  697BOLB   GL416720  18.977  15.032  42.699  0.1987  0.0037 -0.0462
  697BOLB   C1C16721  18.511  14.764  42.566 -0.0772  0.1388  0.0938
  697BOLB   C2C16722  18.465  14.711  42.258 -0.1377  0.1151 -0.0718
  697BOLB   C3C16723  18.232  14.672  41.896  0.0151 -0.0825 -0.2606
  697BOLB   C4C16724  17.847  14.776  41.641  0.0574  0.1447 -0.0001
  697BOLB   C1D16725  18.801  15.196  42.305  0.0760 -0.3287  0.1407
  697BOLB   C2D16726  18.873  14.958  41.870  0.0265  0.0427  0.1685
  697BOLB   C3D16727  18.762  14.770  41.445  0.1045 -0.1977 -0.4889
  697BOLB   C4D16728  18.611  14.625  41.033 -0.2444 -0.3891 -0.0001
  698BOLB   NC116729   8.040  13.008  29.935  0.3073  0.3496 -0.1789
  698BOLB   PO116730   7.683  12.856  30.227 -0.1912 -0.0943 -0.2902
  698BOLB   GL116731   7.321  12.899  30.023  0.0970  0.2386 -0.1755
  698BOLB   GL216732   7.090  12.843  30.285  0.2777  0.1350 -0.0190
  698BOLB   C1A16733   6.855  12.780  29.885 -0.2314 -0.0640 -0.4036
  698BOLB   C2A16734   6.410  12.982  29.884 -0.1675  0.0685 -0.0462
  698BOLB   C3A16735   6.024  12.907  29.534  0.1724  0.1182  0.3357
  698BOLB   C4A16736   5.684  12.814  29.392 -0.1321  0.0818  0.0334
  698BOLB   C1B16737   6.982  12.778  30.712  0.1876 -0.3189 -0.0479
  698BOLB   C2B16738   6.857  12.668  31.196 -0.1732  0.2550 -0.1374
  698BOLB   C3B16739   6.577  12.481  31.490  0.0132  0.2370 -0.2879
  698BOLB   C4B16740   6.022  12.419  31.601 -0.0804 -0.1913  0.1874
  698BOLB   NC216741   3.598  12.923  30.545 -0.0406  0.3234 -0.0741
  698BOLB   PO216742   3.616  12.551  30.415 -0.0362 -0.0161  0.0594
  698BOLB   GL316743   3.973  12.732  30.134  0.2537  0.1461  0.0397
  698BOLB   GL416744   4.094  12.803  30.408 -0.1628  0.1436 -0.1990
  698BOLB   C1C16745   4.272  12.623  29.798  0.0605  0.1129  0.0461
  698BOLB   C2C16746   4.613  12.311  29.592 -0.3117  0.0537  0.0996
  698BOLB   C3C16747   5.124  12.273  29.559 -0.0630  0.1393 -0.1825
  698BOLB   C4C16748   5.427  12.514  29.239 -0.0805  0.0208 -0.1369
  698BOLB   C1D16749   4.490  12.988  30.622 -0.2802 -0.1016 -0.1401
  698BOLB   C2D16750   4.780  13.167  30.791 -0.2315 -0.1891 -0.3284
  698BOLB   C3D16751   5.204  13.149  30.820  0.0666  0.1757  0.2454
  698BOLB   C4D16752   5.591  13.059  30.598  0.4350  0.1945  0.0848
  699BOLB   NC116753  20.267  12.051  38.661 -0.1534  0.0468  0.0151
  699BOLB   PO116754  19.903  12.285  38.746 -0.0463 -0.2647  0.4284
  699BOLB   GL116755  20.198  12.479  38.892  0.1001 -0.0664 -0.1655
  699BOLB   GL216756  20.153  12.297  39.157  0.0041  0.1105 -0.0260
  699BOLB   C1A16757  20.539  12.681  39.027  0.0136  0.1771  0.3681
  699BOLB   C2A16758  20.896  12.833  39.191  0.0094 -0.1397 -0.1185
  699BOLB   C3A16759  21.134  13.002  39.490 -0.1702 -0.1657  0.0991
  699BOLB   C4A16760  21.236  13.366  39.791 -0.3170 -0.1092 -0.1189
  699BOLB   C1B16761  20.612  12.348  39.367 -0.1869 -0.0967 -0.1215
  699BOLB   C2B16762  20.773  12.591  39.661 -0.1199  0.3495 -0.1824
  699BOLB   C3B16763  20.888  12.867  39.941 -0.0700 -0.0628 -0.0329
  699BOLB   C4B16764  21.226  13.091  40.303 -0.0552 -0.2943  0.0983
  699BOLB   NC216765  23.051  14.420  41.300  0.0149 -0.1885  0.0691
  699BOLB   PO216766  22.816  14.388  41.705 -0.1354 -0.1492  0.2206
  699BOLB   GL316767  22.477  14.346  41.349 -0.1021  0.0453  0.0848
  699BOLB   GL416768  22.355  14.601  41.109 -0.0581 -0.1004  0.0639
  699BOLB   C1C16769  22.289  14.033  41.065  0.3804 -0.0738 -0.0285
  699BOLB   C2C16770  22.060  13.866  40.700 -0.1096 -0.3034  0.1317
  699BOLB   C3C16771  21.636  13.815  40.392 -0.2684 -0.3004  0.1983
  699BOLB   C4C16772  21.470  13.519  40.052 -0.2158 -0.1977  0.0753
  699BOLB   C1D16773  22.219  14.874  40.758  0.2470  0.0475  0.1227
  699BOLB   C2D16774  22.385  15.022  40.349  0.4961  0.1082 -0.0658
  699BOLB   C3D16775  22.282  15.316  39.942  0.2996  0.5375 -0.0160
  699BOLB   C4D16776  22.105  15.342  39.535 -0.1197  0.0153  0.0437
  700BOLB   NC116777  24.099  17.353  20.430  0.0901 -0.1314 -0.4475
  700BOLB   PO116778  23.696  17.163  20.659  0.3284 -0.0473 -0.0826
  700BOLB   GL116779  23.358  16.919  20.841  0.2854  0.0565 -0.1566
  700BOLB   GL216780  23.542  16.698  20.938 -0.2791  0.1892 -0.2133
  700BOLB   C1A16781  23.038  16.588  20.870  0.1946 -0.3021 -0.1127
  700BOLB   C2A16782  22.793  16.250  20.834  0.0843 -0.2701 -0.0919
  700BOLB   C3A16783  22.784  15.880  20.592  0.2290  0.0450 -0.2472
  700BOLB   C4A16784  22.765  15.511  20.360  0.1777  0.2367  0.1392
  700BOLB   C1B16785  23.718  16.275  20.783 -0.1833  0.1405 -0.1466
  700BOLB   C2B16786  23.298  15.970  20.768 -0.0316  0.2522  0.1271
  700BOLB   C3B16787  23.172  15.679  21.012  0.0360  0.0021 -0.1711
  700BOLB   C4B16788  22.811  15.339  20.997 -0.0324 -0.2940 -0.0318
  700BOLB   NC216789  25.167  16.029  20.322 -0.0020 -0.0554 -0.0467
  700BOLB   PO216790  24.737  16.019  20.150 -0.0792 -0.1954 -0.1075
  700BOLB   GL316791  24.521  15.682  20.166 -0.0700 -0.0326 -0.2047
  700BOLB   GL416792  24.823  15.434  20.389 -0.0404  0.0486 -0.0229
  700BOLB   C1C16793  24.098  15.517  20.173  0.2502  0.3903  0.1787
  700BOLB   C2C16794  23.706  15.674  20.045 -0.1586 -0.0739 -0.2140
  700BOLB   C3C16795  23.364  15.494  19.862 -0.3106 -0.1848 -0.1238
  700BOLB   C4C16796  23.065  15.283  20.122 -0.1441  0.1312 -0.2154
  700BOLB   C1D16797  24.375  15.264  20.465  0.2527 -0.2672  0.0574
  700BOLB   C2D16798  23.986  15.193  20.575 -0.0442 -0.0067 -0.2823
  700BOLB   C3D16799  23.565  14.946  20.660  0.0397  0.0925  0.0272
  700BOLB   C4D16800  23.482  14.783  20.248 -0.0146  0.0195 -0.3958
  701BOLB   NC116801  15.291  15.868  39.188 -0.1281  0.3470 -0.0369
  701BOLB   PO116802  14.931  15.642  39.159  0.1578 -0.0903  0.3392
  701BOLB   GL116803  14.938  15.605  39.606 -0.0565  0.0344  0.0811
  701BOLB   GL216804  15.182  15.779  39.749  0.0633 -0.0515  0.0121
  701BOLB   C1A16805  14.564  15.683  39.825  0.2605  0.1521  0.0215
  701BOLB   C2A16806  14.473  15.708  40.273  0.1604  0.2095  0.0223
  701BOLB   C3A16807  14.223  15.902  40.619 -0.2895  0.0852 -0.2026
  701BOLB   C4A16808  14.209  16.105  40.992  0.1551  0.1911 -0.0337
  701BOLB   C1B16809  14.800  16.022  40.050 -0.0836 -0.0868 -0.2026
  701BOLB   C2B16810  14.479  16.185  40.227 -0.3838 -0.2600  0.2272
  701BOLB   C3B16811  14.304  16.581  40.408  0.0268 -0.3570  0.0983
  701BOLB   C4B16812  14.421  16.868  40.631  0.3320 -0.4515 -0.3056
  701BOLB   NC216813  14.870  17.302  43.544  0.0313  0.0532 -0.0304
  701BOLB   PO216814  14.848  16.855  43.343 -0.1609  0.0150  0.2312
  701BOLB   GL316815  14.597  16.788  42.930 -0.3166 -0.1053 -0.0610
  701BOLB   GL416816  14.632  16.392  42.717  0.0030  0.0672  0.1665
  701BOLB   C1C16817  14.589  16.838  42.508  0.1300 -0.1987  0.2170
  701BOLB   C2C16818  14.330  16.762  42.075 -0.0997  0.1307  0.1235
  701BOLB   C3C16819  14.073  16.581  41.744  0.1405 -0.1119 -0.0382
  701BOLB   C4C16820  14.110  16.316  41.361 -0.0293  0.0782 -0.4163
  701BOLB   C1D16821  14.520  16.297  42.249 -0.3297  0.0580 -0.4425
  701BOLB   C2D16822  14.453  16.305  41.815 -0.0481  0.1954  0.0088
  701BOLB   C3D16823  14.626  16.170  41.448 -0.0766  0.1622 -0.1190
  701BOLB   C4D16824  15.020  16.322  41.204  0.1282  0.0630  0.1634
  702BOLB   NC116825  11.784  20.593  30.194  0.2277  0.0853  0.1376
  702BOLB   PO116826  11.678  21.035  30.090 -0.2429 -0.0186  0.1111
  702BOLB   GL116827  11.538  21.402  29.903 -0.0558 -0.4028 -0.1968
  702BOLB   GL216828  11.911  21.613  29.870 -0.1043 -0.2899  0.0307
  702BOLB   C1A16829  11.475  21.895  29.945 -0.1189 -0.1449  0.1927
  702BOLB   C2A16830  11.329  22.221  29.928 -0.1635 -0.2520  0.1035
  702BOLB   C3A16831  11.161  22.547  30.243  0.1580 -0.1858 -0.1134
  702BOLB   C4A16832  11.182  22.900  30.523  0.0187  0.3067 -0.0168
  702BOLB   C1B16833  12.050  21.922  29.555  0.0435  0.0020  0.1148
  702BOLB   C2B16834  11.722  22.213  29.515  0.2836  0.1303 -0.2161
  702BOLB   C3B16835  11.546  22.688  29.592  0.1605 -0.1763 -0.1624
  702BOLB   C4B16836  11.445  22.865  29.195  0.0050  0.2636  0.0169
  702BOLB   NC216837  11.446  25.141  29.615 -0.2442 -0.0283 -0.0103
  702BOLB   PO216838  11.735  25.119  29.290 -0.0476  0.1531 -0.1032
  702BOLB   GL316839  11.712  24.718  29.388 -0.0275 -0.2172 -0.1904
  702BOLB   GL416840  11.992  24.741  29.589  0.1227  0.4255 -0.1023
  702BOLB   C1C16841  11.588  24.499  29.839  0.1412 -0.4055  0.0237
  702BOLB   C2C16842  11.423  24.141  30.055 -0.2815  0.2417 -0.0027
  702BOLB   C3C16843  11.363  23.765  30.342 -0.1526 -0.1743  0.2168
  702BOLB   C4C16844  11.245  23.316  30.452  0.0659  0.2995 -0.0621
  702BOLB   C1D16845  11.934  24.285  29.535 -0.0756  0.0939 -0.0283
  702BOLB   C2D16846  12.155  23.863  29.448 -0.2928  0.2448 -0.1439
  702BOLB   C3D16847  11.937  23.471  29.362 -0.1581 -0.1830  0.0641
  702BOLB   C4D16848  12.025  23.065  29.610 -0.1311 -0.0453  0.2432
  703BOLB   NC116849  17.031   3.860  29.010 -0.1709  0.2051 -0.1275
  703BOLB   PO116850  16.724   3.828  28.637 -0.4384 -0.0288  0.0081
  703BOLB   GL116851  16.756   3.465  28.314  0.0855  0.0560 -0.0190
  703BOLB   GL216852  16.945   3.623  28.073  0.0078 -0.0149  0.0694
  703BOLB   C1A16853  16.716   3.043  28.103 -0.1033  0.0432 -0.0637
  703BOLB   C2A16854  16.699   2.705  27.759  0.2225  0.0382 -0.2416
  703BOLB   C3A16855  16.738   2.467  27.441  0.0298  0.0987  0.2114
  703BOLB   C4A16856  16.792   1.948  27.409  0.1691 -0.1153  0.2082
  703BOLB   C1B16857  17.085   3.200  27.808  0.0272  0.1716 -0.1988
  703BOLB   C2B16858  17.459   2.945  27.866  0.1238 -0.0436  0.0551
  703BOLB   C3B16859  17.503   2.566  28.062  0.0268 -0.1375  0.0918
  703BOLB   C4B16860  17.315   2.169  28.200  0.2146 -0.0090  0.3096
  703BOLB   NC216861  17.574  26.932  28.726  0.0051 -0.3231 -0.0502
  703BOLB   PO216862  17.980  26.954  28.587 -0.0835  0.2346 -0.1672
  703BOLB   GL316863  17.987   0.343  28.618  0.1219 -0.2286 -0.0458
  703BOLB   GL416864  17.757   0.386  28.804 -0.0273  0.0424  0.1629
  703BOLB   C1C16865  17.740   0.724  28.439  0.3276 -0.0454  0.2887
  703BOLB   C2C16866  17.544   1.016  28.164 -0.0570 -0.3351 -0.0789
  703BOLB   C3C16867  17.195   1.217  27.896  0.1445  0.0476  0.1387
  703BOLB   C4C16868  16.938   1.552  27.552  0.4951 -0.0890 -0.0519
  703BOLB   C1D16869  17.692   0.654  29.133  0.0356 -0.4029  0.0363
  703BOLB   C2D16870  17.601   1.074  29.151 -0.0662  0.0516 -0.2643
  703BOLB   C3D16871  17.313   1.351  29.227 -0.2214 -0.1773  0.0369
  703BOLB   C4D16872  17.168   1.350  28.790 -0.0554  0.3048 -0.0393
  704BOLB   NC116873  22.756  14.788  30.444 -0.1725 -0.1529  0.1069
  704BOLB   PO116874  22.888  14.503  30.190  0.2336 -0.3015  0.3339
  704BOLB   GL116875  23.313  14.648  30.131  0.1114  0.1908  0.0430
  704BOLB   GL216876  23.403  15.002  30.270 -0.3097  0.0904  0.4386
  704BOLB   C1A16877  23.690  14.584  29.931  0.4586 -0.0635  0.4068
  704BOLB   C2A16878  24.095  14.814  29.929 -0.2464  0.0206 -0.0077
  704BOLB   C3A16879  24.543  14.885  29.836 -0.0140  0.1331 -0.0404
  704BOLB   C4A16880  24.945  14.862  29.704  0.0504  0.0627 -0.2457
  704BOLB   C1B16881  23.795  15.208  30.043 -0.1879 -0.0311 -0.0191
  704BOLB   C2B16882  24.286  15.350  29.851 -0.0105 -0.1024  0.2085
  704BOLB   C3B16883  24.667  15.327  29.897  0.0933 -0.1911  0.0483
  704BOLB   C4B16884  25.052  15.229  30.076  0.0177 -0.2615 -0.0943
  704BOLB   NC216885   0.118  15.273  28.941 -0.0522 -0.0454  0.0141
  704BOLB   PO216886   0.074  14.863  28.836 -0.1355  0.0971 -0.5082
  704BOLB   GL316887  26.630  15.089  28.797  0.2004 -0.0559  0.2706
  704BOLB   GL416888  26.653  15.179  28.483  0.0863  0.0339 -0.1576
  704BOLB   C1C16889  26.262  14.994  29.001  0.0539  0.3517 -0.0763
  704BOLB   C2C16890  25.805  15.002  28.933 -0.1212  0.0954 -0.0266
  704BOLB   C3C16891  25.538  14.827  29.161 -0.2441  0.2570 -0.2824
  704BOLB   C4C16892  25.188  14.737  29.416  0.2884  0.3853  0.1677
  704BOLB   C1D16893  26.164  14.893  28.483  0.2265 -0.0500  0.0765
  704BOLB   C2D16894  25.953  14.585  28.708 -0.2770  0.0583  0.1530
  704BOLB   C3D16895  26.088  14.286  28.467  0.0941  0.1721  0.3149
  704BOLB   C4D16896  26.039  14.074  28.104 -0.2014 -0.0464  0.3030
  705BOLB   NC116897  17.711  11.161  38.932  0.3137  0.0441 -0.1687
  705BOLB   PO116898  17.830  11.472  39.320  0.1375  0.0387  0.6206
  705BOLB   GL116899  17.942  11.300  39.700  0.3419  0.1212 -0.0609
  705BOLB   GL216900  17.718  11.074  39.907 -0.1280  0.0013 -0.1184
  705BOLB   C1A16901  17.997  11.329  40.211  0.3048  0.1115 -0.0521
  705BOLB   C2A16902  18.115  11.178  40.611 -0.1452  0.0117 -0.0833
  705BOLB   C3A16903  18.487  11.053  40.951  0.0709 -0.0534  0.2774
  705BOLB   C4A16904  18.667  10.881  41.250 -0.2446 -0.2656 -0.0816
  705BOLB   C1B16905  17.649  10.946  40.381 -0.0751 -0.1732  0.3185
  705BOLB   C2B16906  17.661  10.758  40.752  0.3529  0.2232 -0.1566
  705BOLB   C3B16907  17.545  10.806  41.210 -0.4652  0.0190  0.1432
  705BOLB   C4B16908  17.512  10.724  41.612 -0.1795 -0.3313  0.0904
  705BOLB   NC216909  18.206  10.001  43.632  0.2331  0.0414 -0.0760
  705BOLB   PO216910  18.669   9.989  43.433  0.2154 -0.2299  0.1051
  705BOLB   GL316911  18.391   9.883  43.099  0.0233 -0.0124  0.1189
  705BOLB   GL416912  18.110   9.749  43.247 -0.0921 -0.0550  0.0764
  705BOLB   C1C16913  18.454   9.994  42.635 -0.0508 -0.1796 -0.0007
  705BOLB   C2C16914  18.662  10.232  42.263  0.1095  0.2704  0.1946
  705BOLB   C3C16915  18.888  10.227  41.918 -0.0325 -0.2360  0.2757
  705BOLB   C4C16916  19.000  10.520  41.511 -0.0704  0.0522 -0.0669
  705BOLB   C1D16917  17.828   9.583  43.014 -0.1100 -0.0316  0.2445
  705BOLB   C2D16918  17.615   9.541  42.680  0.0245 -0.1300 -0.0379
  705BOLB   C3D16919  17.451   9.652  42.288 -0.1745  0.3179  0.0460
  705BOLB   C4D16920  17.336   9.516  41.782 -0.0261 -0.3711 -0.3360
  706BOLB   NC116921   8.991  15.616  35.471 -0.3330 -0.1897  0.2436
  706BOLB   PO116922   9.021  15.236  35.415 -0.3084 -0.3602  0.1825
  706BOLB   GL116923   8.654  15.355  35.737 -0.3153  0.0067 -0.2265
  706BOLB   GL216924   8.645  15.719  35.855 -0.4913  0.2919 -0.0193
  706BOLB   C1A16925   8.214  15.406  35.737 -0.1199 -0.2382  0.0751
  706BOLB   C2A16926   7.977  15.725  35.651  0.0518 -0.2032  0.1122
  706BOLB   C3A16927   7.655  16.048  35.699  0.0145  0.2534 -0.1159
  706BOLB   C4A16928   7.502  16.510  35.787  0.0250 -0.0489 -0.2835
  706BOLB   C1B16929   8.302  15.641  36.147 -0.0784 -0.1308 -0.2569
  706BOLB   C2B16930   7.983  15.873  36.151 -0.1615  0.1025 -0.1067
  706BOLB   C3B16931   7.724  16.152  36.241  0.1942  0.0662  0.0935
  706BOLB   C4B16932   7.335  16.143  36.139 -0.1269  0.0444  0.2601
  706BOLB   NC216933   5.262  17.251  37.089  0.1021 -0.0158  0.3851
  706BOLB   PO216934   5.401  17.732  36.825 -0.1560 -0.0683  0.1410
  706BOLB   GL316935   5.624  17.763  36.489  0.2967 -0.1001  0.1274
  706BOLB   GL416936   5.614  17.947  36.316  0.2858 -0.3729  0.1899
  706BOLB   C1C16937   5.915  17.331  36.319  0.0184  0.3693 -0.1052
  706BOLB   C2C16938   6.442  17.304  36.344 -0.0167  0.0974  0.4106
  706BOLB   C3C16939   6.882  17.063  36.161  0.0434  0.2270  0.0034
  706BOLB   C4C16940   7.238  16.876  35.950  0.0884 -0.2138 -0.0182
  706BOLB   C1D16941   5.832  17.619  35.949  0.0977  0.1539  0.4826
  706BOLB   C2D16942   6.056  17.245  35.792  0.0316  0.1344  0.2619
  706BOLB   C3D16943   6.171  16.862  35.558  0.0416 -0.0096 -0.0869
  706BOLB   C4D16944   6.314  16.502  35.206  0.0651  0.0699  0.3181
  707BOLB   NC116945  20.598  17.317  35.095  0.2390 -0.3187  0.0465
  707BOLB   PO116946  20.526  17.786  35.262  0.4103  0.0299 -0.0442
  707BOLB   GL116947  20.417  18.153  35.457  0.1662 -0.1707  0.0727
  707BOLB   GL216948  20.331  18.401  35.218  0.0692 -0.1354 -0.1832
  707BOLB   C1A16949  20.738  18.450  35.548  0.3675  0.0269  0.1329
  707BOLB   C2A16950  20.992  18.785  35.448  0.1550 -0.3770 -0.2286
  707BOLB   C3A16951  21.179  19.089  35.176 -0.1695 -0.1736 -0.4370
  707BOLB   C4A16952  21.318  19.558  35.113 -0.1639  0.1988  0.0814
  707BOLB   C1B16953  20.642  18.659  35.136  0.0238  0.0245 -0.2636
  707BOLB   C2B16954  20.737  19.047  35.011 -0.4646 -0.0102  0.0319
  707BOLB   C3B16955  20.638  19.495  35.018 -0.1619 -0.1960  0.1234
  707BOLB   C4B16956  20.945  19.867  35.010 -0.0513  0.2699  0.1035
  707BOLB   NC216957  23.373  20.466  35.964  0.0926 -0.3231  0.0615
  707BOLB   PO216958  23.146  20.803  35.922 -0.0347  0.0415  0.1947
  707BOLB   GL316959  22.886  20.628  35.776 -0.3750  0.2009 -0.1548
  707BOLB   GL416960  22.843  20.224  35.849  0.2233  0.0748  0.1412
  707BOLB   C1C16961  22.512  20.468  35.642  0.0400  0.0881 -0.1938
  707BOLB   C2C16962  22.342  19.978  35.665 -0.1576 -0.3455  0.0879
  707BOLB   C3C16963  22.123  19.784  35.349 -0.1373 -0.0008 -0.3474
  707BOLB   C4C16964  21.716  19.856  35.138  0.0075  0.1889 -0.1632
  707BOLB   C1D16965  22.803  19.828  35.769 -0.0761  0.0963 -0.0611
  707BOLB   C2D16966  22.748  19.436  35.880 -0.1600 -0.0389 -0.2787
  707BOLB   C3D16967  22.527  19.208  35.923 -0.0468  0.1566 -0.1871
  707BOLB   C4D16968  22.671  18.856  35.739 -0.0173  0.0998  0.1057
  708BOLB   NC116969   7.650  10.843  32.890 -0.0333 -0.0499  0.3748
  708BOLB   PO116970   7.566  11.332  32.878 -0.0516 -0.0235  0.1546
  708BOLB   GL116971   7.183  11.083  32.913 -0.1285  0.0318 -0.1364
  708BOLB   GL216972   7.186  11.037  32.625 -0.0628  0.3387  0.0370
  708BOLB   C1A16973   6.769  10.770  32.994 -0.0053 -0.5595 -0.2752
  708BOLB   C2A16974   6.657  10.487  33.194 -0.1310  0.0471 -0.1103
  708BOLB   C3A16975   6.332  10.431  33.454 -0.0214  0.2364 -0.2053
  708BOLB   C4A16976   6.023  10.666  33.604 -0.1626  0.0497  0.2316
  708BOLB   C1B16977   6.712  11.181  32.664  0.0562  0.2634  0.0799
  708BOLB   C2B16978   6.295  11.191  32.990 -0.0220  0.3709  0.0118
  708BOLB   C3B16979   5.878  11.210  32.925  0.1234  0.1096  0.0379
  708BOLB   C4B16980   5.607  11.067  32.633 -0.2233 -0.1912 -0.1550
  708BOLB   NC216981   3.516  11.284  33.180 -0.3475  0.3378 -0.1233
  708BOLB   PO216982   3.724  11.571  33.510 -0.0269 -0.0571  0.3689
  708BOLB   GL316983   4.039  11.461  33.220  0.0646 -0.1167  0.3668
  708BOLB   GL416984   3.970  11.559  32.936 -0.1415 -0.1050 -0.0836
  708BOLB   C1C16985   4.479  11.358  33.168  0.2879 -0.2621  0.3027
  708BOLB   C2C16986   4.851  11.100  33.225 -0.2367  0.1800  0.1545
  708BOLB   C3C16987   5.184  10.777  33.345 -0.4661  0.1495 -0.0992
  708BOLB   C4C16988   5.640  10.889  33.479  0.3901  0.1180  0.3711
  708BOLB   C1D16989   4.358  11.579  32.714  0.0398 -0.0011 -0.0344
  708BOLB   C2D16990   4.836  11.757  32.497  0.0417 -0.0670  0.0590
  708BOLB   C3D16991   4.986  12.018  32.215 -0.3189 -0.4008 -0.1121
  708BOLB   C4D16992   5.093  12.086  31.792  0.3863 -0.0948  0.4004
  709BOLB   NC116993  23.220   9.575  25.339 -0.1040 -0.0151 -0.1540
  709BOLB   PO116994  23.110   9.726  25.737  0.2600 -0.2506 -0.0267
  709BOLB   GL116995  23.512   9.723  25.714 -0.0613 -0.0759  0.2477
  709BOLB   GL216996  23.682   9.765  25.552 -0.0262 -0.2060  0.0387
  709BOLB   C1A16997  24.018   9.684  25.891 -0.4300  0.1125  0.1849
  709BOLB   C2A16998  24.333   9.445  25.735  0.0714  0.1593  0.0526
  709BOLB   C3A16999  24.784   9.258  25.672 -0.0843 -0.2917 -0.1172
  709BOLB   C4A17000  25.176   9.245  25.938 -0.5567  0.0829  0.0682
  709BOLB   C1B17001  24.127   9.640  25.382  0.3279  0.1841 -0.1113
  709BOLB   C2B17002  24.548   9.413  25.278 -0.0902  0.1074 -0.2329
  709BOLB   C3B17003  24.659   9.026  25.201 -0.3440  0.1459 -0.1181
  709BOLB   C4B17004  24.938   8.854  24.879  0.2846  0.2986 -0.3196
  709BOLB   NC217005   0.303   9.513  26.249 -0.0883 -0.1824  0.0800
  709BOLB   PO217006   0.267   9.770  26.655  0.0537  0.2216 -0.0496
  709BOLB   GL317007  26.946   9.664  26.590  0.0462  0.3428 -0.1626
  709BOLB   GL417008  26.753   9.826  26.783 -0.3632  0.0058 -0.2513
  709BOLB   C1C17009  26.707   9.639  26.170  0.4317 -0.2529  0.0106
  709BOLB   C2C17010  26.353   9.462  25.970 -0.1314 -0.3035 -0.0249
  709BOLB   C3C17011  26.002   9.420  26.027  0.0334 -0.2216 -0.1404
  709BOLB   C4C17012  25.639   9.132  26.079  0.0474  0.0865 -0.1073
  709BOLB   C1D17013  26.478   9.688  26.921 -0.0198 -0.5740 -0.0599
  709BOLB   C2D17014  25.996   9.484  26.839  0.2509  0.0452  0.1379
  709BOLB   C3D17015  25.679   9.663  26.889 -0.0956  0.1771  0.0659
  709BOLB   C4D17016  25.399   9.631  27.171  0.5792  0.1408 -0.0333
  710BOLB   NC117017  20.332   5.700  27.059 -0.1238 -0.0422  0.2033
  710BOLB   PO117018  20.367   5.278  27.092  0.0156 -0.2915 -0.1001
  710BOLB   GL117019  20.497   4.845  27.070 -0.2548  0.1565 -0.1538
  710BOLB   GL217020  20.852   4.836  27.123 -0.2809  0.0005  0.1660
  710BOLB   C1A17021  20.485   4.499  27.025 -0.0682 -0.4036 -0.0756
  710BOLB   C2A17022  20.831   4.197  26.965  0.0099 -0.0823 -0.0326
  710BOLB   C3A17023  21.112   3.862  26.899 -0.0677 -0.3941 -0.0450
  710BOLB   C4A17024  21.459   3.518  26.666  0.0259  0.0155  0.0990
  710BOLB   C1B17025  21.000   4.590  27.329  0.0639  0.1380  0.2933
  710BOLB   C2B17026  21.185   4.159  27.351 -0.1162 -0.1241 -0.3425
  710BOLB   C3B17027  21.570   3.858  27.337 -0.2151 -0.0876 -0.0774
  710BOLB   C4B17028  21.832   3.661  27.045  0.0433  0.1584 -0.0279
  710BOLB   NC217029  22.754   1.844  25.718  0.1702 -0.0208  0.0806
  710BOLB   PO217030  22.544   1.506  25.458  0.1390 -0.0246  0.0111
  710BOLB   GL317031  22.281   1.841  25.534  0.1929 -0.2478 -0.0650
  710BOLB   GL417032  22.417   2.091  25.400  0.5252  0.0636  0.1669
  710BOLB   C1C17033  22.111   2.096  25.850 -0.0578  0.4835 -0.1331
  710BOLB   C2C17034  21.821   2.421  26.063  0.0594  0.0550 -0.2490
  710BOLB   C3C17035  21.646   2.675  26.423  0.2020  0.0859  0.2361
  710BOLB   C4C17036  21.349   3.075  26.594 -0.2505 -0.1028  0.0657
  710BOLB   C1D17037  22.144   2.374  25.487  0.1540 -0.1831  0.1227
  710BOLB   C2D17038  22.058   2.748  25.560 -0.2166 -0.0433  0.0866
  710BOLB   C3D17039  22.070   3.112  25.776 -0.0650 -0.0067 -0.1835
  710BOLB   C4D17040  21.838   3.520  25.760  0.0649  0.2523 -0.0789
  711BOLB   NC117041  15.013  10.763  39.434 -0.0200 -0.3478  0.2019
  711BOLB   PO117042  14.693  10.776  39.654  0.2064  0.0977 -0.1338
  711BOLB   GL117043  14.652  10.556  40.089  0.1064 -0.0870  0.2895
  711BOLB   GL217044  14.689  10.810  40.235 -0.3041  0.2248 -0.2588
  711BOLB   C1A17045  14.415  10.431  40.399 -0.1349 -0.1095 -0.2637
  711BOLB   C2A17046  14.296  10.296  40.840  0.0826 -0.2530  0.1795
  711BOLB   C3A17047  14.322   9.907  41.133 -0.0678 -0.1213 -0.1104
  711BOLB   C4A17048  14.294   9.435  41.130  0.5288  0.0712 -0.0753
  711BOLB   C1B17049  14.839  10.666  40.573 -0.3814 -0.2358 -0.0082
  711BOLB   C2B17050  14.918  10.643  41.046  0.1213 -0.2293  0.2527
  711BOLB   C3B17051  15.195  10.550  41.317 -0.1486  0.0272 -0.1951
  711BOLB   C4B17052  15.499  10.382  41.671 -0.0664  0.1531 -0.1164
  711BOLB   NC217053  13.751   7.909  42.978 -0.0940 -0.4135 -0.1027
  711BOLB   PO217054  13.434   8.018  42.698 -0.1429  0.0331 -0.0392
  711BOLB   GL317055  13.553   8.047  42.399  0.0236 -0.2082  0.2824
  711BOLB   GL417056  13.793   7.917  42.321  0.1052 -0.0640  0.1144
  711BOLB   C1C17057  13.776   8.291  42.055  0.0054 -0.1280  0.2063
  711BOLB   C2C17058  13.706   8.642  41.807 -0.3618  0.1562 -0.0674
  711BOLB   C3C17059  13.784   8.800  41.434 -0.1628  0.0243 -0.0952
  711BOLB   C4C17060  14.047   9.093  41.173  0.3400 -0.2230 -0.1636
  711BOLB   C1D17061  13.831   7.778  41.905 -0.1144 -0.2352 -0.0633
  711BOLB   C2D17062  13.593   7.791  41.584 -0.1644 -0.0467  0.0044
  711BOLB   C3D17063  13.390   7.804  41.268  0.2092 -0.2899 -0.0534
  711BOLB   C4D17064  13.070   7.631  41.048 -0.0748 -0.1434  0.1427
  712BOLB   NC117065  19.675  12.168  39.193 -0.0982  0.2304  0.0381
  712BOLB   PO117066  19.841  11.777  38.838  0.0681  0.0004 -0.1346
  712BOLB   GL117067  20.129  11.833  39.158 -0.0160  0.2066 -0.6748
  712BOLB   GL217068  20.430  11.666  39.173 -0.1604  0.2777  0.0958
  712BOLB   C1A17069  20.369  11.887  39.634  0.0930 -0.3082 -0.1212
  712BOLB   C2A17070  20.562  12.204  39.951  0.0315  0.3701 -0.0752
  712BOLB   C3A17071  20.536  12.517  40.230  0.1871 -0.0165  0.3019
  712BOLB   C4A17072  20.854  12.615  40.442 -0.2900 -0.3056 -0.0048
  712BOLB   C1B17073  20.754  11.854  39.305  0.0902 -0.0375  0.1758
  712BOLB   C2B17074  21.032  12.133  39.592  0.3567  0.2218 -0.1476
  712BOLB   C3B17075  21.078  12.353  39.999 -0.0094  0.1037  0.1791
  712BOLB   C4B17076  21.355  12.618  40.185 -0.2414 -0.0705  0.3315
  712BOLB   NC217077  22.172  12.936  41.729 -0.3073 -0.0815 -0.1110
  712BOLB   PO217078  22.000  13.271  42.011 -0.1011 -0.0585  0.1867
  712BOLB   GL317079  21.818  13.233  41.615  0.2580 -0.1494 -0.2811
  712BOLB   GL417080  21.729  13.539  41.622 -0.0810  0.3349 -0.1840
  712BOLB   C1C17081  21.755  13.019  41.231  0.0263  0.0491  0.2619
  712BOLB   C2C17082  21.768  12.967  40.888 -0.0917  0.0548  0.0029
  712BOLB   C3C17083  21.560  12.771  40.630 -0.3342 -0.0178 -0.1861
  712BOLB   C4C17084  21.140  12.635  40.698  0.1345  0.2589  0.4931
  712BOLB   C1D17085  21.358  13.375  41.326 -0.0815 -0.4187  0.1502
  712BOLB   C2D17086  21.274  13.038  40.897 -0.2599 -0.0605 -0.1854
  712BOLB   C3D17087  20.806  12.957  40.913 -0.1604  0.1426  0.3770
  712BOLB   C4D17088  20.601  12.747  41.301  0.1150 -0.1104  0.0341
  713BOLB   NC117089  11.215  18.887  35.240 -0.1553  0.2091  0.2190
  713BOLB   PO117090  11.004  19.161  34.907  0.0676  0.2833  0.2416
  713BOLB   GL117091  10.703  19.474  35.104  0.0625  0.2262 -0.2136
  713BOLB   GL217092  10.996  19.719  35.195  0.0064  0.0964  0.0817
  713BOLB   C1A17093  10.402  19.715  35.250 -0.1628 -0.3716  0.3301
  713BOLB   C2A17094  10.055  19.929  35.493 -0.0069 -0.1084  0.0187
  713BOLB   C3A17095   9.836  20.294  35.518  0.1438 -0.0908  0.1320
  713BOLB   C4A17096   9.608  20.799  35.460 -0.3224  0.0177  0.1175
  713BOLB   C1B17097  10.801  19.908  35.466  0.3378 -0.0222  0.1896
  713BOLB   C2B17098  10.513  20.154  35.700 -0.1293  0.1357 -0.0842
  713BOLB   C3B17099  10.530  20.534  35.953  0.2363 -0.0450 -0.2468
  713BOLB   C4B17100  10.795  20.856  36.055 -0.2215 -0.1593 -0.0536
  713BOLB   NC217101   8.865  23.143  35.446 -0.0182  0.0361  0.1166
  713BOLB   PO217102   8.375  23.191  35.540  0.2845  0.1546  0.1827
  713BOLB   GL317103   8.626  22.744  35.599  0.2199 -0.0244 -0.0235
  713BOLB   GL417104   8.954  22.761  35.731  0.1156 -0.1444 -0.0485
  713BOLB   C1C17105   8.534  22.236  35.628 -0.1106  0.0057  0.0144
  713BOLB   C2C17106   8.712  21.683  35.651 -0.1648  0.1009  0.1323
  713BOLB   C3C17107   9.044  21.458  35.679  0.1414 -0.5004 -0.1991
  713BOLB   C4C17108   9.355  21.181  35.665  0.3146  0.0150  0.2712
  713BOLB   C1D17109   9.027  22.326  35.642 -0.1918 -0.3557  0.1726
  713BOLB   C2D17110   9.274  22.012  35.888 -0.2238 -0.0810 -0.2085
  713BOLB   C3D17111   9.537  21.683  35.741  0.3684  0.1839  0.2748
  713BOLB   C4D17112   9.863  21.620  35.792  0.0929 -0.5935 -0.0674
  714BOLB   NC117113  13.774  21.302  30.733  0.0736 -0.2365 -0.0964
  714BOLB   PO117114  13.816  21.175  31.146 -0.0246 -0.1159 -0.0371
  714BOLB   GL117115  14.100  21.517  31.167 -0.0422 -0.0124 -0.1277
  714BOLB   GL217116  14.318  21.539  31.407 -0.1590 -0.0884 -0.0996
  714BOLB   C1A17117  14.040  22.010  31.303 -0.0655  0.0856  0.1406
  714BOLB   C2A17118  13.737  22.145  31.649 -0.0985  0.1929  0.0699
  714BOLB   C3A17119  13.590  22.576  31.826 -0.0855 -0.2967  0.0727
  714BOLB   C4A17120  13.568  23.065  31.773 -0.0407 -0.1207 -0.2855
  714BOLB   C1B17121  14.533  22.000  31.450 -0.0362  0.0563  0.3509
  714BOLB   C2B17122  14.359  22.326  31.515 -0.0954 -0.0987 -0.0504
  714BOLB   C3B17123  14.032  22.564  31.342  0.0972 -0.2015 -0.0723
  714BOLB   C4B17124  13.997  22.821  31.013  0.0749  0.0467 -0.4078
  714BOLB   NC217125  14.208  25.272  32.104 -0.3259 -0.0865 -0.1163
  714BOLB   PO217126  14.429  25.167  32.478 -0.2599  0.0445 -0.1429
  714BOLB   GL317127  14.329  24.769  32.462 -0.0761  0.0119 -0.3384
  714BOLB   GL417128  14.079  24.794  32.157 -0.4574 -0.1015 -0.0938
  714BOLB   C1C17129  14.509  24.454  32.262 -0.1295 -0.1571  0.2340
  714BOLB   C2C17130  14.527  24.029  32.165  0.1539  0.1438 -0.0658
  714BOLB   C3C17131  14.231  23.732  31.891  0.4183 -0.1161  0.0150
  714BOLB   C4C17132  13.867  23.375  31.782 -0.3443  0.0205  0.1321
  714BOLB   C1D17133  13.710  24.583  32.210 -0.0784  0.1196  0.0644
  714BOLB   C2D17134  13.519  24.289  32.071  0.0299  0.3128 -0.0571
  714BOLB   C3D17135  13.655  23.903  31.874  0.2487  0.0847  0.3377
  714BOLB   C4D17136  13.351  23.632  31.691 -0.1516 -0.0562 -0.2662
  715BOLB   NC117137   9.891  14.674  24.295 -0.1561 -0.1074  0.0086
  715BOLB   PO117138   9.715  15.079  24.050 -0.3759 -0.1052 -0.0759
  715BOLB   GL117139   9.417  14.970  23.836  0.1059  0.0949 -0.1641
  715BOLB   GL217140   9.449  14.934  23.439  0.1851 -0.0944 -0.0485
  715BOLB   C1A17141   9.059  14.986  23.820  0.2109  0.0530 -0.1475
  715BOLB   C2A17142   8.626  15.060  23.686 -0.1092 -0.0130  0.1491
  715BOLB   C3A17143   8.368  14.734  23.479  0.1024  0.0504  0.0972
  715BOLB   C4A17144   8.105  14.470  23.741 -0.0438  0.1706  0.0627
  715BOLB   C1B17145   9.023  15.140  23.305  0.0048 -0.1201 -0.2041
  715BOLB   C2B17146   8.639  15.003  23.160 -0.3562  0.1872 -0.1933
  715BOLB   C3B17147   8.570  15.047  22.713 -0.0713  0.1517  0.0464
  715BOLB   C4B17148   8.312  15.320  22.334  0.0119  0.1919  0.1370
  715BOLB   NC217149   6.132  14.867  21.865  0.0355  0.0870 -0.1661
  715BOLB   PO217150   6.611  14.637  21.768  0.1324  0.0908  0.1662
  715BOLB   GL317151   6.947  14.468  21.917 -0.1238 -0.1798  0.1336
  715BOLB   GL417152   7.196  14.612  21.730 -0.2335  0.1747 -0.0541
  715BOLB   C1C17153   6.991  14.309  22.395  0.3340  0.0742  0.2624
  715BOLB   C2C17154   7.079  14.493  22.851 -0.1357 -0.1108 -0.2413
  715BOLB   C3C17155   7.285  14.532  23.322  0.2035  0.2666 -0.2502
  715BOLB   C4C17156   7.664  14.451  23.591  0.2166  0.1716  0.0548
  715BOLB   C1D17157   7.542  14.465  21.906  0.1862 -0.1268 -0.0284
  715BOLB   C2D17158   7.611  14.560  22.340 -0.0055  0.1351 -0.5482
  715BOLB   C3D17159   7.907  14.376  22.597  0.2503  0.0093  0.1615
  715BOLB   C4D17160   8.106  14.100  22.958  0.0381 -0.4447 -0.2412
  716BOLB   NC117161   4.011  13.045  24.566  0.0041 -0.1089 -0.1698
  716BOLB   PO117162   4.305  12.803  24.466 -0.0210 -0.0508  0.0329
  716BOLB   GL117163   4.694  12.613  24.764 -0.1647 -0.0168  0.1313
  716BOLB   GL217164   4.842  12.376  24.604  0.3721  0.0099 -0.3078
  716BOLB   C1A17165   5.066  12.749  25.084 -0.0441  0.1963 -0.3362
  716BOLB   C2A17166   5.501  12.660  25.264 -0.2028 -0.0872  0.0687
  716BOLB   C3A17167   5.893  12.593  25.428  0.1572  0.0063  0.2963
  716BOLB   C4A17168   6.300  12.654  25.244  0.2813  0.1674  0.2699
  716BOLB   C1B17169   5.255  12.278  24.707 -0.0347 -0.3227 -0.1908
  716BOLB   C2B17170   5.534  12.182  25.110 -0.0353 -0.1679 -0.0171
  716BOLB   C3B17171   5.677  12.204  25.546  0.1123  0.1962 -0.1022
  716BOLB   C4B17172   5.839  11.931  25.819 -0.0339 -0.1883 -0.0755
  716BOLB   NC217173   5.507  12.878  23.370  0.0849  0.2604 -0.0398
  716BOLB   PO217174   5.826  12.634  23.159  0.1335 -0.1358  0.0555
  716BOLB   GL317175   5.939  12.798  23.615  0.2616  0.0366  0.3272
  716BOLB   GL417176   5.667  13.023  23.823  0.0302  0.3786  0.0084
  716BOLB   C1C17177   5.984  12.704  24.099  0.2988  0.1151 -0.0474
  716BOLB   C2C17178   6.092  12.371  24.270  0.3009  0.2022 -0.1243
  716BOLB   C3C17179   6.368  12.255  24.591  0.0137  0.0431  0.2017
  716BOLB   C4C17180   6.429  12.359  25.011 -0.0308  0.1906  0.0527
  716BOLB   C1D17181   6.052  13.251  23.947 -0.1687 -0.0975 -0.1688
  716BOLB   C2D17182   6.216  13.568  24.080 -0.0518  0.0710  0.1423
  716BOLB   C3D17183   6.554  13.606  24.275 -0.0733  0.0300 -0.1237
  716BOLB   C4D17184   7.011  13.499  24.510  0.0102  0.1379  0.0006
  717BOLB   NC117185   8.480  10.658  33.460 -0.2083 -0.3449  0.0354
  717BOLB   PO117186   8.226  10.452  33.746 -0.0221  0.1163 -0.0465
  717BOLB   GL117187   8.036  10.299  34.092  0.2754  0.0724  0.0186
  717BOLB   GL217188   8.036  10.526  34.431  0.2439  0.1655  0.0100
  717BOLB   C1A17189   7.833  10.034  34.452 -0.1818  0.0407  0.2020
  717BOLB   C2A17190   7.798   9.839  34.735 -0.3855 -0.3759  0.0050
  717BOLB   C3A17191   7.433   9.643  34.866  0.0414 -0.2979  0.2851
  717BOLB   C4A17192   6.955   9.583  34.966 -0.2394 -0.3512 -0.1807
  717BOLB   C1B17193   7.704  10.459  34.681 -0.1844  0.0277  0.1452
  717BOLB   C2B17194   7.306  10.185  34.619 -0.2297 -0.2084  0.0502
  717BOLB   C3B17195   6.894   9.916  34.546  0.1806  0.0167  0.3993
  717BOLB   C4B17196   6.760   9.555  34.338 -0.2979  0.0064  0.1400
  717BOLB   NC217197   5.657   8.514  36.425  0.1354  0.2137  0.0007
  717BOLB   PO217198   5.247   8.749  36.519  0.2123  0.1930  0.0062
  717BOLB   GL317199   5.590   9.000  36.292 -0.0880 -0.1119 -0.0493
  717BOLB   GL417200   5.549   9.396  36.180  0.2181 -0.1522  0.0470
  717BOLB   C1C17201   5.920   9.105  35.997 -0.1352  0.2613 -0.1138
  717BOLB   C2C17202   6.276   9.202  35.789 -0.2043  0.0967  0.1747
  717BOLB   C3C17203   6.497   9.446  35.510 -0.2329 -0.0963 -0.0008
  717BOLB   C4C17204   6.705   9.414  35.234  0.2132 -0.2130 -0.2013
  717BOLB   C1D17205   5.915   9.545  36.122 -0.3702 -0.4415 -0.3579
  717BOLB   C2D17206   6.324   9.755  35.900 -0.1614  0.1113  0.2972
  717BOLB   C3D17207   6.715   9.725  35.991 -0.0344 -0.1986 -0.3601
  717BOLB   C4D17208   7.087   9.765  36.167 -0.0275  0.0277  0.0347
  718BOLB   NC117209  20.134   5.925  24.495  0.2636  0.0908  0.0748
  718BOLB   PO117210  19.923   6.160  24.172  0.2634 -0.0434  0.0963
  718BOLB   GL117211  20.073   5.721  24.020  0.3775 -0.1872 -0.0232
  718BOLB   GL217212  19.858   5.567  23.834  0.5964 -0.3417  0.0608
  718BOLB   C1A17213  20.335   5.477  23.800  0.2646  0.1339 -0.1072
  718BOLB   C2A17214  20.530   5.066  23.795  0.1055  0.0528 -0.1238
  718BOLB   C3A17215  20.685   4.568  23.767  0.1615 -0.0396 -0.0279
  718BOLB   C4A17216  20.576   4.239  23.556  0.2610 -0.0007  0.0193
  718BOLB   C1B17217  19.777   5.345  23.445 -0.2597  0.0937 -0.0360
  718BOLB   C2B17218  20.175   5.120  23.372 -0.4576  0.0253 -0.0970
  718BOLB   C3B17219  20.493   4.866  23.184 -0.0617 -0.1943 -0.0093
  718BOLB   C4B17220  20.896   4.701  23.171 -0.0049  0.1214 -0.0508
  718BOLB   NC217221  21.168   2.358  22.018 -0.0163  0.1397 -0.2856
  718BOLB   PO217222  20.645   2.368  21.771 -0.4611  0.2802 -0.1356
  718BOLB   GL317223  20.554   2.865  21.868 -0.0070 -0.1115  0.0932
  718BOLB   GL417224  20.644   3.137  21.686  0.2602  0.3260  0.2029
  718BOLB   C1C17225  20.557   3.164  22.303  0.0314 -0.0611 -0.0193
  718BOLB   C2C17226  20.449   3.320  22.631  0.1227  0.2187  0.1917
  718BOLB   C3C17227  20.539   3.680  23.038  0.1353 -0.1549  0.4053
  718BOLB   C4C17228  20.538   3.878  23.424 -0.0061  0.0726 -0.1225
  718BOLB   C1D17229  20.807   3.466  21.986  0.4074 -0.1874 -0.0711
  718BOLB   C2D17230  20.646   3.697  22.336 -0.2594 -0.0960  0.2907
  718BOLB   C3D17231  20.389   4.002  22.645 -0.1498 -0.1975 -0.0092
  718BOLB   C4D17232  20.291   4.135  23.073  0.0681 -0.0024 -0.0796
  719BOLB   NC117233  21.097   8.387  36.282  0.1857 -0.4287 -0.2280
  719BOLB   PO117234  21.293   8.642  36.447 -0.3142 -0.2138 -0.0903
  719BOLB   GL117235  21.627   8.740  36.712 -0.2375  0.0790  0.0284
  719BOLB   GL217236  21.780   8.452  36.599 -0.1566 -0.2739 -0.1600
  719BOLB   C1A17237  21.941   8.684  37.031  0.2298 -0.1084 -0.6233
  719BOLB   C2A17238  22.339   8.682  37.147  0.0616 -0.1736 -0.0872
  719BOLB   C3A17239  22.620   8.614  37.483  0.2485  0.3412  0.2689
  719BOLB   C4A17240  22.762   8.317  37.775 -0.4175  0.2836 -0.3625
  719BOLB   C1B17241  22.170   8.316  36.797  0.2336  0.2035  0.1863
  719BOLB   C2B17242  22.560   8.222  37.141  0.1302  0.2482  0.2012
  719BOLB   C3B17243  22.971   8.352  37.304 -0.0784  0.0084  0.0859
  719BOLB   C4B17244  23.096   8.610  37.586 -0.0414 -0.2517  0.1186
  719BOLB   NC217245  23.928   7.772  39.441  0.0560  0.0533  0.2306
  719BOLB   PO217246  23.767   7.368  39.372 -0.0187 -0.1374  0.1943
  719BOLB   GL317247  23.481   7.778  39.320  0.1679  0.1995 -0.0167
  719BOLB   GL417248  23.538   7.756  39.119  0.0220  0.0907  0.3882
  719BOLB   C1C17249  23.521   8.254  39.194 -0.2234 -0.1286  0.0090
  719BOLB   C2C17250  23.327   8.337  38.857  0.0375 -0.0347  0.1064
  719BOLB   C3C17251  23.298   8.245  38.461  0.1338 -0.1125 -0.0391
  719BOLB   C4C17252  23.030   8.200  38.140 -0.0283 -0.1612  0.4123
  719BOLB   C1D17253  23.328   7.747  38.817 -0.0482  0.2187 -0.0612
  719BOLB   C2D17254  23.088   7.783  38.377  0.2167  0.1100  0.0881
  719BOLB   C3D17255  22.654   7.906  38.308  0.0081  0.1715 -0.0411
  719BOLB   C4D17256  22.303   8.055  38.371 -0.0656 -0.2227 -0.0365
  720BOLB   NC117257  18.490  19.359  28.711 -0.3365  0.2298  0.0620
  720BOLB   PO117258  18.674  19.438  29.110 -0.2914 -0.1900 -0.0537
  720BOLB   GL117259  18.938  19.652  29.189 -0.4057  0.0771 -0.1680
  720BOLB   GL217260  19.215  19.488  29.188 -0.0512 -0.0734  0.0621
  720BOLB   C1A17261  19.276  19.970  28.967 -0.2181  0.1609 -0.0512
  720BOLB   C2A17262  19.514  20.291  28.975  0.0977  0.2960 -0.5154
  720BOLB   C3A17263  19.808  20.676  28.880  0.2062  0.0680  0.1981
  720BOLB   C4A17264  20.148  20.978  28.813  0.1173  0.0777  0.0475
  720BOLB   C1B17265  19.566  19.690  29.228 -0.1026 -0.0094 -0.0962
  720BOLB   C2B17266  19.921  20.057  29.078 -0.4102  0.1481 -0.0218
  720BOLB   C3B17267  20.040  20.269  28.734  0.3942 -0.1410  0.1007
  720BOLB   C4B17268  20.136  20.619  28.361  0.2044 -0.0225 -0.3358
  720BOLB   NC217269  22.751  21.132  29.033 -0.0263  0.1008  0.0482
  720BOLB   PO217270  22.428  21.437  28.808  0.0478  0.1257 -0.1058
  720BOLB   GL317271  21.960  21.229  28.823  0.0180 -0.0350  0.0595
  720BOLB   GL417272  21.739  21.365  28.535  0.0716 -0.4241 -0.0594
  720BOLB   C1C17273  21.581  21.287  29.004  0.2434  0.2792 -0.0877
  720BOLB   C2C17274  21.165  21.148  28.810 -0.3186 -0.0124  0.1669
  720BOLB   C3C17275  20.847  21.066  28.595 -0.2331 -0.1273  0.0894
  720BOLB   C4C17276  20.409  21.018  28.639  0.2805 -0.1622  0.5574
  720BOLB   C1D17277  21.308  21.206  28.320 -0.0915  0.1620  0.1638
  720BOLB   C2D17278  21.201  20.739  28.427  0.0688  0.1705  0.1885
  720BOLB   C3D17279  20.991  20.483  28.647 -0.2449  0.0513 -0.0616
  720BOLB   C4D17280  20.556  20.533  28.721  0.0094 -0.0487  0.0824
  721BOLB   NC117281  21.678   6.810  30.918  0.0655 -0.0838 -0.0699
  721BOLB   PO117282  21.797   6.557  31.345 -0.4104 -0.0450  0.0947
  721BOLB   GL117283  22.076   6.350  31.274  0.1099  0.1323  0.0722
  721BOLB   GL217284  22.016   6.115  31.203  0.0581 -0.0514  0.2256
  721BOLB   C1A17285  22.550   6.234  31.365 -0.2167  0.2492 -0.4220
  721BOLB   C2A17286  22.867   6.070  31.464  0.2890  0.3193  0.3749
  721BOLB   C3A17287  23.172   5.936  31.572 -0.3845  0.0047  0.0597
  721BOLB   C4A17288  23.379   5.491  31.756 -0.0099 -0.1234  0.1402
  721BOLB   C1B17289  22.283   5.809  31.337 -0.1389 -0.0873  0.3941
  721BOLB   C2B17290  22.279   5.379  31.186  0.0107 -0.2500  0.0248
  721BOLB   C3B17291  22.469   4.987  31.201  0.1449 -0.0685  0.1923
  721BOLB   C4B17292  22.267   4.647  31.368  0.0407  0.2668  0.1499
  721BOLB   NC217293  24.933   3.867  31.893  0.2855  0.3393  0.0370
  721BOLB   PO217294  25.305   4.163  31.935  0.1952  0.1117  0.1127
  721BOLB   GL317295  25.086   4.551  31.924  0.0323 -0.2157  0.1541
  721BOLB   GL417296  24.805   4.378  31.783  0.2518  0.3479 -0.1458
  721BOLB   C1C17297  24.726   4.900  31.865  0.0231 -0.0201  0.2532
  721BOLB   C2C17298  24.288   4.885  31.799 -0.0094 -0.2374 -0.1127
  721BOLB   C3C17299  23.963   5.108  32.010 -0.0413 -0.0708 -0.2921
  721BOLB   C4C17300  23.768   5.411  31.889 -0.2549 -0.0953 -0.0647
  721BOLB   C1D17301  24.849   4.662  31.464  0.0602  0.0230 -0.1383
  721BOLB   C2D17302  24.671   4.888  31.188 -0.2533  0.1166 -0.2093
  721BOLB   C3D17303  24.227   4.909  31.103  0.1073 -0.1499 -0.1526
  721BOLB   C4D17304  23.841   4.809  31.025 -0.0506  0.1177 -0.0916
  722BOLB   NC117305   7.490  14.666  31.531 -0.2118  0.5457 -0.1704
  722BOLB   PO117306   7.194  14.384  31.621  0.1972  0.0865 -0.0970
  722BOLB   GL117307   6.845  14.526  31.835  0.2715  0.0339 -0.0459
  722BOLB   GL217308   6.812  14.565  32.163  0.0088 -0.0317  0.1383
  722BOLB   C1A17309   6.393  14.513  31.674  0.1429  0.0288  0.3398
  722BOLB   C2A17310   6.181  14.238  31.381  0.1565 -0.0355  0.0242
  722BOLB   C3A17311   5.862  14.018  31.167  0.1593 -0.0642  0.4066
  722BOLB   C4A17312   5.521  13.783  31.053 -0.3497 -0.1482  0.2326
  722BOLB   C1B17313   6.401  14.811  32.143 -0.0479  0.0478 -0.1011
  722BOLB   C2B17314   5.968  14.771  32.058 -0.0269  0.0932  0.0908
  722BOLB   C3B17315   5.570  14.686  32.072  0.2072  0.0619 -0.1145
  722BOLB   C4B17316   5.209  14.763  31.875  0.0950  0.0402  0.2489
  722BOLB   NC217317   2.812  14.309  30.333 -0.0881 -0.0012 -0.1472
  722BOLB   PO217318   3.068  13.901  30.249  0.0093  0.1582 -0.1218
  722BOLB   GL317319   3.570  13.789  30.278  0.0872 -0.3443  0.1651
  722BOLB   GL417320   3.715  13.678  30.060 -0.2836 -0.1183  0.2535
  722BOLB   C1C17321   3.954  13.945  30.485  0.0022 -0.2870  0.0980
  722BOLB   C2C17322   4.424  13.833  30.484 -0.1253  0.0357 -0.0745
  722BOLB   C3C17323   4.936  13.667  30.382 -0.2151 -0.1564 -0.0334
  722BOLB   C4C17324   5.270  13.633  30.653 -0.1785 -0.3895 -0.1553
  722BOLB   C1D17325   4.026  14.015  29.910 -0.2298 -0.1441 -0.0528
  722BOLB   C2D17326   4.102  14.383  29.730 -0.0318 -0.2358  0.2470
  722BOLB   C3D17327   4.436  14.631  29.627 -0.3150  0.2123 -0.0503
  722BOLB   C4D17328   4.865  14.663  29.817  0.2050 -0.2035 -0.3549
  723BOLB   NC117329  11.793   8.988  22.873 -0.1469 -0.0683  0.1522
  723BOLB   PO117330  11.751   9.452  22.624  0.2398 -0.1459  0.1371
  723BOLB   GL117331  11.407   9.354  22.553 -0.1920 -0.1783  0.1320
  723BOLB   GL217332  11.295   8.976  22.719  0.2738 -0.1617 -0.0064
  723BOLB   C1A17333  10.982   9.096  22.330 -0.3496  0.1190 -0.0245
  723BOLB   C2A17334  10.644   9.093  22.170  0.0592  0.1324  0.1954
  723BOLB   C3A17335  10.446   9.119  21.915  0.2057  0.0264  0.1098
  723BOLB   C4A17336  10.349   9.059  21.446  0.2115  0.0938 -0.2361
  723BOLB   C1B17337  11.369   8.752  22.385 -0.1239  0.1976  0.0291
  723BOLB   C2B17338  11.666   8.303  22.284  0.2806 -0.3218  0.2338
  723BOLB   C3B17339  11.723   7.946  22.176  0.2424  0.1619  0.1446
  723BOLB   C4B17340  11.913   7.682  22.408 -0.1336 -0.2284  0.1034
  723BOLB   NC217341   9.555   8.712  19.286 -0.2197 -0.0972  0.0868
  723BOLB   PO217342   9.316   8.937  19.600 -0.0655 -0.0478  0.3184
  723BOLB   GL317343   9.678   9.119  19.766  0.3188  0.0553 -0.2444
  723BOLB   GL417344   9.818   8.932  19.654 -0.1069 -0.0905 -0.3765
  723BOLB   C1C17345   9.721   9.388  20.209  0.2713  0.1911  0.1064
  723BOLB   C2C17346   9.995   9.539  20.465 -0.1031 -0.1279 -0.3861
  723BOLB   C3C17347  10.157   9.539  20.834  0.0350 -0.1742  0.0126
  723BOLB   C4C17348  10.158   9.340  21.176 -0.0350 -0.1305 -0.1818
  723BOLB   C1D17349  10.198   8.831  19.803  0.1233 -0.1326 -0.0569
  723BOLB   C2D17350  10.614   8.816  19.967 -0.2165  0.0287 -0.0437
  723BOLB   C3D17351  10.900   8.626  20.228  0.1958 -0.0374  0.0584
  723BOLB   C4D17352  11.124   8.294  20.285 -0.3106 -0.0516  0.0489
  724BOLB   NC117353  13.758   8.593  39.181 -0.0382 -0.1124 -0.1303
  724BOLB   PO117354  14.106   8.911  39.274  0.3504  0.1676 -0.1503
  724BOLB   GL117355  13.920   8.874  39.652 -0.4976  0.0996  0.1686
  724BOLB   GL217356  13.925   8.529  39.819  0.2399 -0.3801 -0.1913
  724BOLB   C1A17357  13.503   8.738  39.906  0.0531  0.0231 -0.0050
  724BOLB   C2A17358  13.468   8.454  40.040  0.1902  0.0201 -0.0851
  724BOLB   C3A17359  13.350   8.123  40.201  0.1225 -0.1192  0.0644
  724BOLB   C4A17360  13.412   7.863  40.682  0.0357 -0.1308 -0.3717
  724BOLB   C1B17361  14.276   8.349  39.954  0.0918 -0.5034 -0.2878
  724BOLB   C2B17362  14.337   7.955  40.052 -0.2415  0.2875 -0.2674
  724BOLB   C3B17363  14.047   7.659  40.167  0.0501 -0.0278 -0.0405
  724BOLB   C4B17364  13.896   7.340  40.095  0.2100  0.2038 -0.0472
  724BOLB   NC217365  13.020   6.385  42.984  0.0524  0.1540  0.1994
  724BOLB   PO217366  12.775   6.429  42.542  0.0952  0.1439  0.0063
  724BOLB   GL317367  12.931   6.664  42.224  0.0519  0.1900 -0.0676
  724BOLB   GL417368  13.157   6.486  41.949  0.1272 -0.1168 -0.0257
  724BOLB   C1C17369  12.705   6.819  41.818  0.1925  0.1743  0.0548
  724BOLB   C2C17370  12.907   6.975  41.387  0.0552 -0.1645 -0.0368
  724BOLB   C3C17371  13.204   7.181  41.025  0.1397  0.0667 -0.1947
  724BOLB   C4C17372  13.426   7.447  40.773 -0.0484  0.3541 -0.0727
  724BOLB   C1D17373  13.184   6.546  41.408  0.0385  0.0312  0.1470
  724BOLB   C2D17374  13.221   6.688  41.066 -0.0186 -0.0075  0.0106
  724BOLB   C3D17375  13.347   6.783  40.634 -0.2179 -0.2141  0.0198
  724BOLB   C4D17376  13.523   7.108  40.412 -0.3998 -0.0141  0.0621
  725BOLB   NC117377  14.150   8.911  22.045  0.0852  0.4154  0.3700
  725BOLB   PO117378  13.877   8.596  21.963 -0.0626  0.1368  0.1478
  725BOLB   GL117379  13.552   8.598  21.595  0.0478 -0.1146 -0.0566
  725BOLB   GL217380  13.734   8.638  21.358  0.0576 -0.1620  0.0526
  725BOLB   C1A17381  13.331   8.299  21.364  0.1823  0.0451 -0.0566
  725BOLB   C2A17382  12.991   8.137  21.142 -0.1709 -0.1268 -0.0908
  725BOLB   C3A17383  12.944   7.868  20.866 -0.1219  0.4393 -0.0850
  725BOLB   C4A17384  13.059   7.692  20.360  0.1762 -0.0341  0.1715
  725BOLB   C1B17385  13.823   8.266  21.196 -0.1595  0.0251 -0.0018
  725BOLB   C2B17386  13.724   7.861  20.988 -0.3413  0.1868  0.1974
  725BOLB   C3B17387  13.319   7.526  20.978 -0.0562  0.1077  0.1854
  725BOLB   C4B17388  13.070   7.210  20.652  0.2408 -0.0892  0.0554
  725BOLB   NC217389  12.067   5.553  18.924  0.2099  0.0229  0.0247
  725BOLB   PO217390  12.444   5.689  18.779  0.0146 -0.1128 -0.0137
  725BOLB   GL317391  12.562   5.724  19.196 -0.2445 -0.2681 -0.2869
  725BOLB   GL417392  12.337   5.732  19.378  0.0961 -0.0124  0.1003
  725BOLB   C1C17393  12.767   6.081  19.453 -0.3892  0.2842 -0.2188
  725BOLB   C2C17394  13.005   6.463  19.707  0.1139 -0.0904 -0.0022
  725BOLB   C3C17395  12.997   6.846  19.879 -0.1918  0.1244 -0.3108
  725BOLB   C4C17396  13.093   7.236  20.183 -0.0454 -0.1261  0.0683
  725BOLB   C1D17397  12.345   6.010  19.785  0.0196  0.2075  0.0142
  725BOLB   C2D17398  12.631   6.217  20.009 -0.0716 -0.3023  0.0516
  725BOLB   C3D17399  12.880   6.263  20.397  0.1575  0.1426 -0.1984
  725BOLB   C4D17400  12.608   6.595  20.799  0.0626  0.1925 -0.0473
  726BOLB   NC117401  10.734  11.880  23.382 -0.0851 -0.2164  0.1475
  726BOLB   PO117402  10.273  12.123  23.432  0.3004  0.2576  0.4170
  726BOLB   GL117403   9.889  12.270  23.192 -0.1822  0.3618  0.0063
  726BOLB   GL217404   9.776  11.863  23.236 -0.0556 -0.1758 -0.3025
  726BOLB   C1A17405   9.571  12.444  23.061 -0.1527  0.1092 -0.0671
  726BOLB   C2A17406   9.234  12.593  22.802  0.1560 -0.2841 -0.0799
  726BOLB   C3A17407   8.925  12.544  22.538 -0.0671 -0.0684  0.0463
  726BOLB   C4A17408   8.585  12.620  22.338 -0.0640 -0.0801 -0.0544
  726BOLB   C1B17409   9.427  11.949  22.981 -0.0557  0.1285 -0.2174
  726BOLB   C2B17410   9.067  12.114  22.754  0.1062  0.2572 -0.1721
  726BOLB   C3B17411   8.615  12.137  22.523  0.0606 -0.0519  0.1233
  726BOLB   C4B17412   8.245  12.051  22.303  0.0530 -0.1316  0.4554
  726BOLB   NC217413   6.194  12.619  21.052 -0.0401  0.1235  0.1788
  726BOLB   PO217414   6.244  12.494  21.517  0.2242  0.1449  0.0034
  726BOLB   GL317415   6.468  12.629  21.683 -0.0085 -0.0927  0.2034
  726BOLB   GL417416   6.522  12.980  21.827  0.0648  0.0626  0.0033
  726BOLB   C1C17417   6.858  12.408  21.759 -0.1483 -0.1134 -0.2264
  726BOLB   C2C17418   7.352  12.427  21.813  0.1071 -0.0205  0.1053
  726BOLB   C3C17419   7.830  12.392  21.863 -0.0349  0.4917 -0.3024
  726BOLB   C4C17420   8.206  12.584  22.133  0.2052  0.0296  0.0909
  726BOLB   C1D17421   6.807  12.919  22.183 -0.1964  0.1993 -0.2683
  726BOLB   C2D17422   7.187  12.685  22.243 -0.4845  0.0224  0.0016
  726BOLB   C3D17423   7.488  12.406  22.287 -0.0301 -0.0310  0.0069
  726BOLB   C4D17424   7.663  11.998  22.275 -0.4548  0.0603 -0.0011
  727BOLB   NC117425  17.325   9.097  20.004 -0.2220 -0.1579 -0.0427
  727BOLB   PO117426  17.037   8.934  20.196  0.0409 -0.4760 -0.0783
  727BOLB   GL117427  16.910   8.945  19.716  0.1686  0.1203  0.1495
  727BOLB   GL217428  17.029   8.579  19.680 -0.1724 -0.1472 -0.5937
  727BOLB   C1A17429  16.765   8.875  19.295  0.1754 -0.1285 -0.1340
  727BOLB   C2A17430  16.544   8.558  19.184 -0.1206 -0.0449 -0.1499
  727BOLB   C3A17431  16.409   8.438  18.712  0.0598 -0.0187 -0.2057
  727BOLB   C4A17432  16.516   8.124  18.309  0.0825 -0.2153 -0.1970
  727BOLB   C1B17433  16.807   8.245  19.488  0.0765 -0.3562 -0.1543
  727BOLB   C2B17434  16.548   7.971  19.318  0.1917 -0.0846  0.1065
  727BOLB   C3B17435  16.260   8.078  19.167 -0.3646 -0.0780 -0.0136
  727BOLB   C4B17436  16.147   7.971  18.715 -0.2869 -0.1358 -0.3849
  727BOLB   NC217437  15.567   6.582  16.532  0.2738  0.0474 -0.0726
  727BOLB   PO217438  15.768   6.563  16.956  0.1914  0.1523 -0.0554
  727BOLB   GL317439  15.763   6.853  17.302  0.0291  0.0111 -0.0089
  727BOLB   GL417440  15.980   7.122  17.225  0.1554  0.1492 -0.2152
  727BOLB   C1C17441  15.810   6.821  17.671  0.1402 -0.1832  0.2024
  727BOLB   C2C17442  16.083   7.030  17.822  0.0365 -0.1707 -0.2902
  727BOLB   C3C17443  16.279   7.343  18.155 -0.1936 -0.0782 -0.2613
  727BOLB   C4C17444  16.504   7.706  18.151  0.1037  0.1549 -0.1303
  727BOLB   C1D17445  16.198   7.412  17.549  0.1224 -0.0670 -0.1281
  727BOLB   C2D17446  16.162   7.780  17.837  0.2603 -0.1245 -0.0722
  727BOLB   C3D17447  16.149   8.202  17.894  0.0929 -0.3144 -0.1449
  727BOLB   C4D17448  16.023   8.314  18.337 -0.2923  0.3266 -0.2584
  728BOLB   NC117449   8.471  10.567  32.168 -0.0027  0.1284  0.3213
  728BOLB   PO117450   8.169  10.164  32.324 -0.3611  0.0015 -0.1205
  728BOLB   GL117451   7.925   9.802  32.397 -0.0699 -0.1303  0.2102
  728BOLB   GL217452   7.926   9.494  32.311  0.1107  0.2393  0.0545
  728BOLB   C1A17453   7.705   9.672  32.706  0.1437 -0.2831  0.1807
  728BOLB   C2A17454   7.537   9.304  32.911 -0.0018  0.0184  0.0396
  728BOLB   C3A17455   7.391   8.928  32.985  0.3136 -0.0336  0.3454
  728BOLB   C4A17456   7.168   8.680  32.625 -0.0541  0.2582 -0.0674
  728BOLB   C1B17457   7.555   9.318  32.400  0.0334  0.3562  0.2756
  728BOLB   C2B17458   7.192   9.150  32.462  0.3152  0.3196  0.2245
  728BOLB   C3B17459   6.932   8.948  32.220  0.1149  0.2029  0.2116
  728BOLB   C4B17460   6.494   8.975  32.146 -0.1202  0.1492  0.0534
  728BOLB   NC217461   5.234   7.040  33.246 -0.0263 -0.3697 -0.1612
  728BOLB   PO217462   5.244   7.401  33.043  0.3618  0.1093  0.0688
  728BOLB   GL317463   5.655   7.643  32.798  0.3669 -0.4087  0.1048
  728BOLB   GL417464   5.886   7.858  32.916 -0.1235 -0.0582 -0.4714
  728BOLB   C1C17465   6.024   7.811  32.481  0.1536 -0.0356  0.0656
  728BOLB   C2C17466   6.339   8.161  32.519  0.4035 -0.1061  0.5253
  728BOLB   C3C17467   6.744   8.130  32.313 -0.1793 -0.0414  0.2411
  728BOLB   C4C17468   7.127   8.227  32.480 -0.1939  0.0179 -0.0159
  728BOLB   C1D17469   6.314   8.029  33.010 -0.2710 -0.1928 -0.0504
  728BOLB   C2D17470   6.458   8.401  32.935 -0.1389  0.0600  0.1126
  728BOLB   C3D17471   6.794   8.690  33.029  0.1006 -0.1489  0.0311
  728BOLB   C4D17472   7.009   9.202  32.998  0.1356  0.0714 -0.3564
  729BOLB   NC117473  13.566   9.583  43.392 -0.0518  0.0508  0.2123
  729BOLB   PO117474  13.746   9.756  43.769  0.0422  0.0896 -0.1221
  729BOLB   GL117475  13.932   9.952  43.408  0.1551  0.0268  0.0690
  729BOLB   GL217476  13.778   9.793  42.999 -0.0572  0.1223  0.2772
  729BOLB   C1A17477  14.399  10.154  43.256  0.1794 -0.4955 -0.1324
  729BOLB   C2A17478  14.747  10.537  43.291  0.0385 -0.0517  0.1885
  729BOLB   C3A17479  14.760  10.895  42.968  0.0901 -0.0665 -0.0424
  729BOLB   C4A17480  14.995  11.123  42.834 -0.0281  0.1831 -0.1837
  729BOLB   C1B17481  13.873   9.826  42.611 -0.1949  0.1992  0.1488
  729BOLB   C2B17482  14.094   9.960  42.306  0.2510 -0.0541  0.0118
  729BOLB   C3B17483  14.189   9.794  41.889 -0.0639  0.2062  0.0454
  729BOLB   C4B17484  14.500   9.734  41.600  0.3559  0.0545 -0.2724
  729BOLB   NC217485  15.873  10.475  44.272 -0.2267 -0.2077 -0.0546
  729BOLB   PO217486  16.215  10.463  44.230  0.1961  0.0360  0.0114
  729BOLB   GL317487  16.321  10.580  43.855 -0.1581  0.1775 -0.1158
  729BOLB   GL417488  16.472  10.410  43.593  0.4630 -0.0128 -0.3672
  729BOLB   C1C17489  16.249  10.951  43.646  0.3746  0.1758  0.0453
  729BOLB   C2C17490  16.041  11.333  43.430 -0.2198 -0.4171 -0.0983
  729BOLB   C3C17491  15.669  11.563  43.139 -0.0760 -0.0692 -0.3268
  729BOLB   C4C17492  15.439  11.254  42.850  0.1799 -0.0385 -0.1873
  729BOLB   C1D17493  16.488  10.175  43.167 -0.1633  0.2449 -0.0103
  729BOLB   C2D17494  16.688   9.980  42.747  0.0718  0.1550 -0.1425
  729BOLB   C3D17495  16.826   9.945  42.310 -0.0033  0.0613 -0.2828
  729BOLB   C4D17496  17.017   9.926  41.929 -0.5472  0.1916 -0.0485
  730BOLB   NC117497  12.327  11.773  39.009  0.0684 -0.0701 -0.0174
  730BOLB   PO117498  12.195  11.341  39.063  0.1020  0.1373 -0.0233
  730BOLB   GL117499  11.873  11.401  39.317  0.1466 -0.2178 -0.2228
  730BOLB   GL217500  11.726  11.648  39.430  0.2969 -0.2313  0.1102
  730BOLB   C1A17501  11.554  10.958  39.285 -0.0392 -0.0629 -0.1102
  730BOLB   C2A17502  11.178  10.763  39.583  0.1220 -0.2577 -0.1396
  730BOLB   C3A17503  11.059  10.380  39.887 -0.0223 -0.0664  0.0064
  730BOLB   C4A17504  10.809  10.031  39.973 -0.1228 -0.1382 -0.2104
  730BOLB   C1B17505  11.778  12.051  39.704 -0.1775  0.0116  0.4609
  730BOLB   C2B17506  11.469  12.170  39.962  0.1372  0.1167 -0.0589
  730BOLB   C3B17507  11.006  12.261  40.206 -0.0661 -0.2984 -0.2953
  730BOLB   C4B17508  10.563  12.227  40.277  0.5249  0.2051 -0.1531
  730BOLB   NC217509   9.492   9.204  42.228 -0.1903  0.0907  0.0582
  730BOLB   PO217510   9.475   9.438  41.962 -0.0142 -0.2392  0.0539
  730BOLB   GL317511   9.566   9.560  41.510 -0.0680  0.0963  0.1334
  730BOLB   GL417512   9.542   9.388  41.238 -0.0135 -0.1231 -0.0253
  730BOLB   C1C17513   9.714   9.851  41.207 -0.0987 -0.1168  0.1710
  730BOLB   C2C17514   9.918  10.087  40.952 -0.3265  0.1019 -0.1855
  730BOLB   C3C17515  10.261  10.128  40.623 -0.2603  0.2171 -0.1173
  730BOLB   C4C17516  10.363  10.050  40.237 -0.1876 -0.1656  0.1020
  730BOLB   C1D17517   9.844   9.391  40.787  0.0186  0.1486  0.0129
  730BOLB   C2D17518  10.281   9.443  40.679  0.1438 -0.0513 -0.0961
  730BOLB   C3D17519  10.683   9.546  40.546  0.3372 -0.0703 -0.0772
  730BOLB   C4D17520  10.724   9.550  40.166 -0.1229 -0.1705  0.0768
  731BOLB   NC117521  10.616  21.649  39.604 -0.2083 -0.1829 -0.1233
  731BOLB   PO117522  10.869  21.261  39.300 -0.1565 -0.0036  0.2042
  731BOLB   GL117523  10.958  21.169  38.919  0.0047 -0.0452  0.1145
  731BOLB   GL217524  11.038  21.461  38.775 -0.3873  0.1878  0.1798
  731BOLB   C1A17525  11.260  20.857  38.699 -0.2295  0.0477  0.1722
  731BOLB   C2A17526  11.489  20.520  38.293  0.1894 -0.3088  0.0294
  731BOLB   C3A17527  11.423  20.336  37.912  0.0394 -0.0120 -0.0599
  731BOLB   C4A17528  11.666  20.426  37.603  0.0459  0.1808  0.2792
  731BOLB   C1B17529  11.030  21.228  38.397  0.2841 -0.0987 -0.2415
  731BOLB   C2B17530  11.173  21.259  37.928  0.0784  0.0134 -0.0038
  731BOLB   C3B17531  11.518  21.222  37.718 -0.1556  0.2721  0.2979
  731BOLB   C4B17532  11.858  21.304  37.608 -0.2422 -0.1194 -0.0194
  731BOLB   NC217533  11.506  22.134  38.517 -0.0214 -0.0851 -0.1149
  731BOLB   PO217534  11.856  21.991  38.846  0.0826  0.1499 -0.1124
  731BOLB   GL317535  11.834  21.701  38.373  0.0067 -0.0787  0.0860
  731BOLB   GL417536  11.969  21.955  38.140 -0.1631  0.3098 -0.0405
  731BOLB   C1C17537  11.875  21.381  38.137 -0.1716  0.0561 -0.0146
  731BOLB   C2C17538  12.163  21.014  38.055 -0.1842 -0.3122 -0.3016
  731BOLB   C3C17539  12.295  20.675  37.918 -0.2010 -0.1155  0.1672
  731BOLB   C4C17540  12.071  20.428  37.860  0.2588 -0.1405 -0.1325
  731BOLB   C1D17541  12.235  21.667  37.970 -0.0954 -0.4215 -0.2646
  731BOLB   C2D17542  12.556  21.383  37.858 -0.1633 -0.3690 -0.2105
  731BOLB   C3D17543  12.531  20.989  37.611  0.2764 -0.0633  0.1128
  731BOLB   C4D17544  12.637  20.551  37.605  0.3298 -0.0816 -0.0380
  732BOLB   NC117545  10.202   6.661  30.020 -0.1272  0.1850  0.2370
  732BOLB   PO117546  10.382   6.331  30.363 -0.2206  0.1610  0.1115
  732BOLB   GL117547  10.347   5.936  30.324 -0.3338  0.0590 -0.0052
  732BOLB   GL217548  10.144   5.825  30.533 -0.0394  0.0346  0.0164
  732BOLB   C1A17549  10.328   5.655  29.973  0.1587  0.1021  0.0980
  732BOLB   C2A17550  10.437   5.281  29.836 -0.1751 -0.2213  0.0576
  732BOLB   C3A17551  10.261   4.922  29.753 -0.3252  0.0519 -0.0353
  732BOLB   C4A17552  10.163   4.508  29.686  0.1469 -0.0925  0.1653
  732BOLB   C1B17553   9.762   5.959  30.574  0.2616 -0.2091 -0.0077
  732BOLB   C2B17554   9.423   6.003  30.469  0.2990 -0.2764  0.2801
  732BOLB   C3B17555   8.980   5.945  30.553  0.1909  0.2417 -0.0738
  732BOLB   C4B17556   8.559   5.619  30.578 -0.0265 -0.0271  0.0767
  732BOLB   NC217557   8.993   2.385  29.962 -0.0481  0.1602  0.2284
  732BOLB   PO217558   8.719   2.603  29.832 -0.1937  0.0593 -0.2208
  732BOLB   GL317559   8.988   3.022  29.866 -0.1733  0.0011  0.1866
  732BOLB   GL417560   9.340   2.789  29.976 -0.2986 -0.2545  0.1141
  732BOLB   C1C17561   9.235   3.308  30.023 -0.0227 -0.0998  0.2447
  732BOLB   C2C17562   9.378   3.689  30.142 -0.0054 -0.0152  0.2826
  732BOLB   C3C17563   9.515   4.061  30.092  0.0188 -0.0284  0.0235
  732BOLB   C4C17564   9.836   4.234  29.878  0.1362 -0.0808  0.1473
  732BOLB   C1D17565   9.677   3.027  29.889  0.0272 -0.0863  0.1094
  732BOLB   C2D17566   9.755   3.368  30.075 -0.2526 -0.2340  0.2772
  732BOLB   C3D17567   9.942   3.772  30.196  0.0424  0.0686 -0.0254
  732BOLB   C4D17568  10.283   3.876  30.358 -0.1029  0.1812  0.0187
  733BOLB   NC117569  13.042  16.346  43.166  0.0566 -0.5436  0.1602
  733BOLB   PO117570  12.796  16.375  42.761 -0.1039  0.0625 -0.4296
  733BOLB   GL117571  12.757  16.384  42.257  0.2247  0.2099 -0.3590
  733BOLB   GL217572  12.975  16.190  42.274 -0.0645  0.0592  0.2909
  733BOLB   C1A17573  12.409  16.155  41.891 -0.1940 -0.1762  0.1686
  733BOLB   C2A17574  12.558  15.852  41.622 -0.2193 -0.0969  0.2909
  733BOLB   C3A17575  12.677  15.489  41.276 -0.1328 -0.2320  0.2823
  733BOLB   C4A17576  12.787  15.285  40.994 -0.1886 -0.2071 -0.2857
  733BOLB   C1B17577  12.969  16.101  41.746 -0.0160  0.0954 -0.1213
  733BOLB   C2B17578  13.052  15.806  41.399  0.1124 -0.2582  0.0122
  733BOLB   C3B17579  13.228  15.912  41.010 -0.1568  0.0156 -0.0050
  733BOLB   C4B17580  13.379  16.278  40.995  0.1297  0.1510  0.0070
  733BOLB   NC217581  12.710  15.741  38.653 -0.2838 -0.0937  0.1124
  733BOLB   PO217582  12.843  15.681  39.001 -0.0611  0.0327  0.0986
  733BOLB   GL317583  12.936  15.660  39.406  0.2065  0.1061 -0.0279
  733BOLB   GL417584  12.920  15.446  39.646  0.0659  0.0706  0.2484
  733BOLB   C1C17585  12.528  15.694  39.717  0.0039  0.0207 -0.1771
  733BOLB   C2C17586  12.273  15.578  39.975 -0.1085  0.0829  0.3818
  733BOLB   C3C17587  12.395  15.267  40.260 -0.0684  0.0316 -0.1977
  733BOLB   C4C17588  12.549  15.225  40.645 -0.0068  0.0344 -0.1879
  733BOLB   C1D17589  12.992  15.066  39.925  0.1073 -0.1187  0.0320
  733BOLB   C2D17590  12.965  14.959  40.320  0.1456 -0.0155  0.1564
  733BOLB   C3D17591  12.620  14.740  40.423 -0.4280  0.1026 -0.1109
  733BOLB   C4D17592  12.494  14.350  40.745 -0.0552 -0.2649  0.1553
  734BOLB   NC117593  22.953  11.695  33.400  0.1556 -0.1787 -0.0557
  734BOLB   PO117594  23.421  11.765  33.410  0.1069  0.1626  0.2942
  734BOLB   GL117595  23.821  11.919  33.048  0.0412 -0.2735  0.1355
  734BOLB   GL217596  23.918  12.266  33.093 -0.3546 -0.0005 -0.1460
  734BOLB   C1A17597  24.281  11.778  32.919  0.0650  0.1927  0.3186
  734BOLB   C2A17598  24.751  11.757  33.072 -0.1742  0.1515 -0.0090
  734BOLB   C3A17599  25.143  11.636  33.206 -0.3777  0.1669 -0.1367
  734BOLB   C4A17600  25.456  11.481  33.402  0.1658  0.0218  0.0365
  734BOLB   C1B17601  24.316  12.263  33.024 -0.1894 -0.0463 -0.2034
  734BOLB   C2B17602  24.801  12.286  32.986  0.3123 -0.2997  0.0153
  734BOLB   C3B17603  25.221  12.129  32.824  0.0643 -0.0236  0.1385
  734BOLB   C4B17604  25.622  12.208  32.908 -0.3066 -0.1561  0.1302
  734BOLB   NC217605   0.816  10.726  34.107 -0.0999  0.1537  0.3141
  734BOLB   PO217606   0.523  10.682  34.427 -0.1177  0.0040  0.1102
  734BOLB   GL317607   0.038  10.764  34.370 -0.0698  0.3747  0.1471
  734BOLB   GL417608  27.024  10.579  34.140  0.0669 -0.2202  0.2454
  734BOLB   C1C17609  26.759  10.922  34.360 -0.3241  0.1002 -0.0487
  734BOLB   C2C17610  26.344  11.161  34.324  0.0789  0.0689  0.2739
  734BOLB   C3C17611  26.034  11.263  33.949  0.2654  0.0761  0.0461
  734BOLB   C4C17612  25.684  11.455  33.822  0.3263 -0.2045  0.1273
  734BOLB   C1D17613  26.835  10.675  33.696  0.0439 -0.0853 -0.1741
  734BOLB   C2D17614  26.394  10.730  33.561 -0.2288  0.0348  0.1893
  734BOLB   C3D17615  26.017  10.890  33.602  0.0195 -0.2182 -0.1375
  734BOLB   C4D17616  25.922  11.234  33.411  0.2593  0.0255  0.1788
  735BOLB   NC117617   9.358  18.517  29.039 -0.0898  0.0418  0.2338
  735BOLB   PO117618   9.447  18.893  28.702  0.0125  0.2817  0.0760
  735BOLB   GL117619   9.194  19.195  28.576 -0.1793 -0.0836 -0.0594
  735BOLB   GL217620   9.003  18.897  28.414  0.2919  0.0835  0.1256
  735BOLB   C1A17621   8.922  19.569  28.384 -0.2437  0.0110  0.2338
  735BOLB   C2A17622   8.741  19.891  28.319  0.2885  0.0728  0.0309
  735BOLB   C3A17623   8.455  20.212  28.123  0.1104  0.2368  0.0416
  735BOLB   C4A17624   8.375  20.521  27.916  0.1366 -0.1410  0.1129
  735BOLB   C1B17625   8.774  19.078  28.094  0.0426 -0.1667  0.0045
  735BOLB   C2B17626   8.577  19.359  28.034 -0.0867 -0.0067  0.1060
  735BOLB   C3B17627   8.472  19.671  27.905 -0.1409  0.0440  0.3566
  735BOLB   C4B17628   8.358  20.023  27.669 -0.1637  0.1683  0.1881
  735BOLB   NC217629   7.071  21.805  26.519 -0.0120  0.2538 -0.2994
  735BOLB   PO217630   7.208  22.003  26.218 -0.2211  0.1772 -0.1800
  735BOLB   GL317631   7.333  21.604  26.190 -0.3386  0.4110 -0.1548
  735BOLB   GL417632   7.660  21.615  26.118  0.3389  0.0979 -0.1775
  735BOLB   C1C17633   7.586  21.273  26.544  0.3000  0.1243 -0.4087
  735BOLB   C2C17634   7.948  20.984  26.714 -0.1105  0.3830  0.0032
  735BOLB   C3C17635   8.189  20.774  27.033 -0.2449 -0.0428  0.0486
  735BOLB   C4C17636   8.185  20.559  27.521  0.0786  0.1430  0.0655
  735BOLB   C1D17637   7.993  21.296  26.244  0.0677 -0.4538  0.0147
  735BOLB   C2D17638   8.342  20.935  26.221  0.0133 -0.2966  0.1541
  735BOLB   C3D17639   8.515  20.665  26.071 -0.1558 -0.0085 -0.0002
  735BOLB   C4D17640   8.858  20.421  25.919 -0.1559  0.1582 -0.0121
  736BOLB   NC117641  17.048   4.781  32.732 -0.2350  0.1917 -0.0337
  736BOLB   PO117642  16.939   4.864  33.085  0.1059 -0.2377 -0.0378
  736BOLB   GL117643  17.148   4.543  33.213 -0.2237 -0.1107  0.0501
  736BOLB   GL217644  17.195   4.450  33.421 -0.0774  0.2307 -0.3410
  736BOLB   C1A17645  17.314   4.124  33.016 -0.0420  0.1663 -0.1843
  736BOLB   C2A17646  17.406   3.722  33.170  0.2840  0.1116  0.3402
  736BOLB   C3A17647  17.383   3.297  33.250  0.0993 -0.6017 -0.0562
  736BOLB   C4A17648  17.360   2.930  33.078 -0.2579  0.3078 -0.3320
  736BOLB   C1B17649  17.348   4.086  33.522  0.2201 -0.1484 -0.1912
  736BOLB   C2B17650  17.350   3.702  33.649 -0.2109  0.1761 -0.2442
  736BOLB   C3B17651  17.340   3.265  33.736 -0.1109  0.2561  0.0985
  736BOLB   C4B17652  17.451   2.941  33.567 -0.2099  0.1194  0.2777
  736BOLB   NC217653  17.220   0.187  33.166  0.0384  0.0969  0.0627
  736BOLB   PO217654  16.796   0.208  33.331 -0.0522  0.1592 -0.0064
  736BOLB   GL317655  17.037   0.694  33.324  0.3683  0.0461 -0.1952
  736BOLB   GL417656  16.862   0.782  32.985 -0.0881  0.0666 -0.2035
  736BOLB   C1C17657  17.158   1.122  33.272 -0.2036 -0.0216  0.0887
  736BOLB   C2C17658  17.304   1.553  33.434 -0.3978  0.1846  0.0559
  736BOLB   C3C17659  17.390   1.964  33.262  0.3157 -0.0697  0.2026
  736BOLB   C4C17660  17.382   2.441  33.094 -0.1175 -0.3510 -0.0931
  736BOLB   C1D17661  17.052   0.998  32.608 -0.1687  0.1416 -0.2810
  736BOLB   C2D17662  17.357   1.410  32.425  0.2207 -0.0416 -0.0569
  736BOLB   C3D17663  17.626   1.817  32.390  0.1465 -0.0918  0.0294
  736BOLB   C4D17664  17.637   2.362  32.259  0.0298 -0.1204 -0.0487
  737BOLB   NC117665  21.016  21.908  23.665  0.2794  0.1265 -0.1322
  737BOLB   PO117666  21.217  21.733  23.362 -0.2587 -0.4314  0.0341
  737BOLB   GL117667  20.921  21.478  23.190 -0.0125 -0.0746  0.0216
  737BOLB   GL217668  20.974  21.091  23.367 -0.3682  0.1419 -0.1026
  737BOLB   C1A17669  20.656  21.255  22.820  0.0564 -0.1314 -0.3044
  737BOLB   C2A17670  20.292  21.059  22.783  0.2213  0.0576  0.0900
  737BOLB   C3A17671  20.014  20.740  22.637  0.3314 -0.2406  0.3134
  737BOLB   C4A17672  19.683  20.614  22.394  0.0427  0.1809 -0.1953
  737BOLB   C1B17673  20.661  20.921  23.185  0.0107  0.0447  0.0010
  737BOLB   C2B17674  20.272  20.603  23.051 -0.2591  0.1374 -0.1577
  737BOLB   C3B17675  19.834  20.285  23.113  0.0207  0.0877  0.2980
  737BOLB   C4B17676  19.835  19.917  23.116 -0.3260 -0.0446 -0.3386
  737BOLB   NC217677  21.160  20.960  21.619  0.3663  0.4776 -0.1792
  737BOLB   PO217678  20.928  20.889  21.167  0.1444 -0.2171 -0.2355
  737BOLB   GL317679  20.506  20.709  21.177  0.2971 -0.0999 -0.0291
  737BOLB   GL417680  20.209  20.941  21.351  0.1663 -0.1317 -0.2789
  737BOLB   C1C17681  20.104  20.429  21.073  0.0095  0.0014  0.2136
  737BOLB   C2C17682  19.780  20.315  21.347  0.2860  0.2708  0.1993
  737BOLB   C3C17683  19.601  20.142  21.681 -0.1021  0.0397 -0.0692
  737BOLB   C4C17684  19.540  20.307  22.117 -0.2534 -0.1048 -0.0716
  737BOLB   C1D17685  19.919  21.059  21.666  0.1448  0.1581 -0.2410
  737BOLB   C2D17686  19.813  21.243  22.102 -0.0142  0.1717  0.0382
  737BOLB   C3D17687  19.682  21.449  22.485 -0.2567 -0.2111  0.0159
  737BOLB   C4D17688  19.832  21.261  22.900 -0.0911  0.0975 -0.3004
  738BOLB   NC117689  23.534  12.334  28.635 -0.0035 -0.1173 -0.1025
  738BOLB   PO117690  23.746  11.942  28.991  0.0575  0.2239  0.0572
  738BOLB   GL117691  24.133  12.022  29.269 -0.0705 -0.3209 -0.0875
  738BOLB   GL217692  24.068  12.100  29.638  0.3009 -0.0813  0.4867
  738BOLB   C1A17693  24.543  12.091  29.335  0.1808  0.0378 -0.0755
  738BOLB   C2A17694  24.888  12.081  29.198 -0.1954 -0.1742  0.4183
  738BOLB   C3A17695  25.249  12.158  29.252 -0.2170  0.3046 -0.1957
  738BOLB   C4A17696  25.635  12.262  29.152  0.0075 -0.2042  0.1479
  738BOLB   C1B17697  24.471  12.232  29.790  0.1171  0.1010  0.1854
  738BOLB   C2B17698  24.918  12.295  29.695  0.3185 -0.0196 -0.0728
  738BOLB   C3B17699  25.319  12.156  29.831  0.0759 -0.2940  0.1640
  738BOLB   C4B17700  25.515  11.883  30.088  0.0441  0.2042  0.0950
  738BOLB   NC217701   0.858  12.055  29.906 -0.0823  0.3044 -0.0519
  738BOLB   PO217702   0.953  12.218  29.581  0.0817 -0.1116 -0.3312
  738BOLB   GL317703   0.510  12.046  29.575  0.0421  0.1131 -0.0740
  738BOLB   GL417704   0.487  11.746  29.688 -0.1127 -0.0340 -0.3107
  738BOLB   C1C17705   0.104  12.005  29.385  0.0782 -0.2134 -0.0616
  738BOLB   C2C17706  26.850  11.852  29.553  0.1001  0.1110 -0.0883
  738BOLB   C3C17707  26.403  11.928  29.486 -0.0661 -0.0244  0.1210
  738BOLB   C4C17708  26.010  12.048  29.375  0.1095  0.2851  0.1689
  738BOLB   C1D17709   0.130  12.098  29.938  0.2200  0.1452 -0.1004
  738BOLB   C2D17710  26.717  12.306  29.859  0.1981 -0.0858 -0.1909
  738BOLB   C3D17711  26.401  12.419  29.609 -0.1386  0.1507 -0.1652
  738BOLB   C4D17712  26.422  12.673  29.252  0.3505 -0.1853  0.0277
  739BOLB   NC117713  12.533  11.035  39.133 -0.0472  0.2694  0.0263
  739BOLB   PO117714  13.014  11.182  39.307 -0.2071 -0.0564  0.1296
  739BOLB   GL117715  12.701  10.988  39.695  0.1314  0.2342  0.0122
  739BOLB   GL217716  12.511  10.597  39.667  0.2491 -0.2063  0.2884
  739BOLB   C1A17717  12.584  10.922  40.114 -0.1651 -0.1685  0.0795
  739BOLB   C2A17718  12.623  10.993  40.527  0.0571  0.0000 -0.0933
  739BOLB   C3A17719  12.740  11.098  40.959 -0.2195  0.1809  0.0624
  739BOLB   C4A17720  12.482  11.074  41.314 -0.5295  0.3725  0.0133
  739BOLB   C1B17721  12.218  10.798  39.859 -0.1771  0.4850  0.0768
  739BOLB   C2B17722  11.934  10.987  40.216  0.0058  0.0043 -0.0935
  739BOLB   C3B17723  11.490  11.136  40.240 -0.1855  0.0378  0.1920
  739BOLB   C4B17724  11.083  10.861  40.064  0.0012  0.0373 -0.1581
  739BOLB   NC217725  10.169  10.854  42.477 -0.1260 -0.0173  0.4441
  739BOLB   PO217726  10.264  11.232  42.542  0.1175 -0.1399  0.2177
  739BOLB   GL317727  10.452  11.296  42.110 -0.1010  0.3694 -0.1075
  739BOLB   GL417728  10.117  11.518  41.829 -0.0925  0.0792 -0.0606
  739BOLB   C1C17729  10.749  11.327  41.773  0.0552  0.4118  0.1590
  739BOLB   C2C17730  11.213  11.184  41.649  0.3018  0.0039 -0.1590
  739BOLB   C3C17731  11.719  11.186  41.462  0.3746 -0.0267 -0.1145
  739BOLB   C4C17732  12.155  11.009  41.290 -0.2259 -0.1042 -0.0080
  739BOLB   C1D17733   9.993  11.608  41.468  0.1154 -0.1286  0.2726
  739BOLB   C2D17734   9.943  11.502  41.041 -0.0124 -0.0717 -0.0971
  739BOLB   C3D17735  10.172  11.679  40.705 -0.0210  0.0188  0.3599
  739BOLB   C4D17736  10.476  11.997  40.683  0.5794  0.1061  0.0277
  740BOLB   NC117737   9.138  18.080  32.758 -0.0957 -0.0768 -0.1604
  740BOLB   PO117738   9.181  18.450  32.990  0.1198  0.0694  0.0881
  740BOLB   GL117739   9.253  18.808  33.213 -0.4624  0.1455  0.2477
  740BOLB   GL217740   9.155  18.849  33.549  0.0451  0.0630 -0.0158
  740BOLB   C1A17741   9.122  19.266  33.191 -0.2451 -0.1914  0.1560
  740BOLB   C2A17742   8.779  19.570  33.342  0.1045  0.2352  0.1966
  740BOLB   C3A17743   8.468  19.790  33.571 -0.1145  0.0069 -0.0846
  740BOLB   C4A17744   8.101  20.044  33.395 -0.1948 -0.1042  0.2016
  740BOLB   C1B17745   8.823  19.169  33.643  0.1480  0.3292  0.0829
  740BOLB   C2B17746   8.505  19.325  33.828  0.0746  0.0191  0.1042
  740BOLB   C3B17747   8.273  19.615  34.020  0.0688 -0.0484  0.1906
  740BOLB   C4B17748   7.905  19.827  33.903  0.0726  0.2441  0.0910
  740BOLB   NC217749   6.302  21.422  34.072  0.3212  0.0073 -0.1011
  740BOLB   PO217750   6.062  21.214  33.645  0.1808  0.0690  0.2445
  740BOLB   GL317751   6.463  21.194  33.429  0.2692 -0.0308 -0.2556
  740BOLB   GL417752   6.559  21.343  33.020  0.1691  0.1572  0.2146
  740BOLB   C1C17753   6.862  21.035  33.449 -0.1291 -0.0403 -0.1675
  740BOLB   C2C17754   7.210  20.706  33.506 -0.2027  0.0527 -0.1241
  740BOLB   C3C17755   7.609  20.499  33.648 -0.0857  0.3028  0.1117
  740BOLB   C4C17756   7.719  20.044  33.476  0.0049 -0.0143 -0.2083
  740BOLB   C1D17757   6.767  21.177  32.681 -0.3070 -0.0870  0.5837
  740BOLB   C2D17758   7.181  21.101  32.599  0.0286  0.0444  0.0858
  740BOLB   C3D17759   7.588  21.252  32.524 -0.3972 -0.1224  0.0107
  740BOLB   C4D17760   7.957  21.056  32.497 -0.2392 -0.1664  0.1869
  741BOLB   NC117761  10.637   8.537  35.392 -0.0394 -0.1290 -0.0843
  741BOLB   PO117762  10.378   8.289  34.984  0.1491 -0.2655 -0.0323
  741BOLB   GL117763  10.278   8.125  35.399  0.2018  0.1809 -0.2008
  741BOLB   GL217764  10.454   7.833  35.602 -0.0000  0.4070  0.4363
  741BOLB   C1A17765   9.922   7.963  35.594  0.1285 -0.1787  0.0587
  741BOLB   C2A17766   9.614   7.679  35.666 -0.3335 -0.1099  0.1937
  741BOLB   C3A17767   9.413   7.246  35.863  0.0750 -0.1611  0.0362
  741BOLB   C4A17768   9.078   6.972  36.111 -0.1753 -0.1750 -0.1636
  741BOLB   C1B17769  10.568   7.453  35.886  0.0838 -0.3608 -0.1272
  741BOLB   C2B17770  10.189   7.124  35.991  0.0533  0.0583  0.0205
  741BOLB   C3B17771   9.861   7.044  36.239  0.0113 -0.2110 -0.1091
  741BOLB   C4B17772   9.473   6.927  36.434  0.1680 -0.2392 -0.1430
  741BOLB   NC217773   7.300   4.890  36.932 -0.2496  0.1306  0.1991
  741BOLB   PO217774   7.653   5.163  36.710 -0.0882  0.0683  0.0763
  741BOLB   GL317775   8.192   5.153  36.594 -0.1323  0.1301  0.0224
  741BOLB   GL417776   8.435   4.919  36.542  0.1070 -0.1136 -0.2409
  741BOLB   C1C17777   8.436   5.426  36.404  0.4352  0.1741  0.3042
  741BOLB   C2C17778   8.461   5.747  36.309 -0.0719  0.0474 -0.2696
  741BOLB   C3C17779   8.657   6.137  36.277 -0.1761 -0.2773  0.0292
  741BOLB   C4C17780   9.023   6.534  36.250 -0.2353  0.0087  0.0190
  741BOLB   C1D17781   8.888   5.098  36.557 -0.0030 -0.3246  0.1522
  741BOLB   C2D17782   9.252   5.289  36.424 -0.1330  0.0143  0.1408
  741BOLB   C3D17783   9.591   5.606  36.609 -0.0269 -0.0062 -0.0010
  741BOLB   C4D17784   9.698   5.720  37.078 -0.1185  0.3065  0.0031
  742BOLB   NC117785  22.098  11.816  22.170 -0.0373  0.0055  0.0122
  742BOLB   PO117786  22.010  12.180  21.807 -0.5225 -0.0895  0.4556
  742BOLB   GL117787  22.467  12.098  21.858 -0.2606 -0.0964 -0.0649
  742BOLB   GL217788  22.526  12.108  22.172 -0.2665  0.2460  0.0461
  742BOLB   C1A17789  22.900  11.960  21.735 -0.0435 -0.0525 -0.1207
  742BOLB   C2A17790  23.367  11.991  21.663 -0.1652  0.1217  0.1205
  742BOLB   C3A17791  23.805  12.060  21.913 -0.3388  0.0265 -0.2860
  742BOLB   C4A17792  24.237  12.067  21.726  0.1459 -0.1532 -0.3073
  742BOLB   C1B17793  22.999  12.117  22.215 -0.1640 -0.0110 -0.0068
  742BOLB   C2B17794  23.382  12.354  22.026  0.1816 -0.0090  0.1191
  742BOLB   C3B17795  23.443  12.718  22.057 -0.0150 -0.0155 -0.0682
  742BOLB   C4B17796  23.154  12.994  22.124 -0.2554 -0.3627 -0.0155
  742BOLB   NC217797  26.324  11.182  21.552  0.5656 -0.0320  0.0248
  742BOLB   PO217798  26.484  11.369  21.881  0.0291  0.3560 -0.0198
  742BOLB   GL317799  26.085  11.394  22.087 -0.0050  0.2989  0.1433
  742BOLB   GL417800  26.109  11.770  22.230 -0.0705  0.0700  0.4164
  742BOLB   C1C17801  25.681  11.378  22.076  0.1535  0.0599  0.1592
  742BOLB   C2C17802  25.216  11.276  21.949  0.0430  0.1350 -0.2062
  742BOLB   C3C17803  24.824  11.575  21.960  0.0018 -0.4745 -0.0896
  742BOLB   C4C17804  24.653  11.962  21.810 -0.0481  0.4365 -0.1975
  742BOLB   C1D17805  25.692  11.700  22.472 -0.1446 -0.2565  0.2128
  742BOLB   C2D17806  25.285  11.638  22.303  0.0755  0.2146  0.0148
  742BOLB   C3D17807  25.207  11.874  21.865 -0.0211  0.0268  0.1073
  742BOLB   C4D17808  25.447  12.305  21.690 -0.1378  0.1986 -0.1734
  743BOLB   NC117809  22.899   9.909  32.631  0.1907 -0.1300  0.0673
  743BOLB   PO117810  23.214   9.769  32.872 -0.1699  0.2357 -0.3342
  743BOLB   GL117811  23.512   9.570  32.934 -0.0451 -0.0254 -0.1206
  743BOLB   GL217812  23.822   9.604  32.702 -0.0320 -0.4042 -0.2012
  743BOLB   C1A17813  23.740   9.290  33.219  0.0520  0.0199 -0.0935
  743BOLB   C2A17814  24.036   9.021  33.264 -0.1139 -0.5016 -0.0770
  743BOLB   C3A17815  24.476   8.951  33.296 -0.3118  0.1039 -0.1559
  743BOLB   C4A17816  24.866   9.121  33.045 -0.0063  0.1738 -0.0886
  743BOLB   C1B17817  24.109   9.376  32.729 -0.0028 -0.2348 -0.0837
  743BOLB   C2B17818  24.261   9.430  33.108 -0.0135  0.0637 -0.0493
  743BOLB   C3B17819  24.201   9.383  33.568  0.1696 -0.0368 -0.2634
  743BOLB   C4B17820  24.295   9.136  33.790 -0.4043 -0.0119  0.1905
  743BOLB   NC217821   0.221   8.550  33.021 -0.1262 -0.1434  0.0396
  743BOLB   PO217822   0.341   9.003  33.079 -0.2160  0.1650  0.0998
  743BOLB   GL317823  26.992   9.189  33.089 -0.1521 -0.0984 -0.0267
  743BOLB   GL417824  26.854   9.274  33.413 -0.1863  0.3751 -0.0639
  743BOLB   C1C17825  26.456   9.269  33.116  0.2559  0.1530 -0.2428
  743BOLB   C2C17826  26.057   9.413  32.997 -0.2847 -0.0697 -0.1507
  743BOLB   C3C17827  25.589   9.447  32.877 -0.2118  0.1181  0.2130
  743BOLB   C4C17828  25.225   9.165  32.765 -0.0027  0.1528  0.5358
  743BOLB   C1D17829  26.520   9.126  33.627 -0.0709  0.2793 -0.0049
  743BOLB   C2D17830  26.179   8.861  33.834 -0.0500 -0.2560 -0.2662
  743BOLB   C3D17831  26.059   8.568  34.120  0.1316 -0.0248  0.3117
  743BOLB   C4D17832  26.069   8.148  34.344  0.3551 -0.2208  0.2759
  744BOLB   NC117833   8.497  17.053  27.092 -0.3689 -0.2646 -0.0016
  744BOLB   PO117834   8.687  17.372  27.037 -0.0927  0.2238 -0.1674
  744BOLB   GL117835   8.509  17.659  26.937  0.0798 -0.2009 -0.4298
  744BOLB   GL217836   8.597  17.752  26.663  0.1486  0.0720 -0.1829
  744BOLB   C1A17837   8.020  17.668  26.970  0.0699  0.0920  0.0883
  744BOLB   C2A17838   7.737  17.868  26.935  0.1679 -0.0409 -0.3217
  744BOLB   C3A17839   7.488  18.100  26.739 -0.1651 -0.0043 -0.0485
  744BOLB   C4A17840   7.438  18.507  26.881  0.1435  0.2524 -0.0902
  744BOLB   C1B17841   8.270  17.787  26.485 -0.0914 -0.1207 -0.2342
  744BOLB   C2B17842   7.855  18.034  26.431 -0.1149 -0.0819  0.0022
  744BOLB   C3B17843   7.512  18.188  26.244 -0.0530  0.0330  0.1733
  744BOLB   C4B17844   7.170  18.453  26.051 -0.2449 -0.2953 -0.1713
  744BOLB   NC217845   5.630  20.387  26.629 -0.0700  0.2615 -0.0790
  744BOLB   PO217846   5.914  20.433  26.400  0.1040  0.2455 -0.1844
  744BOLB   GL317847   6.239  20.325  26.673 -0.2466 -0.1107 -0.1425
  744BOLB   GL417848   6.091  20.174  27.002  0.0978 -0.2016  0.0816
  744BOLB   C1C17849   6.363  19.883  26.754 -0.0899  0.2788  0.1266
  744BOLB   C2C17850   6.658  19.670  26.950 -0.3364  0.1073  0.0756
  744BOLB   C3C17851   6.974  19.282  26.935 -0.0994 -0.1976 -0.0493
  744BOLB   C4C17852   7.253  18.881  26.998 -0.0685 -0.0215  0.4155
  744BOLB   C1D17853   6.299  19.873  27.282  0.0879  0.2184  0.1491
  744BOLB   C2D17854   6.557  19.555  27.522 -0.0355 -0.0533  0.2328
  744BOLB   C3D17855   6.852  19.337  27.496  0.0140  0.1297  0.0790
  744BOLB   C4D17856   7.202  18.964  27.535  0.4437 -0.1141  0.2731
  745BOLB   NC117857  16.145   7.419  21.403 -0.0830 -0.5203 -0.1175
  745BOLB   PO117858  16.116   7.810  21.150  0.2862 -0.2128  0.0323
  745BOLB   GL117859  15.906   7.503  20.946 -0.1499  0.2441 -0.0841
  745BOLB   GL217860  15.566   7.425  20.970 -0.2441  0.2072 -0.2174
  745BOLB   C1A17861  15.886   7.010  20.740  0.1578 -0.0246 -0.0541
  745BOLB   C2A17862  15.864   6.689  20.377  0.1550 -0.2421  0.0377
  745BOLB   C3A17863  15.628   6.631  19.984 -0.2407  0.2591  0.0416
  745BOLB   C4A17864  15.912   6.509  19.597  0.2913  0.2376  0.1932
  745BOLB   C1B17865  15.364   7.158  20.633 -0.1614 -0.0940  0.2998
  745BOLB   C2B17866  15.334   6.931  20.274 -0.1539 -0.1922  0.0489
  745BOLB   C3B17867  15.243   6.887  19.829  0.2388 -0.1095  0.0050
  745BOLB   C4B17868  15.374   6.679  19.504 -0.0905  0.4904 -0.1769
  745BOLB   NC217869  14.916   5.063  17.534  0.0209  0.0669  0.1973
  745BOLB   PO217870  15.190   5.020  17.945 -0.0011 -0.0718  0.1242
  745BOLB   GL317871  15.459   4.938  18.274  0.0826 -0.3076  0.1040
  745BOLB   GL417872  15.756   4.852  18.420  0.0158 -0.2892  0.1763
  745BOLB   C1C17873  15.609   5.321  18.577  0.1607  0.0539  0.2625
  745BOLB   C2C17874  15.622   5.635  18.784  0.1778  0.1012 -0.1599
  745BOLB   C3C17875  15.708   6.128  18.856  0.0816 -0.3569 -0.0910
  745BOLB   C4C17876  15.853   6.415  19.238  0.2620  0.0454 -0.1821
  745BOLB   C1D17877  15.880   5.056  18.844 -0.1027 -0.2031  0.2155
  745BOLB   C2D17878  15.963   5.412  19.116  0.1044  0.0374  0.3014
  745BOLB   C3D17879  16.293   5.447  19.446 -0.0995 -0.2861 -0.1589
  745BOLB   C4D17880  16.458   5.579  19.742 -0.2884 -0.3202 -0.1710
  746BOLB   NC117881  18.745   6.505  37.098  0.0905 -0.3752  0.1041
  746BOLB   PO117882  18.270   6.582  37.272 -0.2135 -0.0309 -0.0955
  746BOLB   GL117883  18.135   6.349  37.642  0.2935  0.1833 -0.0433
  746BOLB   GL217884  17.805   6.411  37.656 -0.2632  0.1168 -0.0359
  746BOLB   C1A17885  18.138   6.173  38.029 -0.1591  0.0004 -0.0732
  746BOLB   C2A17886  18.165   6.233  38.439 -0.3053  0.1690  0.0024
  746BOLB   C3A17887  18.263   5.850  38.624  0.0136 -0.0076 -0.1198
  746BOLB   C4A17888  18.378   5.733  39.026  0.0983 -0.2016  0.1018
  746BOLB   C1B17889  17.706   6.409  38.192 -0.0491 -0.0726  0.0883
  746BOLB   C2B17890  17.645   6.083  38.461 -0.1597  0.1343 -0.2219
  746BOLB   C3B17891  17.810   5.799  38.870 -0.2253  0.1606  0.0644
  746BOLB   C4B17892  17.997   5.737  39.351  0.0812 -0.1792 -0.3130
  746BOLB   NC217893  17.986   3.692  40.457 -0.1316  0.1454 -0.0811
  746BOLB   PO217894  18.259   4.053  40.307 -0.0994 -0.3580  0.0291
  746BOLB   GL317895  18.092   4.482  40.190 -0.2907 -0.0087 -0.0809
  746BOLB   GL417896  17.771   4.518  40.009 -0.0232 -0.0773 -0.1478
  746BOLB   C1C17897  18.230   4.869  40.252  0.0211  0.0337  0.1786
  746BOLB   C2C17898  18.271   5.161  40.022 -0.1107  0.3577  0.1147
  746BOLB   C3C17899  18.129   5.335  39.645 -0.3054 -0.2587  0.1951
  746BOLB   C4C17900  18.323   5.394  39.227 -0.0107  0.0932  0.0925
  746BOLB   C1D17901  17.840   4.920  39.732 -0.1902 -0.1213 -0.1775
  746BOLB   C2D17902  17.635   5.342  39.630  0.0997  0.1788  0.2167
  746BOLB   C3D17903  17.422   5.677  39.764  0.0909  0.1194 -0.1594
  746BOLB   C4D17904  17.073   5.774  40.035  0.1520  0.2286  0.0427
  747BOLB   NC117905  14.003   7.863  37.942  0.2861  0.1238 -0.1556
  747BOLB   PO117906  14.227   8.012  38.241 -0.0066 -0.1967 -0.1400
  747BOLB   GL117907  14.172   7.694  38.504 -0.0487  0.0073  0.2770
  747BOLB   GL217908  14.488   7.702  38.563  0.2201 -0.2589  0.0380
  747BOLB   C1A17909  14.121   7.344  38.792  0.2114  0.2901 -0.2180
  747BOLB   C2A17910  14.087   7.181  39.124 -0.2149 -0.3619  0.0484
  747BOLB   C3A17911  14.344   7.059  39.519  0.1455  0.2899 -0.0836
  747BOLB   C4A17912  14.395   6.806  39.919  0.1558  0.0806  0.1176
  747BOLB   C1B17913  14.786   7.385  38.794  0.0711 -0.0208 -0.0815
  747BOLB   C2B17914  14.676   7.067  39.096 -0.2126  0.2006 -0.0582
  747BOLB   C3B17915  14.655   6.763  39.338  0.1052 -0.1539  0.2758
  747BOLB   C4B17916  14.928   6.446  39.615 -0.0802 -0.0764 -0.1781
  747BOLB   NC217917  12.678   5.803  41.764  0.0519  0.2271  0.0135
  747BOLB   PO217918  12.940   5.761  41.368 -0.0825 -0.0053  0.0287
  747BOLB   GL317919  13.243   5.754  41.065 -0.2391  0.0553  0.2612
  747BOLB   GL417920  13.483   5.935  41.186  0.2754  0.0638  0.0309
  747BOLB   C1C17921  13.529   5.739  40.723  0.1639  0.0273  0.0439
  747BOLB   C2C17922  13.889   5.958  40.595 -0.0585  0.0672  0.0764
  747BOLB   C3C17923  14.115   6.203  40.281 -0.1794  0.1997 -0.1820
  747BOLB   C4C17924  14.239   6.518  40.097  0.1277 -0.0583 -0.2040
  747BOLB   C1D17925  13.864   6.082  41.131 -0.0342 -0.0560  0.0354
  747BOLB   C2D17926  14.234   6.297  40.911 -0.3568  0.2279 -0.0905
  747BOLB   C3D17927  14.551   6.361  40.964 -0.1659  0.1340  0.0185
  747BOLB   C4D17928  14.624   6.144  41.364 -0.0552 -0.0782  0.1349
  748BOLB   NC117929  16.873   0.629  34.870 -0.0150  0.0683 -0.0039
  748BOLB   PO117930  16.686   1.062  35.038  0.0736  0.0954  0.0514
  748BOLB   GL117931  16.505   1.378  34.834 -0.3467  0.0322 -0.0193
  748BOLB   GL217932  16.565   1.613  35.132  0.2052  0.2364  0.1705
  748BOLB   C1A17933  16.363   1.835  34.747 -0.0115  0.1297 -0.0501
  748BOLB   C2A17934  16.513   2.304  34.634  0.3451  0.0895  0.1378
  748BOLB   C3A17935  16.559   2.725  34.836 -0.2398  0.0244  0.0525
  748BOLB   C4A17936  16.371   3.067  34.761 -0.0648  0.2587  0.1933
  748BOLB   C1B17937  16.524   1.974  35.408  0.0193 -0.0195 -0.0191
  748BOLB   C2B17938  16.712   2.404  35.253 -0.1420  0.0167  0.0520
  748BOLB   C3B17939  16.663   2.907  35.263 -0.2200 -0.0033 -0.0499
  748BOLB   C4B17940  16.331   3.291  35.306 -0.3257  0.1943 -0.2128
  748BOLB   NC217941  15.865   0.461  35.161 -0.2378  0.0978  0.2325
  748BOLB   PO217942  15.806   0.888  35.328 -0.1624  0.0510  0.1058
  748BOLB   GL317943  15.661   1.285  35.189 -0.0161 -0.1964  0.0698
  748BOLB   GL417944  15.955   1.475  34.940 -0.0719  0.2358  0.2192
  748BOLB   C1C17945  15.523   1.806  35.062  0.0818  0.0479  0.0097
  748BOLB   C2C17946  15.667   2.186  35.211  0.2311  0.1455 -0.0757
  748BOLB   C3C17947  15.783   2.612  35.039 -0.1223  0.2227  0.2655
  748BOLB   C4C17948  15.984   3.005  34.909  0.0238 -0.1191  0.2294
  748BOLB   C1D17949  16.045   1.441  34.508 -0.2313 -0.1305  0.1136
  748BOLB   C2D17950  16.135   1.520  34.110  0.3146 -0.3736 -0.0598
  748BOLB   C3D17951  16.063   1.939  33.833  0.1781  0.1088  0.0556
  748BOLB   C4D17952  15.979   2.148  33.365  0.2430 -0.0886 -0.1000
  749BOLB   NC117953  17.306  16.324  15.173 -0.1338  0.3937  0.0793
  749BOLB   PO117954  17.367  16.685  15.496 -0.0946 -0.1071  0.1698
  749BOLB   GL117955  17.174  16.516  15.875 -0.0789 -0.2475 -0.2506
  749BOLB   GL217956  17.001  16.355  15.843  0.0411 -0.2021 -0.1734
  749BOLB   C1A17957  17.221  16.355  16.289 -0.0381  0.0255 -0.2724
  749BOLB   C2A17958  16.935  16.138  16.545 -0.2153  0.2590  0.2827
  749BOLB   C3A17959  16.959  15.983  16.920  0.1683  0.1754 -0.2050
  749BOLB   C4A17960  17.256  15.841  17.127 -0.3906 -0.2429  0.0946
  749BOLB   C1B17961  17.122  15.932  16.068  0.2602 -0.0004  0.1909
  749BOLB   C2B17962  17.249  15.787  16.534  0.2043  0.0168 -0.0019
  749BOLB   C3B17963  17.532  16.122  16.809  0.1024  0.0132  0.0019
  749BOLB   C4B17964  17.521  16.343  17.172 -0.3088 -0.1998  0.0696
  749BOLB   NC217965  18.186  17.411  16.071  0.1506 -0.0213  0.1279
  749BOLB   PO217966  18.129  17.071  15.984  0.0749 -0.1026  0.0492
  749BOLB   GL317967  18.283  16.905  16.330 -0.0750  0.3262  0.0754
  749BOLB   GL417968  18.364  17.017  16.499  0.2515  0.2760  0.1555
  749BOLB   C1C17969  18.324  16.532  16.493  0.3695 -0.2038 -0.0738
  749BOLB   C2C17970  18.368  16.133  16.822  0.1762 -0.0182 -0.3460
  749BOLB   C3C17971  18.020  15.912  17.017 -0.0287 -0.0430  0.0430
  749BOLB   C4C17972  17.688  15.723  17.102  0.0997 -0.0581 -0.2058
  749BOLB   C1D17973  18.058  16.889  16.753  0.1722 -0.0018 -0.1386
  749BOLB   C2D17974  17.952  16.520  16.830 -0.2461  0.1829 -0.1859
  749BOLB   C3D17975  18.037  16.346  17.250  0.3150 -0.2225  0.3025
  749BOLB   C4D17976  17.826  16.012  17.506  0.3021 -0.0119 -0.2465
  750BOLB   NC117977  21.049   7.902  34.970  0.0813  0.1930 -0.0890
  750BOLB   PO117978  21.454   7.831  34.856  0.1347  0.0040  0.0111
  750BOLB   GL117979  21.805   7.568  34.961 -0.1454 -0.1583  0.3892
  750BOLB   GL217980  22.042   7.742  35.087  0.2707  0.3415  0.2280
  750BOLB   C1A17981  22.068   7.233  34.965  0.1989 -0.1706  0.0492
  750BOLB   C2A17982  22.385   6.969  34.889 -0.4248 -0.1554  0.0657
  750BOLB   C3A17983  22.727   6.716  34.949 -0.2268  0.1648  0.1836
  750BOLB   C4A17984  22.968   6.442  35.122  0.2797  0.0443 -0.0291
  750BOLB   C1B17985  22.505   7.511  34.890  0.0442  0.0550  0.0768
  750BOLB   C2B17986  22.821   7.223  34.918  0.0703  0.2792  0.2118
  750BOLB   C3B17987  23.155   6.971  35.086  0.1046  0.2728  0.2326
  750BOLB   C4B17988  23.375   6.627  35.307 -0.4754  0.1139  0.1672
  750BOLB   NC217989  24.821   5.451  35.936  0.0999  0.3243 -0.1463
  750BOLB   PO217990  24.586   5.059  35.768  0.2614  0.2870 -0.1355
  750BOLB   GL317991  24.252   5.258  35.543 -0.0704  0.0805  0.1231
  750BOLB   GL417992  24.517   5.577  35.506 -0.1558  0.2380 -0.1077
  750BOLB   C1C17993  24.093   5.309  35.117  0.1418 -0.1355 -0.0820
  750BOLB   C2C17994  23.726   5.526  34.977 -0.0411  0.3394  0.1751
  750BOLB   C3C17995  23.331   5.749  34.916  0.1230  0.1430 -0.1849
  750BOLB   C4C17996  23.036   6.089  34.966 -0.0435  0.1872  0.0129
  750BOLB   C1D17997  24.568   6.066  35.234 -0.1951 -0.0450 -0.2081
  750BOLB   C2D17998  24.443   6.410  35.063  0.0723  0.1999 -0.2614
  750BOLB   C3D17999  23.940   6.402  34.932 -0.1022 -0.1294  0.1192
  750BOLB   C4D18000  23.515   6.297  34.942  0.0192 -0.0861  0.4192
  751BOLB   NC118001  22.927  15.716  16.881 -0.0310  0.0993 -0.0871
  751BOLB   PO118002  22.704  15.464  17.204 -0.0891  0.0548 -0.0264
  751BOLB   GL118003  22.524  15.073  17.554 -0.2446  0.4805  0.1612
  751BOLB   GL218004  22.601  14.751  17.462  0.1554 -0.1110 -0.0199
  751BOLB   C1A18005  22.255  14.765  17.862 -0.1145 -0.3281  0.0540
  751BOLB   C2A18006  22.409  14.639  18.266  0.3889  0.0788 -0.0007
  751BOLB   C3A18007  22.086  14.653  18.549 -0.1090 -0.0680  0.2068
  751BOLB   C4A18008  21.952  14.879  18.768 -0.1811  0.3468 -0.3305
  751BOLB   C1B18009  22.664  14.380  17.775  0.3538  0.0477 -0.0335
  751BOLB   C2B18010  22.484  14.045  17.922  0.1360  0.2118  0.1318
  751BOLB   C3B18011  22.277  13.694  17.902 -0.0557 -0.1917 -0.0966
  751BOLB   C4B18012  22.448  13.280  18.075  0.0390  0.1494 -0.0726
  751BOLB   NC218013  24.194  15.370  18.544 -0.1121  0.0743  0.0182
  751BOLB   PO218014  24.273  15.776  18.597  0.0044  0.2305  0.1650
  751BOLB   GL318015  23.831  15.714  18.705  0.2046 -0.0214  0.0703
  751BOLB   GL418016  23.785  15.869  19.018 -0.1012  0.1836 -0.2921
  751BOLB   C1C18017  23.462  15.490  18.929  0.4350 -0.0620  0.1949
  751BOLB   C2C18018  23.069  15.258  18.853 -0.0717  0.1654 -0.0444
  751BOLB   C3C18019  22.630  15.350  18.684 -0.1652  0.1272  0.0620
  751BOLB   C4C18020  22.194  15.236  18.741  0.4518 -0.0835 -0.1153
  751BOLB   C1D18021  23.684  15.592  19.404 -0.1744  0.1072  0.0548
  751BOLB   C2D18022  23.276  15.346  19.393  0.2830  0.0116 -0.2328
  751BOLB   C3D18023  22.762  15.285  19.253  0.0311  0.0056 -0.1924
  751BOLB   C4D18024  22.317  15.228  19.223  0.3344 -0.1784  0.1462
  752BOLB   NC118025   9.199  11.877  35.997  0.2464  0.1569 -0.1026
  752BOLB   PO118026   9.214  12.292  36.248  0.2461 -0.0727  0.0704
  752BOLB   GL118027   8.824  12.335  36.384 -0.0491  0.2820 -0.1780
  752BOLB   GL218028   8.724  12.538  36.629 -0.0091 -0.0777 -0.0262
  752BOLB   C1A18029   8.330  12.352  36.370 -0.1053 -0.1430 -0.0657
  752BOLB   C2A18030   7.943  12.178  36.618  0.3568 -0.2812 -0.2702
  752BOLB   C3A18031   7.726  11.967  36.869  0.0275  0.0992  0.0715
  752BOLB   C4A18032   7.447  11.737  37.247 -0.0622  0.1946  0.0539
  752BOLB   C1B18033   8.372  12.432  36.859  0.2301  0.1918 -0.1763
  752BOLB   C2B18034   8.065  12.492  37.051 -0.1128  0.1218  0.1688
  752BOLB   C3B18035   7.700  12.541  36.873  0.1643  0.0069 -0.1471
  752BOLB   C4B18036   7.236  12.691  36.810  0.1058  0.2508  0.0313
  752BOLB   NC218037   6.802  10.441  39.353  0.1728 -0.2331  0.0503
  752BOLB   PO218038   6.487  10.451  38.982  0.3571 -0.2572  0.3942
  752BOLB   GL318039   6.690  10.484  38.714 -0.2081 -0.4059  0.0331
  752BOLB   GL418040   6.997  10.626  38.767 -0.1135  0.1399 -0.0869
  752BOLB   C1C18041   6.826  10.810  38.328 -0.0247 -0.1244  0.1356
  752BOLB   C2C18042   6.874  11.064  37.988  0.0078 -0.1154 -0.1248
  752BOLB   C3C18043   7.085  11.433  37.836 -0.2218 -0.0439  0.6148
  752BOLB   C4C18044   7.414  11.532  37.498  0.0718 -0.2237 -0.1067
  752BOLB   C1D18045   7.360  10.546  38.511 -0.0230 -0.0590 -0.2705
  752BOLB   C2D18046   7.637  10.444  38.239  0.0084  0.1356 -0.2328
  752BOLB   C3D18047   7.956  10.268  38.246 -0.2477  0.2975  0.0625
  752BOLB   C4D18048   8.238   9.895  37.912 -0.3607  0.0673  0.2808
  753BOLB   NC118049  14.147  18.149  36.901 -0.1275 -0.1618  0.0931
  753BOLB   PO118050  13.793  18.364  37.057 -0.0889  0.3602 -0.2931
  753BOLB   GL118051  13.767  18.606  37.400  0.2774 -0.1381  0.0841
  753BOLB   GL218052  13.591  18.933  37.317  0.0248  0.0013 -0.0611
  753BOLB   C1A18053  13.769  18.766  37.773  0.2901 -0.0083 -0.5474
  753BOLB   C2A18054  13.850  18.996  38.146  0.0835 -0.1924  0.0619
  753BOLB   C3A18055  13.748  19.378  38.340  0.0108  0.3324  0.1502
  753BOLB   C4A18056  13.616  19.600  38.598 -0.2017 -0.6662  0.1115
  753BOLB   C1B18057  13.396  19.139  37.680 -0.2240  0.0357 -0.0241
  753BOLB   C2B18058  13.442  19.510  37.942  0.0853 -0.5193  0.1032
  753BOLB   C3B18059  13.781  19.842  38.091  0.0228  0.2229  0.1047
  753BOLB   C4B18060  14.051  19.945  38.433 -0.0387  0.0309 -0.0492
  753BOLB   NC218061  14.282  20.785  40.926  0.0077 -0.1358  0.0120
  753BOLB   PO218062  14.441  20.945  40.567  0.1081 -0.0148  0.3457
  753BOLB   GL318063  14.300  20.515  40.304  0.1247  0.0901  0.0904
  753BOLB   GL418064  14.608  20.342  40.273 -0.1199  0.4612  0.0222
  753BOLB   C1C18065  14.081  20.352  39.877  0.1453 -0.2173  0.1703
  753BOLB   C2C18066  13.756  20.384  39.674 -0.0918 -0.0058  0.1802
  753BOLB   C3C18067  13.665  20.041  39.419 -0.0330 -0.0716  0.1015
  753BOLB   C4C18068  13.697  19.719  39.054 -0.2263 -0.3381 -0.1092
  753BOLB   C1D18069  14.523  19.892  40.446 -0.1008  0.1811  0.1057
  753BOLB   C2D18070  14.681  19.460  40.344  0.4711 -0.2234 -0.0409
  753BOLB   C3D18071  14.710  19.096  40.086  0.0749  0.0059 -0.2245
  753BOLB   C4D18072  14.745  18.775  39.722 -0.1703 -0.0256  0.1577
  754BOLB   NC118073  15.299  16.312  15.364 -0.1317 -0.4981  0.1253
  754BOLB   PO118074  15.552  16.519  15.599 -0.0501 -0.0264  0.0291
  754BOLB   GL118075  15.494  16.295  15.942  0.3018 -0.0911  0.0209
  754BOLB   GL218076  15.300  16.459  16.060 -0.2242  0.1610 -0.0600
  754BOLB   C1A18077  15.739  16.193  16.344 -0.1018 -0.0880 -0.0915
  754BOLB   C2A18078  15.683  16.137  16.721  0.1708  0.2866 -0.0283
  754BOLB   C3A18079  15.606  15.873  17.006 -0.1567  0.0299 -0.0817
  754BOLB   C4A18080  15.393  15.593  17.166  0.0460  0.1467  0.1268
  754BOLB   C1B18081  15.374  16.698  16.416 -0.2147 -0.2396  0.1123
  754BOLB   C2B18082  15.264  16.937  16.750  0.0479 -0.2758  0.0793
  754BOLB   C3B18083  15.412  17.345  16.952 -0.0567 -0.3648  0.1123
  754BOLB   C4B18084  15.817  17.575  16.790  0.2871  0.0673  0.1727
  754BOLB   NC218085  14.678  16.721  15.920 -0.0247  0.0386 -0.3161
  754BOLB   PO218086  14.492  16.329  16.062 -0.1304  0.1043 -0.1326
  754BOLB   GL318087  14.230  16.104  16.383  0.2950 -0.1579 -0.0761
  754BOLB   GL418088  14.451  15.901  16.350  0.2577 -0.1653  0.2434
  754BOLB   C1C18089  14.117  15.802  16.750 -0.2157 -0.0900 -0.1808
  754BOLB   C2C18090  14.251  15.752  17.172 -0.0022  0.2901  0.0789
  754BOLB   C3C18091  14.524  15.358  17.290 -0.2332 -0.4166 -0.1022
  754BOLB   C4C18092  15.011  15.444  17.383  0.1282  0.2992  0.0981
  754BOLB   C1D18093  14.646  16.111  16.691 -0.1672  0.0321 -0.1431
  754BOLB   C2D18094  14.766  16.028  17.061 -0.1736  0.3560 -0.2945
  754BOLB   C3D18095  15.150  16.028  17.268  0.0602 -0.0297  0.2633
  754BOLB   C4D18096  15.452  16.326  17.164 -0.2258 -0.1011 -0.1838
  755BOLB   NC118097  20.268  14.763  37.819 -0.0442 -0.2439 -0.2049
  755BOLB   PO118098  20.650  14.554  37.748  0.0252 -0.1844 -0.2016
  755BOLB   GL118099  20.780  14.779  38.055  0.0760  0.2207 -0.1280
  755BOLB   GL218100  20.601  15.071  38.084 -0.2441  0.1932 -0.1941
  755BOLB   C1A18101  21.140  15.034  38.067  0.0647  0.2955  0.4189
  755BOLB   C2A18102  21.433  15.304  38.169 -0.2512 -0.1811  0.1054
  755BOLB   C3A18103  21.788  15.322  38.267 -0.4706 -0.2438  0.1246
  755BOLB   C4A18104  22.245  15.316  38.364 -0.0460  0.0312 -0.0435
  755BOLB   C1B18105  20.780  15.354  38.396 -0.0513 -0.1278  0.1284
  755BOLB   C2B18106  21.168  15.419  38.622 -0.0560 -0.0441  0.1242
  755BOLB   C3B18107  21.344  15.109  38.996  0.3355 -0.4135 -0.0606
  755BOLB   C4B18108  21.463  15.029  39.436 -0.0993 -0.0097  0.2211
  755BOLB   NC218109  23.753  15.910  40.618  0.2570 -0.0260 -0.0544
  755BOLB   PO218110  23.441  15.558  40.585  0.3122  0.1183  0.0601
  755BOLB   GL318111  23.152  15.510  40.306  0.0727  0.2141  0.0359
  755BOLB   GL418112  22.825  15.611  40.248 -0.2786  0.0577  0.1619
  755BOLB   C1C18113  23.158  15.396  39.842  0.0411 -0.1945  0.0356
  755BOLB   C2C18114  23.100  15.644  39.364  0.1678 -0.0674 -0.2285
  755BOLB   C3C18115  22.843  15.477  39.011  0.0087  0.0125  0.4593
  755BOLB   C4C18116  22.600  15.470  38.572 -0.2934  0.1408  0.1850
  755BOLB   C1D18117  22.770  15.222  40.073 -0.1066 -0.3629 -0.0831
  755BOLB   C2D18118  22.561  14.827  39.813  0.1589 -0.1230 -0.1392
  755BOLB   C3D18119  22.255  14.833  39.585  0.0080  0.2124 -0.0323
  755BOLB   C4D18120  21.907  14.989  39.251  0.1004 -0.1685  0.1621
  756BOLB   NC118121  14.107  20.376  33.366 -0.4086 -0.2120  0.0247
  756BOLB   PO118122  13.772  20.564  33.560 -0.0342 -0.2640 -0.0062
  756BOLB   GL118123  13.533  20.948  33.508 -0.0408  0.2452  0.0360
  756BOLB   GL218124  13.268  20.933  33.296 -0.0385  0.1238  0.0401
  756BOLB   C1A18125  13.634  21.386  33.551 -0.0072  0.3440 -0.1829
  756BOLB   C2A18126  13.923  21.671  33.824 -0.1257  0.0143  0.1125
  756BOLB   C3A18127  14.138  21.933  34.067 -0.1486 -0.2070 -0.0289
  756BOLB   C4A18128  14.093  22.398  34.201 -0.2487  0.2407 -0.2272
  756BOLB   C1B18129  13.128  21.356  33.375 -0.2246 -0.0920  0.1655
  756BOLB   C2B18130  13.016  21.856  33.401 -0.1397 -0.0076 -0.2214
  756BOLB   C3B18131  12.840  21.935  33.697  0.1438 -0.1490 -0.0116
  756BOLB   C4B18132  12.972  22.107  34.004 -0.2741  0.1569  0.0135
  756BOLB   NC218133  14.109  24.542  35.639 -0.2317  0.1062 -0.0118
  756BOLB   PO218134  13.751  24.291  35.715 -0.0531 -0.2789  0.0607
  756BOLB   GL318135  13.843  23.918  35.556  0.1230  0.1228 -0.1095
  756BOLB   GL418136  14.207  23.859  35.566  0.3085 -0.0032  0.2955
  756BOLB   C1C18137  13.851  23.677  35.242 -0.2402  0.3304  0.1809
  756BOLB   C2C18138  13.859  23.386  34.952  0.1941  0.1554  0.0578
  756BOLB   C3C18139  13.919  23.118  34.615 -0.1209  0.0641  0.1777
  756BOLB   C4C18140  14.128  22.891  34.316 -0.0080  0.2386 -0.1424
  756BOLB   C1D18141  14.479  23.636  35.364  0.2407  0.1422 -0.0672
  756BOLB   C2D18142  14.471  23.284  34.997 -0.3967 -0.2141 -0.0959
  756BOLB   C3D18143  14.417  23.037  34.725  0.1846 -0.0121  0.0952
  756BOLB   C4D18144  14.498  22.675  34.510  0.3531 -0.1854  0.1637
  757BOLB   NC118145  21.667  17.247  33.745 -0.1986  0.0976 -0.0902
  757BOLB   PO118146  21.679  17.298  34.086  0.1948  0.0731 -0.1705
  757BOLB   GL118147  21.984  17.402  34.306  0.0638 -0.0278  0.3187
  757BOLB   GL218148  22.161  17.205  34.617  0.0511  0.2330 -0.0369
  757BOLB   C1A18149  22.289  17.649  34.419  0.2854  0.0275  0.2133
  757BOLB   C2A18150  22.719  17.920  34.479 -0.0369 -0.1779  0.0107
  757BOLB   C3A18151  23.159  17.960  34.459 -0.1742  0.1197 -0.1832
  757BOLB   C4A18152  23.561  18.148  34.453  0.1914  0.0359  0.1116
  757BOLB   C1B18153  22.180  17.563  34.942  0.2369  0.0383  0.0158
  757BOLB   C2B18154  22.450  17.787  34.926 -0.1596 -0.1485 -0.1068
  757BOLB   C3B18155  22.727  18.074  35.137  0.0649 -0.0648 -0.0373
  757BOLB   C4B18156  22.810  18.313  35.507  0.1472  0.2543  0.3135
  757BOLB   NC218157  25.969  18.637  35.520  0.0718 -0.0327 -0.0585
  757BOLB   PO218158  25.628  18.617  35.822  0.2785 -0.2611 -0.2746
  757BOLB   GL318159  25.224  18.360  35.679 -0.0512 -0.3017 -0.0436
  757BOLB   GL418160  25.270  18.024  35.557 -0.3344  0.1426  0.2729
  757BOLB   C1C18161  24.892  18.468  35.442  0.3251 -0.1217 -0.1771
  757BOLB   C2C18162  24.545  18.348  35.193  0.0597  0.1029  0.0812
  757BOLB   C3C18163  24.115  18.350  34.931 -0.1239 -0.1310 -0.3311
  757BOLB   C4C18164  23.791  18.376  34.607  0.4489 -0.0165 -0.1520
  757BOLB   C1D18165  24.938  17.722  35.481 -0.0842  0.1314 -0.5928
  757BOLB   C2D18166  24.767  17.298  35.413 -0.1020 -0.0090  0.3411
  757BOLB   C3D18167  24.473  17.126  35.323 -0.0610  0.2228 -0.1712
  757BOLB   C4D18168  24.175  16.958  35.476 -0.2221  0.0481 -0.3762
  758BOLB   NC118169  12.486   5.508  27.329 -0.0756 -0.0235 -0.2052
  758BOLB   PO118170  12.238   5.408  27.061  0.2352 -0.0739  0.0277
  758BOLB   GL118171  11.996   5.165  26.831 -0.2037 -0.3344 -0.0413
  758BOLB   GL218172  11.763   4.968  27.038  0.0112  0.2537  0.2745
  758BOLB   C1A18173  11.677   5.166  26.550 -0.0164  0.1719  0.1009
  758BOLB   C2A18174  11.207   5.079  26.373 -0.0665  0.1582  0.0555
  758BOLB   C3A18175  11.094   4.785  26.039 -0.0547  0.3908 -0.1547
  758BOLB   C4A18176  10.887   4.447  25.820 -0.2852  0.1401  0.0520
  758BOLB   C1B18177  11.805   4.627  26.806 -0.1214 -0.1168  0.0834
  758BOLB   C2B18178  11.499   4.676  26.348 -0.3978 -0.0867  0.1197
  758BOLB   C3B18179  11.643   4.894  26.070  0.0276 -0.0266 -0.3984
  758BOLB   C4B18180  11.962   5.167  25.970  0.2068 -0.5018 -0.0538
  758BOLB   NC218181  10.468   1.988  25.214  0.1351 -0.1666  0.0021
  758BOLB   PO218182  10.617   2.130  25.651  0.3057  0.1350 -0.2302
  758BOLB   GL318183  10.691   2.573  25.718 -0.0300 -0.0774 -0.1992
  758BOLB   GL418184  11.044   2.547  25.932 -0.1788 -0.0669  0.0516
  758BOLB   C1C18185  10.577   2.876  25.496 -0.3775 -0.2265  0.0056
  758BOLB   C2C18186  10.373   3.245  25.367 -0.1833  0.2331 -0.3314
  758BOLB   C3C18187  10.466   3.744  25.428 -0.0562 -0.0949 -0.3898
  758BOLB   C4C18188  10.643   4.105  25.550 -0.1083 -0.2781  0.0838
  758BOLB   C1D18189  10.784   2.821  26.176  0.0501  0.0605  0.0315
  758BOLB   C2D18190  10.871   3.193  26.241  0.0451 -0.1065  0.2783
  758BOLB   C3D18191  11.020   3.583  26.189 -0.0735  0.1473 -0.2343
  758BOLB   C4D18192  11.137   3.772  25.853 -0.1190 -0.2769 -0.0109
  759BOLB   NC118193  24.034   2.613  29.908 -0.0881  0.1101  0.0938
  759BOLB   PO118194  24.071   2.677  30.299 -0.0130  0.1361 -0.0184
  759BOLB   GL118195  23.834   2.984  30.417  0.1844  0.1274  0.0352
  759BOLB   GL218196  23.812   3.320  30.602 -0.2422  0.0014  0.3767
  759BOLB   C1A18197  23.378   3.018  30.342  0.2679  0.0968  0.0682
  759BOLB   C2A18198  23.000   3.268  30.300 -0.1769 -0.0459 -0.0984
  759BOLB   C3A18199  22.981   3.623  30.474  0.1851  0.0792  0.0102
  759BOLB   C4A18200  22.955   3.806  30.913 -0.3074  0.0686 -0.2861
  759BOLB   C1B18201  23.943   3.749  30.712 -0.1401 -0.1077 -0.0376
  759BOLB   C2B18202  24.210   4.013  30.753  0.0432  0.0565 -0.0960
  759BOLB   C3B18203  24.321   4.305  30.967  0.1077 -0.0085 -0.3047
  759BOLB   C4B18204  24.565   4.499  30.875 -0.3129  0.1753 -0.0855
  759BOLB   NC218205  23.969   3.204  32.649  0.0262  0.2221  0.0256
  759BOLB   PO218206  23.825   2.940  32.315 -0.3226  0.1856 -0.0552
  759BOLB   GL318207  23.641   3.266  32.168  0.0839 -0.5731 -0.1407
  759BOLB   GL418208  23.442   3.230  31.906 -0.4237 -0.6144 -0.0896
  759BOLB   C1C18209  23.231   3.544  32.180  0.3472 -0.3804  0.1602
  759BOLB   C2C18210  23.129   3.934  31.916  0.1303 -0.2639  0.0872
  759BOLB   C3C18211  23.044   4.066  31.614 -0.0698  0.0043 -0.3080
  759BOLB   C4C18212  22.783   4.069  31.252 -0.1080  0.1353  0.1418
  759BOLB   C1D18213  23.077   3.498  31.652 -0.4439  0.3671 -0.0180
  759BOLB   C2D18214  22.671   3.670  31.641 -0.1724  0.1073 -0.1134
  759BOLB   C3D18215  22.325   3.709  31.701 -0.1516  0.0052  0.0628
  759BOLB   C4D18216  22.006   3.860  31.878  0.3991  0.0534 -0.0751
  760BOLB   NC118217  22.231   7.295  29.326  0.2911 -0.0268 -0.2059
  760BOLB   PO118218  22.523   7.320  28.957  0.2200 -0.0390 -0.0656
  760BOLB   GL118219  22.950   7.240  28.754 -0.2712 -0.4243 -0.0918
  760BOLB   GL218220  23.116   7.539  28.487  0.0204 -0.1659 -0.2681
  760BOLB   C1A18221  23.320   7.117  28.791  0.1977  0.0147  0.0981
  760BOLB   C2A18222  23.551   6.810  28.929 -0.1695 -0.0434 -0.1012
  760BOLB   C3A18223  23.820   6.748  29.225  0.2273  0.1746  0.0034
  760BOLB   C4A18224  24.094   6.793  29.525 -0.2247 -0.0425  0.0973
  760BOLB   C1B18225  23.581   7.452  28.607 -0.3214  0.1856  0.0301
  760BOLB   C2B18226  23.741   7.106  28.480 -0.3271  0.2170  0.0408
  760BOLB   C3B18227  24.015   7.044  28.130  0.2362 -0.0251 -0.1300
  760BOLB   C4B18228  24.305   6.898  27.935 -0.0330  0.0148  0.0950
  760BOLB   NC218229  26.039   5.405  29.993 -0.3372  0.4044  0.2422
  760BOLB   PO218230  26.402   5.691  29.921 -0.2034  0.5356  0.0179
  760BOLB   GL318231  26.075   5.898  29.670 -0.1024 -0.3689  0.1711
  760BOLB   GL418232  25.878   5.597  29.580  0.1760 -0.0687 -0.2302
  760BOLB   C1C18233  25.775   6.230  29.649 -0.2533 -0.2844 -0.1931
  760BOLB   C2C18234  25.350   6.319  29.674  0.1162 -0.1255  0.0547
  760BOLB   C3C18235  24.906   6.319  29.681  0.0060  0.1048 -0.2344
  760BOLB   C4C18236  24.405   6.580  29.603 -0.0667  0.0325 -0.0937
  760BOLB   C1D18237  25.637   5.893  29.230  0.0002  0.0789 -0.2704
  760BOLB   C2D18238  25.347   6.229  29.030 -0.0940 -0.1747  0.0105
  760BOLB   C3D18239  25.059   6.582  28.763 -0.0341  0.2030  0.0516
  760BOLB   C4D18240  24.748   6.843  28.800 -0.0035 -0.0699 -0.0681
  761BOLB   NC118241  16.316  20.736  28.998  0.0370  0.1010 -0.0044
  761BOLB   PO118242  15.909  20.929  29.195  0.0278  0.0578  0.2016
  761BOLB   GL118243  15.784  21.321  29.241 -0.3043 -0.0471  0.1911
  761BOLB   GL218244  15.663  21.431  29.513 -0.0922  0.0560  0.3369
  761BOLB   C1A18245  15.978  21.711  29.272  0.0444  0.0818  0.2964
  761BOLB   C2A18246  16.037  22.210  29.452  0.2736  0.0725 -0.3688
  761BOLB   C3A18247  16.016  22.593  29.720  0.4098  0.1435 -0.3857
  761BOLB   C4A18248  15.944  23.017  29.893 -0.3015  0.0845 -0.3268
  761BOLB   C1B18249  15.714  21.871  29.676  0.2540  0.0862 -0.0857
  761BOLB   C2B18250  15.502  22.262  29.757 -0.0637 -0.1944 -0.0266
  761BOLB   C3B18251  15.483  22.642  29.943  0.1182 -0.1778  0.1391
  761BOLB   C4B18252  15.380  23.006  29.720  0.1183  0.1969  0.1068
  761BOLB   NC218253  15.708  25.641  29.457 -0.1440 -0.0007  0.2453
  761BOLB   PO218254  15.399  25.364  29.273  0.1113  0.2083  0.0014
  761BOLB   GL318255  15.436  24.915  29.213 -0.0868 -0.1085  0.2016
  761BOLB   GL418256  15.131  24.789  29.248 -0.0552 -0.2086  0.0089
  761BOLB   C1C18257  15.552  24.432  29.230  0.0019  0.0909  0.2368
  761BOLB   C2C18258  15.381  24.096  29.495  0.1460 -0.1683 -0.1597
  761BOLB   C3C18259  15.551  23.814  29.788  0.0304  0.1783  0.1383
  761BOLB   C4C18260  15.698  23.400  29.776  0.1569  0.1765  0.0753
  761BOLB   C1D18261  15.391  24.706  29.643  0.1362 -0.0391  0.1155
  761BOLB   C2D18262  15.468  24.298  29.980 -0.0739  0.3512 -0.1114
  761BOLB   C3D18263  15.474  23.807  30.235 -0.0554  0.1137 -0.6103
  761BOLB   C4D18264  15.355  23.523  30.489  0.4063 -0.1721 -0.3369
  762BOLB   NC118265   0.127   8.015  33.666 -0.2687  0.0488 -0.0093
  762BOLB   PO118266  26.946   8.401  33.767 -0.2131  0.2429 -0.0367
  762BOLB   GL118267  26.736   8.351  33.339  0.1461  0.0241  0.2271
  762BOLB   GL218268  26.749   8.615  33.258 -0.2223 -0.0430 -0.2381
  762BOLB   C1A18269  26.283   8.289  33.219  0.2178 -0.0317 -0.0736
  762BOLB   C2A18270  25.848   8.495  33.174  0.0947  0.0222 -0.1535
  762BOLB   C3A18271  25.513   8.598  33.367 -0.0839 -0.1129  0.0297
  762BOLB   C4A18272  24.995   8.675  33.338 -0.2925 -0.3387  0.0606
  762BOLB   C1B18273  26.295   8.734  33.403 -0.4275 -0.1678 -0.0495
  762BOLB   C2B18274  25.941   9.000  33.317  0.0026  0.1418 -0.4514
  762BOLB   C3B18275  25.653   9.162  33.624 -0.0244 -0.1663 -0.0152
  762BOLB   C4B18276  25.208   9.214  33.608  0.2901  0.0131  0.0638
  762BOLB   NC218277  23.010   9.708  33.366  0.0801  0.3766 -0.1955
  762BOLB   PO218278  23.054   9.368  33.137 -0.0727  0.1595 -0.1347
  762BOLB   GL318279  23.336   9.239  33.516 -0.1917 -0.2219  0.0521
  762BOLB   GL418280  23.372   9.443  33.781 -0.0538 -0.2683  0.1294
  762BOLB   C1C18281  23.705   9.067  33.680 -0.1568 -0.2720 -0.0054
  762BOLB   C2C18282  24.004   8.759  33.740  0.3453 -0.0381  0.2158
  762BOLB   C3C18283  24.350   8.637  33.674  0.1111  0.0682  0.2961
  762BOLB   C4C18284  24.688   8.471  33.517  0.2469  0.0580  0.3245
  762BOLB   C1D18285  23.695   9.580  33.661  0.1531  0.1980 -0.1389
  762BOLB   C2D18286  23.987   9.664  33.972 -0.1907  0.1827  0.0432
  762BOLB   C3D18287  24.384   9.502  34.143 -0.0089  0.0899  0.0891
  762BOLB   C4D18288  24.766   9.816  34.316 -0.0839  0.0475  0.0720
  763BOLB   NC118289   9.577  14.059  23.634  0.1072 -0.0136  0.1797
  763BOLB   PO118290   9.464  13.740  23.929 -0.0914  0.0248  0.0905
  763BOLB   GL118291   9.100  13.815  23.744 -0.1299  0.3996 -0.1332
  763BOLB   GL218292   8.957  14.066  23.647  0.0806  0.2528 -0.0038
  763BOLB   C1A18293   8.732  13.505  23.615 -0.0324  0.1362 -0.1813
  763BOLB   C2A18294   8.273  13.407  23.447 -0.0635 -0.1605 -0.2955
  763BOLB   C3A18295   7.995  13.585  23.227  0.0855 -0.0392  0.0956
  763BOLB   C4A18296   7.622  13.673  23.170  0.0198 -0.1365  0.0431
  763BOLB   C1B18297   9.023  14.027  23.264  0.0455 -0.3424  0.1071
  763BOLB   C2B18298   8.913  14.095  22.842 -0.1965 -0.0125 -0.0195
  763BOLB   C3B18299   8.522  13.798  22.648 -0.1859 -0.0046 -0.1128
  763BOLB   C4B18300   8.359  13.615  22.290  0.1369 -0.3295  0.0017
  763BOLB   NC218301   5.525  14.190  22.362 -0.2037  0.1862  0.2614
  763BOLB   PO218302   5.434  14.147  22.781 -0.2512  0.2215  0.1509
  763BOLB   GL318303   5.640  14.146  23.104  0.0841 -0.1764  0.0910
  763BOLB   GL418304   5.748  14.417  23.252 -0.0838  0.3251  0.6755
  763BOLB   C1C18305   6.019  14.048  23.129 -0.0130  0.0232 -0.1384
  763BOLB   C2C18306   6.377  13.698  23.020  0.3100 -0.0923 -0.0412
  763BOLB   C3C18307   6.785  13.667  23.322 -0.1922 -0.0249  0.1528
  763BOLB   C4C18308   7.170  13.644  23.310 -0.2527  0.2537 -0.1945
  763BOLB   C1D18309   6.135  14.428  23.465 -0.2512 -0.2532  0.2148
  763BOLB   C2D18310   6.464  14.293  23.741 -0.0911 -0.0568  0.0398
  763BOLB   C3D18311   6.756  14.047  23.942 -0.1960 -0.1291 -0.0442
  763BOLB   C4D18312   6.922  13.620  23.813 -0.1509  0.1574 -0.1429
  764BOLB   NC118313  14.809  25.870  30.239  0.0063  0.0631  0.1294
  764BOLB   PO118314  14.708  25.600  29.790 -0.0496  0.1743  0.0264
  764BOLB   GL118315  14.585  25.123  29.617 -0.1089  0.1392 -0.2578
  764BOLB   GL218316  14.605  24.852  29.240  0.2225 -0.0499 -0.0905
  764BOLB   C1A18317  14.864  24.763  29.654 -0.0418 -0.0069 -0.1245
  764BOLB   C2A18318  14.783  24.271  29.793 -0.0709  0.0823  0.2717
  764BOLB   C3A18319  14.589  23.937  30.024 -0.0467  0.2872 -0.2747
  764BOLB   C4A18320  14.725  23.647  30.334  0.4230 -0.0302 -0.2197
  764BOLB   C1B18321  14.738  24.446  29.324  0.3646  0.2754  0.1068
  764BOLB   C2B18322  14.684  24.011  29.302 -0.0788  0.0847 -0.0474
  764BOLB   C3B18323  14.734  23.696  29.609 -0.0762  0.0756  0.1204
  764BOLB   C4B18324  14.800  23.234  29.461 -0.2528  0.3307  0.0597
  764BOLB   NC218325  14.735  20.826  30.113  0.2183  0.2058  0.3402
  764BOLB   PO218326  14.464  21.162  30.012 -0.3362 -0.0406  0.2324
  764BOLB   GL318327  14.322  21.498  30.181 -0.0300 -0.0692  0.1183
  764BOLB   GL418328  14.247  21.722  29.971 -0.0815 -0.0830  0.1906
  764BOLB   C1C18329  14.469  21.861  30.399  0.3500  0.3965  0.0831
  764BOLB   C2C18330  14.529  22.353  30.549  0.0215 -0.0242  0.2739
  764BOLB   C3C18331  14.468  22.858  30.638 -0.0885 -0.0557 -0.3307
  764BOLB   C4C18332  14.506  23.324  30.606 -0.2245  0.3782 -0.1954
  764BOLB   C1D18333  14.363  22.164  29.924 -0.1927  0.2222  0.1625
  764BOLB   C2D18334  14.506  22.578  30.082 -0.4132  0.1040 -0.1212
  764BOLB   C3D18335  14.428  22.993  30.175  0.1592 -0.0568 -0.1176
  764BOLB   C4D18336  14.315  23.365  30.004  0.0683  0.0949 -0.0270
  765BOLB   NC118337  11.274   7.176  41.076 -0.1131  0.1230 -0.0781
  765BOLB   PO118338  10.914   7.380  41.327 -0.2038 -0.0269 -0.0946
  765BOLB   GL118339  11.149   7.722  41.322  0.1695 -0.1207  0.1123
  765BOLB   GL218340  11.081   8.058  41.358 -0.0815  0.1164 -0.4491
  765BOLB   C1A18341  11.587   7.976  41.388  0.1823 -0.0975 -0.2565
  765BOLB   C2A18342  12.008   8.200  41.432  0.0613 -0.3360  0.1047
  765BOLB   C3A18343  12.445   8.148  41.234  0.3357  0.1069 -0.3941
  765BOLB   C4A18344  12.741   7.875  41.357 -0.1786 -0.0893  0.3581
  765BOLB   C1B18345  11.040   8.167  40.873  0.3744  0.0066 -0.1648
  765BOLB   C2B18346  11.102   8.460  40.568  0.3963  0.0962  0.1730
  765BOLB   C3B18347  11.331   8.790  40.364  0.0232 -0.2226  0.0148
  765BOLB   C4B18348  11.363   9.025  40.004  0.0835  0.1533  0.0334
  765BOLB   NC218349  13.236   5.888  42.198  0.2127  0.1587  0.0767
  765BOLB   PO218350  13.573   6.219  42.064  0.0020 -0.0213 -0.4692
  765BOLB   GL318351  13.758   6.416  41.776 -0.3029  0.0432  0.3662
  765BOLB   GL418352  13.654   6.364  41.534 -0.0231  0.0375  0.1083
  765BOLB   C1C18353  13.511   6.785  41.736 -0.0160 -0.0600  0.3163
  765BOLB   C2C18354  13.217   6.968  41.804 -0.0483  0.0697 -0.2083
  765BOLB   C3C18355  13.120   7.412  41.726 -0.4533  0.0816 -0.0738
  765BOLB   C4C18356  13.027   7.760  41.608 -0.2371  0.2244 -0.1146
  765BOLB   C1D18357  13.679   6.767  41.272  0.0949  0.0561  0.1537
  765BOLB   C2D18358  13.660   7.017  40.932  0.2980  0.1337  0.1145
  765BOLB   C3D18359  13.950   7.174  40.736 -0.1103 -0.1052 -0.0013
  765BOLB   C4D18360  14.302   7.069  40.437 -0.5374  0.1747  0.5198
  766BOLB   NC118361  14.292  11.106  39.792  0.1693  0.3590 -0.0550
  766BOLB   PO118362  14.249  10.628  39.783 -0.1020  0.0925 -0.1192
  766BOLB   GL118363  13.948  10.444  40.016 -0.0366  0.2061 -0.1512
  766BOLB   GL218364  13.971  10.581  40.373  0.0240  0.0740 -0.0539
  766BOLB   C1A18365  13.692  10.149  40.203  0.1089 -0.0071 -0.1603
  766BOLB   C2A18366  13.213  10.057  40.359  0.1181 -0.1082 -0.3325
  766BOLB   C3A18367  12.950   9.954  40.621  0.0746  0.0407  0.2216
  766BOLB   C4A18368  12.671   9.941  40.986  0.2418 -0.2573  0.3570
  766BOLB   C1B18369  13.829  10.338  40.753 -0.3883 -0.0156  0.1274
  766BOLB   C2B18370  13.863  10.181  41.158 -0.1122  0.0166  0.2950
  766BOLB   C3B18371  14.079  10.203  41.583  0.0506 -0.2196 -0.1530
  766BOLB   C4B18372  14.457  10.229  41.855  0.0512 -0.0890 -0.1660
  766BOLB   NC218373  11.354   9.608  43.060 -0.3101  0.0880 -0.0028
  766BOLB   PO218374  11.334   9.310  42.655 -0.1489  0.3434 -0.1262
  766BOLB   GL318375  11.552   9.551  42.568  0.1934 -0.3608  0.4548
  766BOLB   GL418376  11.779   9.833  42.750  0.1595 -0.0470  0.2646
  766BOLB   C1C18377  11.865   9.513  42.180 -0.2136 -0.0366 -0.0535
  766BOLB   C2C18378  11.922   9.803  41.864 -0.0779  0.3004  0.2070
  766BOLB   C3C18379  12.155   9.725  41.641  0.0790  0.2121  0.5036
  766BOLB   C4C18380  12.319   9.990  41.251 -0.2380  0.0714  0.1133
  766BOLB   C1D18381  12.163   9.826  42.500  0.0626  0.1358  0.1088
  766BOLB   C2D18382  12.502   9.610  42.246  0.2782  0.1848 -0.3296
  766BOLB   C3D18383  12.644   9.632  41.834 -0.2114  0.2692  0.2498
  766BOLB   C4D18384  12.694   9.688  41.392 -0.0137  0.0019  0.0519
  767BOLB   NC118385  24.662   2.915  25.163 -0.1084 -0.2812 -0.1756
  767BOLB   PO118386  24.338   3.321  25.427 -0.0197  0.0790 -0.0434
  767BOLB   GL118387  24.077   3.643  25.485  0.0239 -0.0909  0.1448
  767BOLB   GL218388  23.911   3.780  25.213 -0.3758  0.0735  0.2479
  767BOLB   C1A18389  23.760   3.853  25.700  0.1840  0.1543 -0.1127
  767BOLB   C2A18390  23.494   4.245  25.815 -0.0126  0.2364 -0.0812
  767BOLB   C3A18391  23.171   4.203  25.842 -0.2299 -0.0317 -0.1294
  767BOLB   C4A18392  22.787   4.056  25.685 -0.0163  0.1813 -0.1880
  767BOLB   C1B18393  23.788   4.198  25.005  0.1029  0.0508 -0.0971
  767BOLB   C2B18394  23.512   4.403  24.804  0.0240 -0.0007  0.2745
  767BOLB   C3B18395  23.157   4.663  24.732  0.1559 -0.0132 -0.0534
  767BOLB   C4B18396  22.982   5.105  24.788 -0.2127 -0.1165  0.0336
  767BOLB   NC218397  22.776   2.418  23.939 -0.1191 -0.2462 -0.0240
  767BOLB   PO218398  22.777   2.589  24.414  0.0748 -0.1083  0.0965
  767BOLB   GL318399  22.483   2.561  24.783 -0.0988  0.1438  0.1338
  767BOLB   GL418400  22.243   2.301  24.996  0.2309 -0.1504 -0.0741
  767BOLB   C1C18401  22.089   2.902  24.907  0.1166 -0.1310  0.0954
  767BOLB   C2C18402  22.107   3.315  24.929 -0.0286 -0.0333  0.0263
  767BOLB   C3C18403  22.249   3.574  25.391  0.0412  0.1249 -0.1238
  767BOLB   C4C18404  22.494   3.958  25.359 -0.2407 -0.1101  0.1305
  767BOLB   C1D18405  21.987   2.485  24.657  0.1472 -0.0537 -0.0040
  767BOLB   C2D18406  21.529   2.367  24.599 -0.1021  0.0960  0.0358
  767BOLB   C3D18407  21.385   2.434  24.244  0.2032  0.0165  0.0234
  767BOLB   C4D18408  21.417   2.837  24.063  0.1190 -0.3467 -0.1363
  768BOLB   NC118409  17.914   0.466  26.177 -0.1928  0.1352 -0.0887
  768BOLB   PO118410  17.547   0.609  26.205 -0.0993  0.1967 -0.0847
  768BOLB   GL118411  17.267   0.798  26.021  0.1383 -0.1557  0.0219
  768BOLB   GL218412  16.971   0.827  25.814  0.0817 -0.0138  0.0812
  768BOLB   C1A18413  17.206   1.221  26.025 -0.3451  0.1463 -0.0872
  768BOLB   C2A18414  17.153   1.630  26.077 -0.0464  0.1065  0.2534
  768BOLB   C3A18415  16.950   1.937  26.072 -0.0516  0.2393 -0.0985
  768BOLB   C4A18416  16.877   2.390  25.905 -0.1311 -0.3358 -0.1304
  768BOLB   C1B18417  16.670   1.173  25.968 -0.1134 -0.1651  0.1372
  768BOLB   C2B18418  16.574   1.579  26.148 -0.0684 -0.1773 -0.1961
  768BOLB   C3B18419  16.614   1.956  26.503  0.0244 -0.2466  0.2975
  768BOLB   C4B18420  16.687   2.146  26.946  0.1429  0.1966 -0.1419
  768BOLB   NC218421  16.476   4.849  26.824 -0.1691  0.0792 -0.1426
  768BOLB   PO218422  16.863   4.707  26.739  0.1261  0.0636  0.3344
  768BOLB   GL318423  16.726   4.233  26.768 -0.0330  0.0810  0.0088
  768BOLB   GL418424  16.406   4.074  26.881  0.1914 -0.0764 -0.2023
  768BOLB   C1C18425  16.598   3.918  26.439  0.5887  0.0893 -0.0796
  768BOLB   C2C18426  16.671   3.562  26.280 -0.1331  0.1680 -0.3611
  768BOLB   C3C18427  16.911   3.173  26.095  0.1339  0.1414 -0.2143
  768BOLB   C4C18428  16.890   2.864  25.944  0.1573  0.1425  0.1484
  768BOLB   C1D18429  16.276   3.627  26.795  0.3311  0.1420 -0.1710
  768BOLB   C2D18430  16.365   3.235  26.544 -0.2892  0.0276 -0.1258
  768BOLB   C3D18431  16.275   2.875  26.258 -0.1301  0.1416 -0.0256
  768BOLB   C4D18432  16.292   2.506  25.929  0.0267  0.2171  0.2063
  769BOLB   NC118433  12.691  19.370  24.062  0.2146 -0.0620  0.3834
  769BOLB   PO118434  12.446  19.602  24.336 -0.2461  0.1129  0.1476
  769BOLB   GL118435  12.322  20.005  24.338 -0.2439  0.4102 -0.2339
  769BOLB   GL218436  12.054  19.949  24.581  0.1052  0.2125 -0.1386
  769BOLB   C1A18437  12.128  20.311  24.250  0.1190  0.0622 -0.6841
  769BOLB   C2A18438  11.640  20.431  24.058  0.1144  0.1468 -0.0212
  769BOLB   C3A18439  11.238  20.460  23.809 -0.0949 -0.0810 -0.1136
  769BOLB   C4A18440  10.870  20.569  23.881 -0.1758  0.2854 -0.0931
  769BOLB   C1B18441  11.699  20.271  24.534  0.1359 -0.2120  0.1960
  769BOLB   C2B18442  11.674  20.725  24.668  0.0824  0.1946  0.0122
  769BOLB   C3B18443  11.557  21.176  24.760 -0.2112 -0.5035 -0.2410
  769BOLB   C4B18444  11.506  21.604  24.698  0.1272  0.0726  0.1550
  769BOLB   NC218445   9.918  22.006  22.098  0.4996 -0.2114 -0.0506
  769BOLB   PO218446   9.545  21.931  22.386 -0.2224 -0.1212  0.1325
  769BOLB   GL318447   9.842  21.661  22.587 -0.0320 -0.0060 -0.0069
  769BOLB   GL418448  10.115  21.473  22.496 -0.1285  0.1110 -0.0835
  769BOLB   C1C18449   9.971  21.536  23.039  0.2171  0.1453 -0.0442
  769BOLB   C2C18450  10.014  21.456  23.504 -0.2000 -0.1381 -0.0519
  769BOLB   C3C18451  10.274  21.229  23.759  0.1349  0.2853  0.0943
  769BOLB   C4C18452  10.462  20.856  23.829 -0.1163 -0.0856  0.3897
  769BOLB   C1D18453  10.433  21.029  22.621 -0.0571  0.1357  0.2139
  769BOLB   C2D18454  10.558  20.747  22.914 -0.3466  0.0054 -0.2275
  769BOLB   C3D18455  10.738  20.303  23.092  0.2109 -0.3173  0.0907
  769BOLB   C4D18456  10.874  20.309  23.462  0.1347 -0.0694  0.0049
  770BOLB   NC118457  21.486  20.947  22.450 -0.1173 -0.4303 -0.1257
  770BOLB   PO118458  21.401  21.231  22.859 -0.1044  0.2936 -0.2881
  770BOLB   GL118459  21.159  20.903  22.910  0.3443  0.0014  0.0560
  770BOLB   GL218460  21.338  20.806  23.229  0.0359  0.0852  0.0039
  770BOLB   C1A18461  20.812  20.722  22.730  0.0675  0.1404 -0.2577
  770BOLB   C2A18462  20.500  20.648  22.489  0.2059  0.2577  0.2440
  770BOLB   C3A18463  20.197  20.420  22.252 -0.0874 -0.3421  0.2382
  770BOLB   C4A18464  20.080  20.221  21.968  0.3001 -0.3274  0.0327
  770BOLB   C1B18465  20.957  20.562  23.356 -0.1971  0.0886  0.2420
  770BOLB   C2B18466  20.538  20.549  23.588  0.1893 -0.1995  0.0838
  770BOLB   C3B18467  20.312  20.420  23.972  0.0863 -0.0226 -0.0559
  770BOLB   C4B18468  19.842  20.379  24.062  0.0708 -0.1335 -0.1901
  770BOLB   NC218469  21.876  19.689  20.463 -0.0181  0.4204 -0.2342
  770BOLB   PO218470  21.523  19.650  20.356 -0.0128  0.1118  0.0228
  770BOLB   GL318471  21.126  19.481  20.590  0.1477  0.3838  0.0313
  770BOLB   GL418472  20.936  19.274  20.434 -0.2446 -0.1589  0.0890
  770BOLB   C1C18473  20.674  19.510  20.779 -0.1491  0.1746 -0.0366
  770BOLB   C2C18474  20.288  19.420  20.924  0.1860 -0.2333 -0.2758
  770BOLB   C3C18475  20.174  19.575  21.342  0.2553 -0.1218  0.2119
  770BOLB   C4C18476  20.122  19.946  21.665  0.1287 -0.1452  0.0914
  770BOLB   C1D18477  20.898  18.762  20.577  0.0144 -0.2747 -0.2312
  770BOLB   C2D18478  20.610  18.718  20.823  0.1532  0.1322 -0.0968
  770BOLB   C3D18479  20.168  18.853  21.070 -0.0967 -0.0028  0.0840
  770BOLB   C4D18480  19.729  18.746  20.878  0.2188  0.0938 -0.2247
  771BOLB   NC118481  12.549   5.153  30.924  0.0771  0.1615 -0.2251
  771BOLB   PO118482  12.208   5.098  30.791 -0.3299  0.0714 -0.0062
  771BOLB   GL118483  12.032   4.778  30.614  0.0624  0.3619 -0.0318
  771BOLB   GL218484  12.153   4.709  30.382 -0.3379 -0.3475 -0.3056
  771BOLB   C1A18485  11.740   4.448  30.711 -0.0990  0.0716 -0.1200
  771BOLB   C2A18486  11.751   4.019  30.609  0.3263  0.0064 -0.0751
  771BOLB   C3A18487  11.503   3.658  30.759  0.0332 -0.1620  0.1267
  771BOLB   C4A18488  11.243   3.593  31.128  0.4531  0.0993  0.1661
  771BOLB   C1B18489  12.206   4.252  30.468 -0.1298 -0.0329 -0.2110
  771BOLB   C2B18490  12.492   3.914  30.564  0.1073 -0.1828  0.0839
  771BOLB   C3B18491  12.542   3.672  30.892  0.1904  0.4387  0.0223
  771BOLB   C4B18492  12.617   3.302  30.991  0.3597  0.3922 -0.1044
  771BOLB   NC218493   8.991   2.127  30.875  0.1939 -0.1288 -0.0216
  771BOLB   PO218494   9.308   1.916  30.765 -0.0160 -0.0572  0.0061
  771BOLB   GL318495   9.592   2.048  31.035  0.0842  0.1021  0.1135
  771BOLB   GL418496   9.557   2.390  31.215 -0.2279 -0.0642 -0.0445
  771BOLB   C1C18497  10.003   2.230  30.975  0.1460  0.0902 -0.1769
  771BOLB   C2C18498  10.270   2.627  31.041  0.0681  0.0427  0.1798
  771BOLB   C3C18499  10.558   3.010  31.120  0.0051  0.0201 -0.0423
  771BOLB   C4C18500  10.905   3.293  31.279  0.1193  0.3264 -0.1311
  771BOLB   C1D18501   9.513   2.816  31.276  0.1741  0.3653  0.1094
  771BOLB   C2D18502   9.542   3.226  31.457  0.2259  0.0136 -0.0810
  771BOLB   C3D18503   9.724   3.597  31.529 -0.2392 -0.2566  0.0638
  771BOLB   C4D18504   9.747   3.819  31.806 -0.4177 -0.2822  0.0607
  772BOLB   NC118505  23.002  19.721  38.682 -0.4069 -0.2541 -0.0649
  772BOLB   PO118506  22.672  19.458  38.437 -0.1784 -0.1332  0.0247
  772BOLB   GL118507  22.521  19.327  38.104 -0.1305  0.7015  0.0030
  772BOLB   GL218508  22.177  19.295  38.247  0.2280 -0.0156  0.0334
  772BOLB   C1A18509  22.487  18.953  37.978 -0.2388  0.0372  0.0748
  772BOLB   C2A18510  22.457  18.415  37.910 -0.1903  0.1647 -0.2775
  772BOLB   C3A18511  22.298  18.083  37.704  0.1824 -0.3094  0.1228
  772BOLB   C4A18512  22.053  18.087  37.271  0.0284 -0.0584 -0.3954
  772BOLB   C1B18513  21.821  19.132  38.157  0.0928 -0.1586 -0.1988
  772BOLB   C2B18514  21.496  19.097  37.807 -0.1109  0.2641 -0.1955
  772BOLB   C3B18515  21.252  18.900  37.490 -0.0260  0.1883  0.1769
  772BOLB   C4B18516  21.172  19.040  37.024 -0.1730  0.1061  0.1235
  772BOLB   NC218517  22.811  19.730  37.631 -0.1441  0.0688  0.1888
  772BOLB   PO218518  22.690  19.960  37.906  0.2651 -0.2975 -0.1661
  772BOLB   GL318519  22.290  19.835  37.742 -0.1307  0.1734  0.1572
  772BOLB   GL418520  22.107  19.771  37.907 -0.0890  0.1859  0.1544
  772BOLB   C1C18521  22.044  19.559  37.434 -0.2488 -0.1273 -0.0808
  772BOLB   C2C18522  22.136  19.267  37.112  0.1713  0.3781 -0.1920
  772BOLB   C3C18523  22.044  18.821  37.115  0.0425  0.1933 -0.2155
  772BOLB   C4C18524  21.939  18.394  37.042 -0.1308 -0.0700  0.1507
  772BOLB   C1D18525  22.074  19.234  37.789 -0.1054  0.1842  0.2417
  772BOLB   C2D18526  21.941  18.806  37.806 -0.1338  0.0849 -0.0521
  772BOLB   C3D18527  21.993  18.547  37.691  0.1676 -0.3847 -0.1912
  772BOLB   C4D18528  21.709  18.420  37.467 -0.1459 -0.3090 -0.0083
  773BOLB   NC118529  15.283   7.076  21.842  0.3282  0.0370 -0.0169
  773BOLB   PO118530  15.169   6.801  22.170  0.0196 -0.0094  0.2980
  773BOLB   GL118531  14.834   6.877  21.728 -0.4526 -0.0263  0.0651
  773BOLB   GL218532  14.513   6.871  21.814 -0.0266 -0.1429  0.4423
  773BOLB   C1A18533  14.790   6.695  21.411 -0.2640 -0.1514 -0.3873
  773BOLB   C2A18534  14.818   6.370  21.378 -0.4455 -0.1646  0.3373
  773BOLB   C3A18535  14.703   6.051  21.034  0.0574 -0.2567  0.2288
  773BOLB   C4A18536  14.845   5.720  20.768 -0.0175  0.2130 -0.0795
  773BOLB   C1B18537  14.365   6.500  21.634  0.2879  0.0501 -0.3666
  773BOLB   C2B18538  13.974   6.455  21.287  0.0607  0.2770 -0.1819
  773BOLB   C3B18539  13.809   6.274  20.852  0.1368 -0.4681 -0.0651
  773BOLB   C4B18540  13.625   6.476  20.533 -0.2177  0.0648 -0.0017
  773BOLB   NC218541  15.608   3.520  19.460  0.1492  0.0178  0.1712
  773BOLB   PO218542  15.121   3.666  19.325 -0.0033 -0.1907  0.0913
  773BOLB   GL318543  15.309   4.052  19.549 -0.0719  0.2491  0.2631
  773BOLB   GL418544  15.611   4.038  19.658 -0.2110  0.1209 -0.2130
  773BOLB   C1C18545  15.090   4.278  19.916  0.1129  0.2133 -0.1141
  773BOLB   C2C18546  15.031   4.675  20.124 -0.1168 -0.0370 -0.0593
  773BOLB   C3C18547  15.132   5.011  20.360 -0.0036  0.2096  0.3590
  773BOLB   C4C18548  15.000   5.320  20.562  0.0364  0.0696  0.0958
  773BOLB   C1D18549  15.503   4.496  19.810 -0.3926  0.1208 -0.0862
  773BOLB   C2D18550  15.816   4.941  19.960  0.2178  0.0289 -0.0433
  773BOLB   C3D18551  16.023   5.338  20.115 -0.2191 -0.0316  0.0186
  773BOLB   C4D18552  16.292   5.652  20.285  0.1615  0.1579 -0.0547
  774BOLB   NC118553  13.055   9.081  43.538  0.0793 -0.0334 -0.0513
  774BOLB   PO118554  12.983   9.438  43.379  0.2432  0.1376  0.4398
  774BOLB   GL118555  13.136   9.365  42.958  0.0950 -0.1708  0.3548
  774BOLB   GL218556  13.405   9.378  42.937  0.0831 -0.0660  0.1683
  774BOLB   C1A18557  13.052   9.283  42.587 -0.2008 -0.0082  0.0211
  774BOLB   C2A18558  13.192   9.474  42.186  0.1726 -0.1435 -0.2812
  774BOLB   C3A18559  13.202   9.268  41.806  0.0763  0.2548  0.2988
  774BOLB   C4A18560  12.824   9.130  41.581  0.0863  0.0914 -0.4042
  774BOLB   C1B18561  13.351   9.695  42.573  0.3532 -0.2502 -0.3507
  774BOLB   C2B18562  13.323   9.911  42.259  0.0039  0.0967 -0.0126
  774BOLB   C3B18563  13.654  10.098  42.028 -0.2471 -0.1502 -0.0399
  774BOLB   C4B18564  13.914  10.403  42.116  0.0234 -0.1475  0.4526
  774BOLB   NC218565  12.079   6.721  42.207  0.1160  0.1435 -0.0261
  774BOLB   PO218566  12.094   7.212  42.405  0.0211  0.2927  0.1967
  774BOLB   GL318567  12.215   7.406  42.032 -0.2534  0.1253  0.1795
  774BOLB   GL418568  12.569   7.318  42.014 -0.0283 -0.1110 -0.2948
  774BOLB   C1C18569  12.424   7.749  41.757 -0.0811 -0.0872  0.4090
  774BOLB   C2C18570  12.456   8.208  41.723  0.1598  0.0343 -0.3781
  774BOLB   C3C18571  12.520   8.563  41.691 -0.0172  0.0541  0.1931
  774BOLB   C4C18572  12.688   8.849  41.783  0.0531 -0.2757 -0.1057
  774BOLB   C1D18573  12.601   7.335  41.546 -0.4172 -0.0518  0.1598
  774BOLB   C2D18574  12.650   7.420  41.253 -0.2979 -0.2072  0.3250
  774BOLB   C3D18575  12.523   7.696  40.907  0.0634  0.1445  0.1136
  774BOLB   C4D18576  12.357   7.593  40.463 -0.1244  0.2575  0.2718
  775BOLB   NC118577   0.370  13.538  34.015 -0.1412 -0.1849  0.0436
  775BOLB   PO118578   0.691  13.851  33.811 -0.2154 -0.3564 -0.1144
  775BOLB   GL118579   0.178  13.892  33.703 -0.1845  0.1159 -0.0709
  775BOLB   GL218580  27.040  14.206  33.839  0.0371  0.2072 -0.2147
  775BOLB   C1A18581  27.022  13.828  33.313 -0.3631 -0.1213 -0.1008
  775BOLB   C2A18582  26.653  14.007  32.942 -0.2263  0.2766 -0.0104
  775BOLB   C3A18583  26.116  13.967  32.842 -0.0437  0.0630 -0.1097
  775BOLB   C4A18584  25.662  13.885  32.669  0.0176  0.1153 -0.4820
  775BOLB   C1B18585  26.698  13.897  33.751  0.2778  0.5270 -0.2190
  775BOLB   C2B18586  26.591  13.447  33.711  0.3891 -0.4573  0.1386
  775BOLB   C3B18587  26.176  13.308  33.747 -0.1106 -0.2703 -0.3859
  775BOLB   C4B18588  25.782  13.091  33.868 -0.3094 -0.3882  0.0385
  775BOLB   NC218589  23.454  12.899  31.983  0.2451  0.0316 -0.1600
  775BOLB   PO218590  23.466  13.126  32.496  0.1724  0.2564  0.0179
  775BOLB   GL318591  23.853  13.100  32.549  0.4722  0.1375 -0.3508
  775BOLB   GL418592  23.882  12.777  32.566  0.1489  0.0447  0.0462
  775BOLB   C1C18593  24.339  13.168  32.629  0.1195  0.0634 -0.2161
  775BOLB   C2C18594  24.580  13.403  32.900 -0.1595  0.3674 -0.0956
  775BOLB   C3C18595  24.893  13.704  33.030  0.1274  0.1825 -0.0297
  775BOLB   C4C18596  25.198  13.894  32.844  0.0982  0.0998 -0.3129
  775BOLB   C1D18597  24.268  12.671  32.620  0.1050 -0.1516 -0.2462
  775BOLB   C2D18598  24.698  12.762  32.609 -0.1619 -0.0595  0.2446
  775BOLB   C3D18599  24.997  13.094  32.677  0.3591  0.0206  0.0065
  775BOLB   C4D18600  25.279  13.392  32.874 -0.0589 -0.0149  0.0239
  776BOLB   NC118601   3.955  14.546  27.310  0.1466 -0.0574  0.3016
  776BOLB   PO118602   3.797  14.661  27.682 -0.3432  0.0297  0.2242
  776BOLB   GL118603   4.317  14.793  27.602  0.2016 -0.2260  0.1091
  776BOLB   GL218604   4.297  15.183  27.594 -0.0848  0.1003  0.2533
  776BOLB   C1A18605   4.730  14.702  27.565 -0.1072  0.0557 -0.3896
  776BOLB   C2A18606   5.096  14.526  27.735 -0.0003  0.2558 -0.2218
  776BOLB   C3A18607   5.505  14.607  27.894 -0.1345  0.1312 -0.1172
  776BOLB   C4A18608   5.739  14.691  28.278  0.0555 -0.0607 -0.3300
  776BOLB   C1B18609   4.818  15.360  27.759 -0.1636  0.1296 -0.0425
  776BOLB   C2B18610   5.300  15.297  27.790  0.0992 -0.0001 -0.2194
  776BOLB   C3B18611   5.629  15.529  27.792  0.3383  0.0065  0.0770
  776BOLB   C4B18612   5.777  15.766  27.806  0.0598  0.1209  0.1237
  776BOLB   NC218613   8.253  13.854  28.395 -0.0793 -0.1559  0.2444
  776BOLB   PO218614   7.814  13.876  28.293 -0.1640  0.1665 -0.0104
  776BOLB   GL318615   7.346  13.968  28.407  0.1693 -0.0635 -0.0125
  776BOLB   GL418616   7.076  13.728  28.167 -0.0527 -0.4720 -0.2730
  776BOLB   C1C18617   7.011  14.077  28.652  0.1495  0.1324 -0.1440
  776BOLB   C2C18618   6.711  14.443  28.864 -0.0381 -0.2046 -0.2579
  776BOLB   C3C18619   6.364  14.477  28.833 -0.0685 -0.0020  0.1233
  776BOLB   C4C18620   6.129  14.674  28.672  0.2214 -0.0581  0.0712
  776BOLB   C1D18621   6.989  14.076  28.062  0.0030 -0.1616  0.0916
  776BOLB   C2D18622   6.997  14.355  27.805 -0.2096  0.0619  0.0313
  776BOLB   C3D18623   6.765  14.713  27.618 -0.2249 -0.0339 -0.1412
  776BOLB   C4D18624   6.883  14.820  27.222  0.1467  0.0391 -0.2124
  777BOLB   NC118625  21.618  13.845  23.717 -0.0021  0.0320 -0.0244
  777BOLB   PO118626  21.872  13.587  23.673  0.1008  0.0049 -0.1484
  777BOLB   GL118627  22.106  13.675  23.927  0.1743  0.1534  0.1080
  777BOLB   GL218628  22.421  13.442  24.021 -0.0969 -0.1203 -0.1774
  777BOLB   C1A18629  22.450  13.951  23.885 -0.1399 -0.3061  0.1630
  777BOLB   C2A18630  22.904  14.157  24.067  0.1729 -0.1100  0.0099
  777BOLB   C3A18631  23.087  14.388  24.539  0.0610  0.0586 -0.2823
  777BOLB   C4A18632  23.159  14.592  24.951 -0.1301  0.3256  0.0957
  777BOLB   C1B18633  22.728  13.607  24.142 -0.1275  0.3986 -0.0184
  777BOLB   C2B18634  23.187  13.685  24.007  0.1206  0.2807  0.0273
  777BOLB   C3B18635  23.577  13.616  24.121 -0.1162 -0.0388 -0.1318
  777BOLB   C4B18636  23.951  13.569  23.828  0.5577 -0.3469  0.1912
  777BOLB   NC218637  25.134  16.193  24.795  0.0860 -0.1538 -0.1334
  777BOLB   PO218638  25.266  15.721  24.795 -0.1456  0.2160 -0.1657
  777BOLB   GL318639  24.963  15.545  24.902 -0.0994 -0.1975  0.2677
  777BOLB   GL418640  24.984  15.221  24.731  0.0805  0.2095  0.1877
  777BOLB   C1C18641  24.533  15.382  24.922 -0.3007 -0.0640 -0.2040
  777BOLB   C2C18642  24.141  15.103  24.872 -0.1162 -0.0247  0.1711
  777BOLB   C3C18643  23.881  14.954  25.128  0.2273  0.0049 -0.3088
  777BOLB   C4C18644  23.484  14.728  24.912 -0.0526  0.1283  0.2322
  777BOLB   C1D18645  24.703  14.988  24.655 -0.1703  0.1603 -0.3079
  777BOLB   C2D18646  24.525  14.578  24.803 -0.2031  0.1578 -0.4385
  777BOLB   C3D18647  24.337  14.241  24.748 -0.1053 -0.0576 -0.2200
  777BOLB   C4D18648  24.403  13.777  24.620 -0.0874  0.1252 -0.0447
  778BOLB   NC118649  21.152   6.274  26.309  0.2897 -0.2340 -0.0211
  778BOLB   PO118650  21.158   5.962  26.576  0.1368 -0.1065 -0.0459
  778BOLB   GL118651  21.502   5.656  26.476 -0.2998 -0.2018 -0.0283
  778BOLB   GL218652  21.834   5.618  26.378 -0.1154  0.0300  0.1643
  778BOLB   C1A18653  21.614   5.236  26.619  0.1773  0.1562 -0.1042
  778BOLB   C2A18654  21.990   5.024  26.515 -0.1625  0.0954 -0.0835
  778BOLB   C3A18655  22.043   4.735  26.307 -0.2075  0.1769  0.0016
  778BOLB   C4A18656  22.150   4.276  26.345 -0.3340 -0.0778  0.0734
  778BOLB   C1B18657  22.210   5.451  26.467 -0.0401 -0.0075  0.1634
  778BOLB   C2B18658  22.622   5.395  26.305  0.2065 -0.2558  0.0429
  778BOLB   C3B18659  22.998   5.111  26.261  0.3041 -0.2828  0.1254
  778BOLB   C4B18660  23.273   4.860  26.349 -0.0373 -0.2257  0.3805
  778BOLB   NC218661  23.481   1.949  25.559 -0.4754 -0.3615  0.0679
  778BOLB   PO218662  23.043   2.218  25.551 -0.3288  0.2507  0.0808
  778BOLB   GL318663  22.681   2.354  25.774 -0.1699  0.1085 -0.2606
  778BOLB   GL418664  22.763   2.314  26.074  0.1218  0.0122 -0.1566
  778BOLB   C1C18665  22.539   2.775  25.776  0.0259  0.0178  0.2739
  778BOLB   C2C18666  22.460   3.094  26.018 -0.1611 -0.0920  0.1683
  778BOLB   C3C18667  22.241   3.380  26.227  0.2079 -0.1180  0.1344
  778BOLB   C4C18668  22.215   3.816  26.272 -0.2407 -0.1105  0.1234
  778BOLB   C1D18669  22.733   2.707  26.429 -0.1035 -0.3924  0.2605
  778BOLB   C2D18670  22.785   3.204  26.527 -0.2255  0.1801  0.2220
  778BOLB   C3D18671  22.657   3.629  26.495  0.3707  0.0203 -0.0057
  778BOLB   C4D18672  22.676   4.103  26.208 -0.0764  0.0911  0.1103
  779BOLB   NC118673  18.911  18.453  29.576  0.0544  0.1376 -0.1477
  779BOLB   PO118674  19.048  18.689  29.309  0.3629  0.0960 -0.0316
  779BOLB   GL118675  19.481  18.805  29.184 -0.1862  0.2694  0.5203
  779BOLB   GL218676  19.806  18.685  29.230  0.0269 -0.0872  0.2610
  779BOLB   C1A18677  19.702  19.165  29.382  0.0065 -0.0560 -0.0277
  779BOLB   C2A18678  19.958  19.429  29.128 -0.0389 -0.1070  0.1602
  779BOLB   C3A18679  20.419  19.601  29.173 -0.1858  0.1003  0.0589
  779BOLB   C4A18680  20.901  19.632  29.178  0.1622  0.1080  0.0368
  779BOLB   C1B18681  20.054  18.897  29.063  0.0880 -0.1364  0.0808
  779BOLB   C2B18682  20.570  19.098  29.137 -0.0016 -0.1093 -0.1260
  779BOLB   C3B18683  20.929  19.154  29.086 -0.1099  0.2752 -0.0848
  779BOLB   C4B18684  21.276  19.031  29.160 -0.0867  0.1298  0.0138
  779BOLB   NC218685  22.733  21.009  28.093 -0.1216  0.1531 -0.1417
  779BOLB   PO218686  22.893  20.899  28.503 -0.1884 -0.0870 -0.3538
  779BOLB   GL318687  22.543  20.749  28.573  0.3443 -0.0090  0.1162
  779BOLB   GL418688  22.402  20.920  28.789 -0.0086 -0.0789 -0.3873
  779BOLB   C1C18689  22.091  20.495  28.582 -0.1005  0.0902  0.0162
  779BOLB   C2C18690  21.740  20.266  28.879 -0.2647 -0.0011 -0.0084
  779BOLB   C3C18691  21.244  20.234  28.937 -0.1539  0.0296 -0.0298
  779BOLB   C4C18692  21.045  19.971  29.158 -0.0542  0.1255  0.1029
  779BOLB   C1D18693  22.060  20.784  29.058 -0.0664 -0.2405 -0.0203
  779BOLB   C2D18694  21.810  20.507  29.305 -0.0359  0.0737 -0.1369
  779BOLB   C3D18695  21.496  20.437  29.382  0.0283  0.2422  0.5456
  779BOLB   C4D18696  21.063  20.366  29.493  0.1034 -0.0159 -0.0335
  780BOLB   NC118697  11.216   6.161  26.198 -0.0004  0.0652 -0.1210
  780BOLB   PO118698  10.983   6.365  25.889 -0.1638 -0.3861 -0.2845
  780BOLB   GL118699  10.653   6.263  25.623  0.1772 -0.2725 -0.0305
  780BOLB   GL218700  10.580   6.601  25.577 -0.2714  0.1597  0.2731
  780BOLB   C1A18701  10.177   6.284  25.721  0.0169  0.3630 -0.2730
  780BOLB   C2A18702   9.965   5.962  25.486 -0.2456  0.0388 -0.1973
  780BOLB   C3A18703   9.748   5.769  25.228 -0.2669  0.1143  0.0905
  780BOLB   C4A18704   9.628   5.413  24.897 -0.0032 -0.0228  0.3438
  780BOLB   C1B18705  10.249   6.552  25.288  0.1349  0.0376 -0.3604
  780BOLB   C2B18706  10.067   6.199  25.044  0.1634  0.1534 -0.0089
  780BOLB   C3B18707   9.677   6.083  24.791  0.3152 -0.0333  0.0219
  780BOLB   C4B18708   9.367   5.864  24.925 -0.0218 -0.0550  0.1828
  780BOLB   NC218709   7.649   5.040  24.168  0.1176 -0.2770  0.0445
  780BOLB   PO218710   7.515   5.397  23.829  0.0282  0.1880 -0.1016
  780BOLB   GL318711   7.826   5.533  23.754  0.1483 -0.4327 -0.0506
  780BOLB   GL418712   7.877   5.933  23.644 -0.4053 -0.0622 -0.0450
  780BOLB   C1C18713   8.199   5.615  24.000 -0.1112 -0.0101  0.1291
  780BOLB   C2C18714   8.628   5.486  24.155 -0.0278  0.2876  0.0596
  780BOLB   C3C18715   8.779   5.466  24.576 -0.0545  0.2336 -0.1089
  780BOLB   C4C18716   9.183   5.382  24.765  0.0827  0.0264 -0.1867
  780BOLB   C1D18717   8.262   6.010  23.652 -0.2875 -0.1437 -0.3200
  780BOLB   C2D18718   8.566   6.006  23.980 -0.0177 -0.1669  0.0569
  780BOLB   C3D18719   8.687   5.955  24.334 -0.1731  0.1208  0.1340
  780BOLB   C4D18720   8.605   5.959  24.828  0.1405 -0.1063  0.0178
  781BOLB   NC118721  23.460  13.022  32.949 -0.1647 -0.2847 -0.1592
  781BOLB   PO118722  23.528  12.639  33.090  0.0009 -0.1957  0.2029
  781BOLB   GL118723  23.929  12.838  33.077  0.3226  0.2911 -0.0195
  781BOLB   GL218724  24.039  13.186  33.083  0.3666 -0.3274  0.0421
  781BOLB   C1A18725  24.337  12.846  33.058  0.0121 -0.0738 -0.0826
  781BOLB   C2A18726  24.815  12.790  33.077  0.3099  0.1836 -0.0676
  781BOLB   C3A18727  25.160  12.642  32.845 -0.2655 -0.0692 -0.1973
  781BOLB   C4A18728  25.553  12.719  32.896 -0.0166 -0.0289 -0.1937
  781BOLB   C1B18729  24.301  13.574  33.213 -0.2322  0.1717 -0.0202
  781BOLB   C2B18730  24.299  14.031  33.181 -0.0261 -0.2498  0.3697
  781BOLB   C3B18731  24.373  14.459  33.213  0.0404  0.0423 -0.0180
  781BOLB   C4B18732  24.570  14.876  33.060  0.2884  0.0860 -0.0029
  781BOLB   NC218733   0.740  13.365  33.457  0.2546  0.0682  0.0177
  781BOLB   PO218734   0.392  13.380  33.194 -0.2678  0.1464  0.4352
  781BOLB   GL318735  27.042  13.409  33.051 -0.0346 -0.1139 -0.4146
  781BOLB   GL418736   0.093  13.310  32.758  0.0681 -0.1145 -0.2046
  781BOLB   C1C18737  26.652  13.517  33.079 -0.1024 -0.1716  0.1284
  781BOLB   C2C18738  26.345  13.297  33.146 -0.0020  0.0942 -0.3014
  781BOLB   C3C18739  26.062  13.040  33.294  0.2497 -0.0191  0.1317
  781BOLB   C4C18740  25.795  12.913  33.216  0.1321  0.0142 -0.0170
  781BOLB   C1D18741  26.632  13.032  32.740  0.0458  0.1555  0.0899
  781BOLB   C2D18742  26.383  12.574  32.579  0.0118 -0.1563 -0.1127
  781BOLB   C3D18743  25.961  12.530  32.395 -0.0962 -0.1593 -0.1944
  781BOLB   C4D18744  25.612  12.373  32.418  0.1050  0.1715  0.1079
  782BOLB   NC118745  18.978   3.249  38.880  0.1999  0.1495 -0.0896
  782BOLB   PO118746  18.540   3.105  38.774  0.3619 -0.1963  0.2403
  782BOLB   GL118747  18.224   3.442  38.529 -0.1327  0.0061 -0.0359
  782BOLB   GL218748  18.295   3.346  38.124 -0.1162 -0.0877 -0.1364
  782BOLB   C1A18749  18.062   3.802  38.138  0.1113  0.1539  0.0675
  782BOLB   C2A18750  17.791   4.107  37.895  0.1711 -0.0254  0.1051
  782BOLB   C3A18751  17.413   4.352  37.677 -0.5982 -0.0335  0.1954
  782BOLB   C4A18752  17.081   4.307  37.576 -0.1843 -0.3716 -0.0434
  782BOLB   C1B18753  18.437   3.569  37.743  0.3244 -0.1107 -0.1201
  782BOLB   C2B18754  18.375   4.050  37.862  0.1366 -0.1367  0.0401
  782BOLB   C3B18755  18.244   4.388  37.700  0.0271  0.0393 -0.2526
  782BOLB   C4B18756  17.873   4.379  37.409  0.1799 -0.0362  0.0710
  782BOLB   NC218757  16.739   3.663  39.306 -0.0475 -0.1589  0.0831
  782BOLB   PO218758  16.690   3.258  39.044  0.0731  0.1387  0.2490
  782BOLB   GL318759  16.431   3.557  38.769  0.1962  0.1792  0.1262
  782BOLB   GL418760  16.381   3.885  38.920 -0.3166 -0.2118  0.1639
  782BOLB   C1C18761  16.216   3.826  38.481 -0.0897 -0.3403 -0.2296
  782BOLB   C2C18762  16.084   3.996  38.060  0.1497 -0.0200  0.1903
  782BOLB   C3C18763  16.194   4.150  37.612 -0.3314 -0.0689 -0.4474
  782BOLB   C4C18764  16.563   4.414  37.482 -0.1700  0.1081  0.2892
  782BOLB   C1D18765  16.269   4.283  38.645  0.0353  0.1929 -0.0033
  782BOLB   C2D18766  16.208   4.498  38.289 -0.1073  0.0627  0.0088
  782BOLB   C3D18767  16.299   4.745  37.796 -0.0068 -0.1369 -0.0819
  782BOLB   C4D18768  16.143   5.162  37.541  0.1427 -0.1187 -0.1825
  783BOLB   NC118769  12.460  13.306  21.509  0.4508  0.0447  0.0890
  783BOLB   PO118770  12.261  13.640  21.282 -0.0180  0.0831  0.2781
  783BOLB   GL118771  11.851  13.546  21.071 -0.4295 -0.0487  0.0792
  783BOLB   GL218772  11.559  13.409  21.201  0.0215  0.1155 -0.1097
  783BOLB   C1A18773  11.622  13.733  20.771 -0.1888 -0.2952 -0.3305
  783BOLB   C2A18774  11.475  13.658  20.334 -0.2387  0.2403 -0.2131
  783BOLB   C3A18775  11.462  13.838  19.931  0.2570 -0.1574 -0.1260
  783BOLB   C4A18776  11.140  14.024  19.635 -0.0433  0.1079 -0.3333
  783BOLB   C1B18777  11.529  13.244  20.792 -0.1614  0.1596 -0.0548
  783BOLB   C2B18778  11.385  13.076  20.433  0.1601  0.0179 -0.0676
  783BOLB   C3B18779  11.304  12.729  20.184  0.0301  0.0491  0.1847
  783BOLB   C4B18780  10.985  12.374  20.263  0.3165  0.0845  0.2423
  783BOLB   NC218781   9.567  15.649  18.304  0.2559  0.1104  0.2360
  783BOLB   PO218782   9.462  15.202  18.427  0.2286 -0.1634 -0.1284
  783BOLB   GL318783   9.742  15.162  18.708  0.2148 -0.4042 -0.1943
  783BOLB   GL418784   9.487  14.927  18.944 -0.2304  0.0114  0.0026
  783BOLB   C1C18785   9.959  14.854  18.971 -0.1545  0.2024  0.0590
  783BOLB   C2C18786  10.315  14.699  19.265  0.2238  0.0109  0.0612
  783BOLB   C3C18787  10.440  14.510  19.488 -0.0315 -0.0658 -0.2416
  783BOLB   C4C18788  10.868  14.216  19.573  0.0560  0.0939 -0.0707
  783BOLB   C1D18789   9.569  15.216  19.183 -0.1170 -0.0600 -0.1217
  783BOLB   C2D18790   9.932  15.361  19.322 -0.0096  0.1309  0.4159
  783BOLB   C3D18791  10.245  15.606  19.308  0.0182  0.2920  0.2758
  783BOLB   C4D18792  10.375  15.611  19.667  0.0988  0.0936 -0.2030
  784BOLB   NC118793  12.533  13.363  39.037 -0.2529  0.3034 -0.1960
  784BOLB   PO118794  12.145  13.350  38.997  0.3231  0.0109 -0.2588
  784BOLB   GL118795  11.918  13.505  39.258 -0.0420  0.0603 -0.3610
  784BOLB   GL218796  11.864  13.399  39.595 -0.2333  0.1867 -0.0355
  784BOLB   C1A18797  11.618  13.832  39.605 -0.0370 -0.0735 -0.0288
  784BOLB   C2A18798  11.565  14.305  39.599  0.2559  0.1338 -0.3552
  784BOLB   C3A18799  11.240  14.426  39.876  0.0213  0.2181 -0.2855
  784BOLB   C4A18800  10.854  14.697  40.008  0.0276 -0.2825 -0.1997
  784BOLB   C1B18801  11.478  13.206  39.693 -0.0621  0.1391  0.1360
  784BOLB   C2B18802  11.254  13.112  40.043 -0.0017  0.2970 -0.1622
  784BOLB   C3B18803  11.223  12.846  40.426  0.1430 -0.0810  0.0680
  784BOLB   C4B18804  11.406  12.519  40.496  0.1420 -0.3166  0.0030
  784BOLB   NC218805   9.283  14.898  42.172  0.0195 -0.0088  0.1041
  784BOLB   PO218806   9.531  14.616  41.855 -0.0806  0.0429 -0.4549
  784BOLB   GL318807   9.499  14.672  41.476  0.1576  0.3045 -0.0312
  784BOLB   GL418808   9.229  14.369  41.451 -0.1487 -0.0406 -0.0338
  784BOLB   C1C18809   9.846  14.782  41.063  0.1852 -0.1926  0.0122
  784BOLB   C2C18810  10.006  14.861  40.696 -0.1682  0.0378  0.3164
  784BOLB   C3C18811  10.187  14.797  40.312 -0.1076 -0.1739  0.1825
  784BOLB   C4C18812  10.550  14.939  40.199  0.0881 -0.1575  0.0960
  784BOLB   C1D18813   9.484  14.314  41.108 -0.0154 -0.0294 -0.4337
  784BOLB   C2D18814   9.598  14.146  40.778 -0.1087  0.0499 -0.1513
  784BOLB   C3D18815   9.907  13.952  40.537  0.5115  0.2302  0.1315
  784BOLB   C4D18816  10.253  14.028  40.232 -0.1560 -0.1215 -0.0689
  785BOLB   NC118817  16.123  24.068  35.484 -0.1300  0.1937 -0.0291
  785BOLB   PO118818  15.958  24.107  34.984 -0.3538 -0.2733 -0.1326
  785BOLB   GL118819  16.123  23.746  34.853  0.0128  0.0026  0.2273
  785BOLB   GL218820  15.832  23.595  35.023  0.1875 -0.0200 -0.2727
  785BOLB   C1A18821  16.296  23.559  34.459 -0.3077  0.1409 -0.0716
  785BOLB   C2A18822  16.106  23.291  34.094 -0.2278 -0.0072  0.1256
  785BOLB   C3A18823  16.069  23.008  33.735  0.1421 -0.0714 -0.1419
  785BOLB   C4A18824  16.067  22.566  33.571 -0.1067 -0.1480 -0.1783
  785BOLB   C1B18825  16.038  23.227  34.943  0.2276  0.1435 -0.0311
  785BOLB   C2B18826  15.981  22.936  34.542 -0.1473  0.3110 -0.0103
  785BOLB   C3B18827  15.774  22.618  34.483  0.1356 -0.2206 -0.0378
  785BOLB   C4B18828  15.717  22.304  34.708  0.0589 -0.1637  0.0717
  785BOLB   NC218829  16.017  20.344  32.329 -0.2244 -0.1443  0.1779
  785BOLB   PO218830  15.526  20.616  32.448  0.2529  0.2551  0.0493
  785BOLB   GL318831  15.777  20.971  32.552 -0.3715 -0.0103  0.2182
  785BOLB   GL418832  15.955  21.079  32.314  0.2184 -0.0085  0.1852
  785BOLB   C1C18833  15.881  21.323  32.796 -0.0708  0.3190 -0.0666
  785BOLB   C2C18834  15.964  21.730  32.828 -0.1891  0.1435  0.0293
  785BOLB   C3C18835  16.097  22.046  33.129 -0.1690 -0.0142  0.1790
  785BOLB   C4C18836  15.988  22.200  33.483  0.3574 -0.1337  0.3016
  785BOLB   C1D18837  15.840  21.431  32.313 -0.4084  0.2921 -0.2093
  785BOLB   C2D18838  15.954  21.813  32.173  0.0314  0.0515 -0.0371
  785BOLB   C3D18839  16.103  22.291  32.435 -0.1652 -0.2077  0.0892
  785BOLB   C4D18840  16.176  22.617  32.664  0.0526 -0.2777  0.0615
  786BOLB   NC118841   9.499  17.660  25.560 -0.3657 -0.0610 -0.0460
  786BOLB   PO118842   9.560  17.974  25.847  0.3082  0.1907 -0.0716
  786BOLB   GL118843   9.305  18.125  25.662 -0.1711 -0.0121  0.1326
  786BOLB   GL218844   9.283  18.408  25.974  0.1732  0.0959  0.1425
  786BOLB   C1A18845   8.986  18.100  25.454 -0.0888  0.0500 -0.0552
  786BOLB   C2A18846   8.638  18.395  25.396 -0.1352  0.0001 -0.1134
  786BOLB   C3A18847   8.309  18.751  25.242 -0.4073 -0.1110  0.0792
  786BOLB   C4A18848   8.185  19.135  25.085  0.2215  0.0804 -0.0414
  786BOLB   C1B18849   9.051  18.658  25.826 -0.1823 -0.1295 -0.4087
  786BOLB   C2B18850   8.643  18.750  25.751 -0.0225  0.0419  0.0989
  786BOLB   C3B18851   8.379  18.758  26.033 -0.0650  0.0627 -0.0467
  786BOLB   C4B18852   8.018  18.821  26.219  0.3023  0.1904 -0.2132
  786BOLB   NC218853   6.353  21.298  24.904  0.1278 -0.1944 -0.1762
  786BOLB   PO218854   6.541  20.909  24.929  0.2377 -0.1573  0.1897
  786BOLB   GL318855   6.584  20.518  24.872 -0.0353  0.0637  0.0895
  786BOLB   GL418856   6.380  20.199  24.933  0.1347 -0.0061 -0.1869
  786BOLB   C1C18857   6.952  20.333  24.893  0.0010  0.0741 -0.2146
  786BOLB   C2C18858   7.127  19.959  25.108  0.0888 -0.1159 -0.1107
  786BOLB   C3C18859   7.529  19.755  25.116  0.0665  0.1800  0.1820
  786BOLB   C4C18860   7.795  19.365  25.064 -0.2115  0.3215  0.0674
  786BOLB   C1D18861   6.627  20.041  25.231 -0.2263  0.0325  0.0343
  786BOLB   C2D18862   6.934  20.081  25.550 -0.0384 -0.1061  0.1402
  786BOLB   C3D18863   7.337  20.282  25.803 -0.2388  0.1137 -0.3663
  786BOLB   C4D18864   7.528  20.275  26.151  0.2149  0.2074 -0.0457
  787BOLB   NC118865  14.532  17.197  38.036 -0.0053 -0.1532  0.2121
  787BOLB   PO118866  14.670  17.172  38.543 -0.3245 -0.0553 -0.4179
  787BOLB   GL118867  14.458  17.574  38.569 -0.4080  0.2130 -0.0290
  787BOLB   GL218868  14.113  17.706  38.609  0.1004 -0.1638 -0.1506
  787BOLB   C1A18869  14.426  17.821  38.930  0.1278 -0.0697  0.2757
  787BOLB   C2A18870  14.512  18.185  39.124 -0.3675 -0.0674  0.1541
  787BOLB   C3A18871  14.866  18.230  39.403  0.2207 -0.2672 -0.0596
  787BOLB   C4A18872  15.142  18.441  39.668 -0.0042 -0.1478  0.0452
  787BOLB   C1B18873  13.906  17.454  38.869 -0.3132  0.1954 -0.0146
  787BOLB   C2B18874  13.580  17.624  39.009  0.2958 -0.0201 -0.4080
  787BOLB   C3B18875  13.492  18.010  38.952  0.2081 -0.2302 -0.2531
  787BOLB   C4B18876  13.641  18.368  39.219  0.1380 -0.2635 -0.0377
  787BOLB   NC218877  14.764  19.479  41.697  0.2461 -0.0986 -0.1491
  787BOLB   PO218878  14.779  19.259  42.018  0.1159 -0.1682  0.1863
  787BOLB   GL318879  15.081  19.108  41.681  0.0005 -0.2684 -0.1719
  787BOLB   GL418880  15.095  18.877  41.768 -0.2111  0.1659 -0.3686
  787BOLB   C1C18881  15.298  19.252  41.293 -0.3165  0.1479  0.0193
  787BOLB   C2C18882  15.396  19.101  40.794  0.0669  0.1148  0.0183
  787BOLB   C3C18883  15.338  18.933  40.387 -0.0640  0.2758  0.0370
  787BOLB   C4C18884  15.141  18.761  40.033  0.2094 -0.1033 -0.2403
  787BOLB   C1D18885  15.361  18.721  41.436  0.2018  0.1900  0.0742
  787BOLB   C2D18886  15.244  18.626  40.982  0.0667  0.1533  0.0040
  787BOLB   C3D18887  15.074  18.478  40.638 -0.0462  0.1684 -0.0029
  787BOLB   C4D18888  15.040  18.296  40.255  0.0042 -0.1119  0.1558
  788BOLB   NC118889  18.839  16.600  37.704  0.0012 -0.0901 -0.0379
  788BOLB   PO118890  18.529  16.761  38.033 -0.0160 -0.1072 -0.3283
  788BOLB   GL118891  18.634  16.838  38.471 -0.5513  0.2051  0.0542
  788BOLB   GL218892  18.762  16.539  38.610 -0.3479 -0.1424  0.2613
  788BOLB   C1A18893  18.587  17.102  38.800 -0.1391 -0.1591 -0.0201
  788BOLB   C2A18894  18.735  17.244  39.168  0.3780  0.1526  0.3815
  788BOLB   C3A18895  18.807  17.452  39.559  0.1140 -0.1475 -0.0147
  788BOLB   C4A18896  18.811  17.597  39.897 -0.0120 -0.1219  0.1618
  788BOLB   C1B18897  19.208  16.677  38.790 -0.1058  0.4772  0.2614
  788BOLB   C2B18898  19.483  16.482  39.001  0.5046  0.1755 -0.1659
  788BOLB   C3B18899  19.861  16.326  38.878  0.1436  0.0987  0.1369
  788BOLB   C4B18900  19.914  15.847  38.836 -0.2259  0.0385  0.1991
  788BOLB   NC218901  19.024  16.927  42.510  0.2759 -0.0386 -0.2094
  788BOLB   PO218902  18.817  17.312  42.279 -0.0433  0.0753  0.1518
  788BOLB   GL318903  18.883  17.588  41.927 -0.1605  0.2087 -0.1555
  788BOLB   GL418904  19.069  17.888  41.918 -0.0423 -0.0420 -0.5298
  788BOLB   C1C18905  18.718  17.453  41.519 -0.1452  0.0469 -0.1335
  788BOLB   C2C18906  18.549  17.224  41.204 -0.1916 -0.0568 -0.0092
  788BOLB   C3C18907  18.548  17.473  40.797 -0.1419  0.3828 -0.1208
  788BOLB   C4C18908  18.792  17.375  40.372  0.1480 -0.0866 -0.0141
  788BOLB   C1D18909  18.833  17.923  41.543  0.3932 -0.1343 -0.3868
  788BOLB   C2D18910  18.823  17.806  41.058  0.1789  0.0735  0.2046
  788BOLB   C3D18911  19.048  17.861  40.660 -0.0247  0.0715 -0.3550
  788BOLB   C4D18912  18.915  17.964  40.238 -0.0022  0.4219  0.1199
  789BOLB   NC118913  17.443   7.729  21.098  0.0367  0.1191 -0.0857
  789BOLB   PO118914  17.276   7.561  20.855 -0.3900 -0.2397 -0.3310
  789BOLB   GL118915  17.378   7.307  20.582  0.2668 -0.0380 -0.1259
  789BOLB   GL218916  17.632   7.378  20.513  0.0617  0.2295  0.1530
  789BOLB   C1A18917  17.255   6.997  20.266 -0.2763 -0.2211 -0.0675
  789BOLB   C2A18918  17.460   6.642  20.046 -0.1892  0.3312 -0.2216
  789BOLB   C3A18919  17.244   6.259  19.820  0.2969  0.2889  0.0865
  789BOLB   C4A18920  17.167   6.175  19.385  0.0415 -0.2428 -0.0661
  789BOLB   C1B18921  17.712   6.966  20.407 -0.2238 -0.0648  0.0469
  789BOLB   C2B18922  18.050   6.768  20.063  0.0287 -0.0018  0.0341
  789BOLB   C3B18923  17.985   6.397  19.901  0.1947 -0.0325  0.1494
  789BOLB   C4B18924  17.649   6.105  19.613 -0.0827 -0.3221  0.2128
  789BOLB   NC218925  15.868   4.857  17.404  0.1775  0.4290  0.0073
  789BOLB   PO218926  16.065   4.978  17.743 -0.0314 -0.3281 -0.0129
  789BOLB   GL318927  15.902   5.252  18.061  0.3910  0.0251  0.2078
  789BOLB   GL418928  15.804   5.536  18.055  0.1407 -0.0865  0.1650
  789BOLB   C1C18929  16.125   5.478  18.378  0.0572 -0.2034 -0.0436
  789BOLB   C2C18930  16.439   5.747  18.339  0.2538 -0.3079  0.1192
  789BOLB   C3C18931  16.733   6.040  18.515  0.5071 -0.0664 -0.3924
  789BOLB   C4C18932  17.006   6.016  18.955 -0.2365  0.1144  0.0829
  789BOLB   C1D18933  15.774   5.845  18.335 -0.1437  0.1864 -0.0820
  789BOLB   C2D18934  16.052   5.798  18.750 -0.1257 -0.2192  0.4366
  789BOLB   C3D18935  16.082   5.950  19.143  0.2369 -0.1581 -0.0025
  789BOLB   C4D18936  16.174   5.916  19.544  0.0430 -0.0726  0.0661
  790BOLB   NC118937  22.411  13.801  29.028  0.0148 -0.4288 -0.0111
  790BOLB   PO118938  22.715  14.196  29.149  0.0165 -0.2655  0.0842
  790BOLB   GL118939  23.046  14.438  29.021  0.2064 -0.0349 -0.1333
  790BOLB   GL218940  23.093  14.863  29.034 -0.1370 -0.1440  0.2806
  790BOLB   C1A18941  23.419  14.485  28.936  0.0129  0.0912  0.1389
  790BOLB   C2A18942  23.811  14.507  28.758 -0.1750  0.1324  0.0210
  790BOLB   C3A18943  24.095  14.630  28.493 -0.3002 -0.2397  0.2079
  790BOLB   C4A18944  24.410  14.929  28.611  0.0551  0.1341 -0.0650
  790BOLB   C1B18945  23.589  14.966  29.056 -0.0340 -0.1045 -0.1323
  790BOLB   C2B18946  24.017  15.027  28.954  0.0085 -0.1021  0.1410
  790BOLB   C3B18947  24.259  15.384  28.769  0.1380  0.0211  0.0195
  790BOLB   C4B18948  24.490  15.746  28.582 -0.4925  0.1941 -0.0481
  790BOLB   NC218949  25.768  16.960  27.795  0.1905 -0.3068 -0.1263
  790BOLB   PO218950  26.100  16.666  27.672 -0.1611  0.1878 -0.1189
  790BOLB   GL318951  25.678  16.401  27.898 -0.3826  0.2369 -0.0615
  790BOLB   GL418952  25.698  16.398  28.283 -0.0385 -0.2872 -0.0410
  790BOLB   C1C18953  25.387  16.057  28.068 -0.2676  0.1044  0.1015
  790BOLB   C2C18954  25.143  15.682  28.143 -0.0511  0.1308 -0.0408
  790BOLB   C3C18955  24.991  15.471  28.498  0.2807 -0.2892 -0.0928
  790BOLB   C4C18956  24.762  15.222  28.750  0.2269  0.0083 -0.1743
  790BOLB   C1D18957  25.305  16.503  28.279  0.0917  0.1322  0.0403
  790BOLB   C2D18958  24.872  16.546  28.202  0.1613 -0.0212 -0.1208
  790BOLB   C3D18959  24.445  16.312  28.171  0.1326 -0.3342  0.0724
  790BOLB   C4D18960  24.195  16.024  28.167  0.0477 -0.3927  0.0327
  791BOLB   NC118961  15.795   0.702  32.952  0.0876 -0.0170  0.1124
  791BOLB   PO118962  16.139   0.476  32.722 -0.0519  0.3018  0.5329
  791BOLB   GL118963  16.348   0.799  32.783 -0.1140 -0.1108 -0.3576
  791BOLB   GL218964  16.581   0.673  32.437 -0.2772 -0.3477 -0.1895
  791BOLB   C1A18965  16.514   1.290  32.935 -0.2107  0.2426 -0.1943
  791BOLB   C2A18966  16.901   1.428  32.873  0.3111  0.1743 -0.2744
  791BOLB   C3A18967  16.956   1.761  33.122  0.0110 -0.0417 -0.0407
  791BOLB   C4A18968  16.916   1.944  33.493 -0.1224 -0.0967  0.1480
  791BOLB   C1B18969  16.601   1.124  32.393  0.4680  0.2871  0.1603
  791BOLB   C2B18970  16.556   1.524  32.187 -0.0181  0.2964  0.3757
  791BOLB   C3B18971  16.454   1.932  32.243  0.1268 -0.1053 -0.1034
  791BOLB   C4B18972  16.545   2.356  32.277  0.1784  0.1016  0.0965
  791BOLB   NC218973  17.189   0.931  35.968  0.1427  0.2044 -0.3008
  791BOLB   PO218974  17.439   1.209  35.685  0.1276 -0.4565  0.0626
  791BOLB   GL318975  17.224   1.617  35.523 -0.0023 -0.2877 -0.3474
  791BOLB   GL418976  17.062   1.441  35.214 -0.1360 -0.0995  0.3536
  791BOLB   C1C18977  16.958   1.910  35.300  0.2428 -0.1351  0.1826
  791BOLB   C2C18978  16.794   2.059  34.915 -0.0957  0.0099 -0.1805
  791BOLB   C3C18979  16.933   2.083  34.473  0.1556  0.2132  0.1173
  791BOLB   C4C18980  16.845   2.010  33.943 -0.1066  0.0295  0.2916
  791BOLB   C1D18981  16.963   1.587  34.754  0.1750 -0.0869  0.0506
  791BOLB   C2D18982  16.983   1.610  34.289  0.1320  0.3777 -0.0816
  791BOLB   C3D18983  16.940   1.506  33.791  0.5405 -0.1660  0.3478
  791BOLB   C4D18984  16.711   1.425  33.477  0.2163  0.1987  0.0882
  792BOLB   NC118985  21.940   1.067  31.458 -0.0785  0.0205 -0.1121
  792BOLB   PO118986  22.361   1.432  31.394  0.0922 -0.2015  0.1578
  792BOLB   GL118987  22.146   1.897  31.332  0.0732  0.0850  0.0281
  792BOLB   GL218988  22.456   2.008  31.392 -0.0321 -0.3931  0.0985
  792BOLB   C1A18989  22.206   2.294  31.101 -0.0275  0.1278  0.4881
  792BOLB   C2A18990  22.254   2.667  31.388 -0.4077 -0.0573 -0.0841
  792BOLB   C3A18991  22.237   3.109  31.405 -0.0320  0.1454  0.1941
  792BOLB   C4A18992  22.053   3.516  31.268 -0.1200 -0.0519  0.1001
  792BOLB   C1B18993  22.407   2.263  31.632  0.2071  0.0892 -0.4215
  792BOLB   C2B18994  22.724   2.483  31.751 -0.1976 -0.2969 -0.0900
  792BOLB   C3B18995  22.682   2.699  32.156  0.1881  0.3782  0.0687
  792BOLB   C4B18996  22.775   2.946  32.502  0.1622  0.1203  0.2096
  792BOLB   NC218997  19.688   4.841  31.243 -0.2399 -0.0952  0.2887
  792BOLB   PO218998  20.101   5.075  31.380  0.4367  0.1764  0.2108
  792BOLB   GL318999  20.302   4.698  31.430 -0.2368  0.1163 -0.1366
  792BOLB   GL419000  20.059   4.464  31.446 -0.1315  0.0269  0.4533
  792BOLB   C1C19001  20.574   4.488  31.448  0.0900 -0.2136  0.0701
  792BOLB   C2C19002  20.858   4.160  31.332  0.2029  0.1546 -0.0149
  792BOLB   C3C19003  21.289   3.875  31.257  0.0761 -0.1491 -0.2946
  792BOLB   C4C19004  21.781   3.889  31.333  0.0879 -0.1977  0.1693
  792BOLB   C1D19005  20.334   4.070  31.398 -0.0999 -0.1555  0.0431
  792BOLB   C2D19006  20.565   3.738  31.219  0.1250 -0.0073 -0.1558
  792BOLB   C3D19007  20.534   3.515  30.872  0.1935 -0.1838 -0.3166
  792BOLB   C4D19008  20.711   3.441  30.427 -0.2289  0.2721 -0.2738
  793BOLB   NC119009  10.704   9.801  37.596 -0.0700 -0.0037  0.0827
  793BOLB   PO119010  10.456   9.639  37.281  0.0155 -0.1928 -0.4834
  793BOLB   GL119011   9.918   9.597  37.229  0.2366  0.1205 -0.4141
  793BOLB   GL219012   9.784   9.664  36.965 -0.1511  0.2357 -0.0638
  793BOLB   C1A19013   9.701   9.222  37.531 -0.0606  0.0254  0.1393
  793BOLB   C2A19014   9.510   9.139  37.835 -0.1950  0.0903 -0.3931
  793BOLB   C3A19015   9.234   9.118  38.210  0.1277 -0.1669 -0.0493
  793BOLB   C4A19016   8.991   9.389  38.476  0.1008  0.3121 -0.2353
  793BOLB   C1B19017   9.464   9.922  36.953 -0.1964 -0.2319  0.0118
  793BOLB   C2B19018   9.108   9.954  37.314 -0.0770 -0.3184  0.0572
  793BOLB   C3B19019   9.020   9.892  37.729  0.3074  0.2517 -0.2630
  793BOLB   C4B19020   8.770   9.648  38.012 -0.0955 -0.4392 -0.1617
  793BOLB   NC219021   8.005  10.170  40.673  0.0323 -0.0903  0.0785
  793BOLB   PO219022   7.630  10.092  40.597 -0.1134  0.0273  0.0899
  793BOLB   GL319023   7.721  10.070  40.180 -0.0740  0.1006 -0.0665
  793BOLB   GL419024   7.888  10.323  40.109 -0.0720 -0.1643 -0.2563
  793BOLB   C1C19025   7.887   9.889  39.769  0.0169 -0.1208 -0.2741
  793BOLB   C2C19026   8.198   9.722  39.406  0.0776  0.2498 -0.0144
  793BOLB   C3C19027   8.536   9.645  39.186 -0.1236  0.0773  0.1076
  793BOLB   C4C19028   8.649   9.574  38.773  0.0842  0.4400 -0.3484
  793BOLB   C1D19029   8.349  10.506  40.082 -0.1099  0.0909 -0.0998
  793BOLB   C2D19030   8.465  10.950  39.844  0.1893 -0.3523 -0.1657
  793BOLB   C3D19031   8.752  11.298  39.994 -0.3358 -0.2323 -0.2322
  793BOLB   C4D19032   9.245  11.342  39.814  0.0457 -0.1006  0.0916
  794BOLB   NC119033   8.036  12.464  32.034  0.2802  0.0663  0.2325
  794BOLB   PO119034   7.543  12.441  32.094  0.0338 -0.3322 -0.2321
  794BOLB   GL119035   7.110  12.497  32.154  0.1503  0.1304 -0.2921
  794BOLB   GL219036   6.944  12.252  31.968 -0.1684  0.0777  0.1373
  794BOLB   C1A19037   6.722  12.478  32.379 -0.1613 -0.0744  0.0500
  794BOLB   C2A19038   6.343  12.564  32.301 -0.0335 -0.0329  0.1156
  794BOLB   C3A19039   5.969  12.570  32.117  0.0276  0.2525 -0.0799
  794BOLB   C4A19040   5.649  12.891  32.220  0.2288 -0.1315  0.1913
  794BOLB   C1B19041   6.446  12.231  31.909 -0.4526 -0.1572 -0.1117
  794BOLB   C2B19042   6.096  12.027  32.007  0.1690  0.1303 -0.2375
  794BOLB   C3B19043   5.721  12.199  31.882  0.0673 -0.0981 -0.2314
  794BOLB   C4B19044   5.579  12.604  31.804  0.1604  0.3950  0.0660
  794BOLB   NC219045   3.126  12.982  31.281 -0.1958 -0.4309  0.1208
  794BOLB   PO219046   3.533  13.121  31.593 -0.2860  0.0735 -0.1554
  794BOLB   GL319047   3.826  12.973  31.658 -0.3320  0.1113 -0.0738
  794BOLB   GL419048   3.948  12.671  31.474 -0.2186  0.1038  0.0417
  794BOLB   C1C19049   4.188  13.112  31.725  0.3180  0.1257  0.0990
  794BOLB   C2C19050   4.559  13.167  31.855 -0.1578 -0.2764  0.3459
  794BOLB   C3C19051   5.031  13.137  31.929  0.0971 -0.0200 -0.3722
  794BOLB   C4C19052   5.374  13.139  32.214 -0.0512 -0.2309  0.0497
  794BOLB   C1D19053   4.264  12.913  31.240 -0.0661  0.2209 -0.1003
  794BOLB   C2D19054   4.705  12.969  31.305 -0.1118  0.2245  0.0037
  794BOLB   C3D19055   5.131  12.988  31.314  0.2113 -0.0916  0.0139
  794BOLB   C4D19056   5.480  13.106  31.633 -0.1432 -0.0525 -0.1225
  795BOLB   NC119057  11.141   1.887  35.463 -0.1018  0.0277  0.2307
  795BOLB   PO119058  10.916   2.201  35.582 -0.0667  0.0648 -0.2980
  795BOLB   GL119059  10.964   2.521  35.329 -0.0140  0.3118  0.2014
  795BOLB   GL219060  11.272   2.445  35.272 -0.1658  0.0210  0.2324
  795BOLB   C1A19061  11.156   2.783  34.879  0.2739 -0.1948 -0.0555
  795BOLB   C2A19062  11.118   3.168  34.816 -0.0634 -0.3166 -0.0855
  795BOLB   C3A19063  10.711   3.453  34.861 -0.1646 -0.1637  0.3582
  795BOLB   C4A19064  10.655   3.907  34.802  0.0141  0.0467 -0.3795
  795BOLB   C1B19065  11.627   2.621  35.351  0.1947 -0.1868 -0.1461
  795BOLB   C2B19066  11.991   2.836  35.202  0.4442  0.0583 -0.1637
  795BOLB   C3B19067  12.381   3.097  35.110  0.1757 -0.0737  0.0260
  795BOLB   C4B19068  12.731   3.197  35.377  0.5499 -0.0142 -0.2939
  795BOLB   NC219069  10.107   2.757  35.460  0.3898 -0.3078  0.1449
  795BOLB   PO219070   9.912   2.650  34.959 -0.3148  0.0558  0.0650
  795BOLB   GL319071  10.176   2.964  34.624 -0.0540 -0.2164  0.0239
  795BOLB   GL419072   9.986   3.251  34.569  0.1708 -0.2794 -0.0458
  795BOLB   C1C19073  10.503   3.243  34.466 -0.1680  0.0597 -0.0553
  795BOLB   C2C19074  10.526   3.648  34.411  0.0426 -0.1501 -0.0670
  795BOLB   C3C19075  10.719   3.987  34.213 -0.2198  0.2300 -0.0224
  795BOLB   C4C19076  10.775   4.312  34.521 -0.0644  0.1105 -0.0386
  795BOLB   C1D19077  10.173   3.631  34.721 -0.2487  0.1804  0.2635
  795BOLB   C2D19078  10.204   3.951  35.050  0.1865  0.1510  0.1357
  795BOLB   C3D19079  10.149   4.244  35.447 -0.0712 -0.2844 -0.0141
  795BOLB   C4D19080  10.374   4.332  35.755  0.0008 -0.1011 -0.0823
  796BOLB   NC119081  11.373  18.158  23.548  0.1720  0.1085 -0.0435
  796BOLB   PO119082  11.324  17.695  23.809 -0.4311 -0.0472  0.2324
  796BOLB   GL119083  10.830  17.783  23.698 -0.1459  0.1983 -0.1388
  796BOLB   GL219084  10.840  18.158  23.779  0.1237 -0.1947  0.2179
  796BOLB   C1A19085  10.442  17.846  23.576 -0.0775  0.1377 -0.0086
  796BOLB   C2A19086  10.107  18.031  23.401 -0.3840 -0.0518  0.0137
  796BOLB   C3A19087   9.899  18.186  23.067  0.3796  0.3320  0.2099
  796BOLB   C4A19088   9.640  17.923  22.810 -0.3258  0.0338  0.0141
  796BOLB   C1B19089  10.602  18.349  23.475  0.0943  0.1752 -0.0304
  796BOLB   C2B19090  10.367  18.613  23.207 -0.2645 -0.0202 -0.1027
  796BOLB   C3B19091   9.981  18.651  22.967 -0.0233 -0.0260 -0.6623
  796BOLB   C4B19092   9.558  18.697  22.719 -0.3295  0.1511  0.0721
  796BOLB   NC219093   8.015  18.105  20.588  0.0041  0.0490  0.1055
  796BOLB   PO219094   8.201  18.239  21.051  0.3816  0.1271 -0.2097
  796BOLB   GL319095   8.363  17.938  21.347 -0.0667 -0.1088 -0.0434
  796BOLB   GL419096   8.358  17.658  21.142 -0.5236 -0.2511 -0.0256
  796BOLB   C1C19097   8.697  17.859  21.584 -0.0119  0.0405  0.2752
  796BOLB   C2C19098   8.947  17.572  21.836 -0.0779 -0.2561  0.1309
  796BOLB   C3C19099   9.327  17.700  22.157 -0.0594 -0.1999  0.2346
  796BOLB   C4C19100   9.430  18.020  22.378 -0.1118  0.1446 -0.4367
  796BOLB   C1D19101   8.766  17.487  21.237  0.3058  0.0851  0.1202
  796BOLB   C2D19102   9.024  17.281  21.461  0.1901  0.1207 -0.2064
  796BOLB   C3D19103   9.312  17.232  21.850 -0.3155  0.0030 -0.0279
  796BOLB   C4D19104   9.817  17.278  21.943 -0.2020 -0.2177  0.2216
  797BOLB   NC119105  17.152  19.896  34.485  0.3308 -0.0293 -0.1638
  797BOLB   PO119106  17.010  20.087  34.829  0.1686  0.2583 -0.0274
  797BOLB   GL119107  16.967  20.453  34.658 -0.0152 -0.3353 -0.0436
  797BOLB   GL219108  16.732  20.598  34.495  0.3953 -0.0053  0.1490
  797BOLB   C1A19109  17.106  20.840  34.467  0.1564  0.0743  0.1694
  797BOLB   C2A19110  17.279  21.156  34.475 -0.1292  0.0658 -0.1316
  797BOLB   C3A19111  17.256  21.609  34.333 -0.1070  0.2041 -0.1423
  797BOLB   C4A19112  17.495  21.862  34.534  0.0189 -0.2870  0.2115
  797BOLB   C1B19113  16.722  21.084  34.529  0.0413  0.0275 -0.1266
  797BOLB   C2B19114  16.948  21.385  34.784  0.2567 -0.0632  0.0931
  797BOLB   C3B19115  16.838  21.631  35.143  0.0590 -0.0176 -0.1306
  797BOLB   C4B19116  17.118  21.767  35.476  0.0016  0.2470 -0.1109
  797BOLB   NC219117  18.896  23.785  35.678  0.2360 -0.1556  0.0383
  797BOLB   PO219118  18.833  23.803  35.157  0.0499 -0.4454 -0.1445
  797BOLB   GL319119  18.531  23.613  34.962 -0.1298  0.0779 -0.1420
  797BOLB   GL419120  18.297  23.565  35.191 -0.3037 -0.0298 -0.1953
  797BOLB   C1C19121  18.419  23.331  34.621 -0.1280  0.1780 -0.0673
  797BOLB   C2C19122  18.166  23.103  34.677  0.0983  0.0204 -0.1531
  797BOLB   C3C19123  17.860  22.741  34.502 -0.3227 -0.0920  0.4042
  797BOLB   C4C19124  17.761  22.293  34.577 -0.3774 -0.1318 -0.0804
  797BOLB   C1D19125  17.927  23.282  35.192 -0.1482  0.1452 -0.1006
  797BOLB   C2D19126  17.821  22.882  34.988  0.2707  0.3320 -0.1466
  797BOLB   C3D19127  17.764  22.484  35.001  0.1309  0.0660  0.0847
  797BOLB   C4D19128  17.673  22.105  35.142  0.0877  0.0258  0.3317
  798BOLB   NC119129   9.775   8.449  25.849 -0.0630  0.1987  0.0167
  798BOLB   PO119130  10.075   8.167  26.116 -0.2944 -0.0914  0.0219
  798BOLB   GL119131   9.834   7.757  25.939  0.1006  0.0486  0.0650
  798BOLB   GL219132   9.992   7.547  25.760  0.2218 -0.0614 -0.1160
  798BOLB   C1A19133   9.484   7.521  26.000 -0.2050  0.2542  0.0232
  798BOLB   C2A19134   9.129   7.238  25.755  0.0375 -0.1148  0.1026
  798BOLB   C3A19135   9.037   6.837  25.766  0.5814 -0.1614 -0.2840
  798BOLB   C4A19136   8.748   6.506  25.587  0.2109  0.4168  0.0346
  798BOLB   C1B19137   9.612   7.226  25.593 -0.0105  0.2010  0.1343
  798BOLB   C2B19138   9.455   6.802  25.520 -0.3541  0.2418 -0.0302
  798BOLB   C3B19139   9.243   6.388  25.571  0.1492  0.0114 -0.2517
  798BOLB   C4B19140   9.422   6.041  25.476 -0.0461 -0.3419 -0.1531
  798BOLB   NC219141   5.844   6.060  25.023  0.0866  0.0126 -0.1716
  798BOLB   PO219142   6.351   5.968  24.877 -0.1945  0.1007 -0.2362
  798BOLB   GL319143   6.653   6.198  25.018  0.1399 -0.1655 -0.0577
  798BOLB   GL419144   6.617   6.473  25.072  0.0265 -0.0999  0.1377
  798BOLB   C1C19145   7.046   6.327  25.138  0.0628  0.1540 -0.0369
  798BOLB   C2C19146   7.392   6.406  25.293  0.2225  0.1078 -0.1030
  798BOLB   C3C19147   7.838   6.429  25.556 -0.0648 -0.2460  0.0902
  798BOLB   C4C19148   8.287   6.647  25.494 -0.2229  0.2126  0.0410
  798BOLB   C1D19149   6.758   6.810  25.221 -0.0006 -0.1074 -0.1712
  798BOLB   C2D19150   7.016   7.190  25.351  0.1168 -0.2035  0.0438
  798BOLB   C3D19151   7.385   7.374  25.367  0.1584 -0.0626  0.0354
  798BOLB   C4D19152   7.829   7.400  25.556  0.0541 -0.2451  0.0140
  799BOLB   NC119153  21.730  15.658  34.689 -0.0903 -0.0084  0.0489
  799BOLB   PO119154  22.028  16.041  34.783  0.4116 -0.0219  0.1932
  799BOLB   GL119155  22.316  16.413  34.850  0.0273 -0.1091  0.4001
  799BOLB   GL219156  22.591  16.413  34.662 -0.1125  0.0496  0.2514
  799BOLB   C1A19157  22.535  16.665  35.203 -0.0546 -0.1289  0.3097
  799BOLB   C2A19158  22.865  16.925  35.238  0.1680 -0.0314 -0.1181
  799BOLB   C3A19159  23.131  17.216  35.226  0.2161 -0.1328 -0.0628
  799BOLB   C4A19160  23.102  17.707  35.369 -0.2770 -0.0040  0.1578
  799BOLB   C1B19161  22.989  16.666  34.866 -0.0203 -0.1724  0.1226
  799BOLB   C2B19162  23.370  16.567  35.024  0.1180  0.2794  0.0150
  799BOLB   C3B19163  23.674  16.876  35.333 -0.3907  0.2404  0.1337
  799BOLB   C4B19164  23.521  17.194  35.494 -0.3118  0.5207  0.2448
  799BOLB   NC219165  24.211  19.319  37.087  0.2241  0.3083 -0.1837
  799BOLB   PO219166  24.002  19.304  36.740 -0.1297 -0.1140  0.0314
  799BOLB   GL319167  24.037  18.976  36.455 -0.1804 -0.1019 -0.2184
  799BOLB   GL419168  23.820  18.671  36.519 -0.0650  0.4633 -0.0019
  799BOLB   C1C19169  24.016  18.943  36.052 -0.3293 -0.1158  0.2641
  799BOLB   C2C19170  23.768  18.749  35.751  0.2155 -0.0702 -0.1248
  799BOLB   C3C19171  23.595  18.371  35.541  0.0792  0.2818  0.1964
  799BOLB   C4C19172  23.307  18.113  35.397  0.3122  0.4025  0.1972
  799BOLB   C1D19173  23.451  18.622  36.258  0.0640 -0.1013 -0.0773
  799BOLB   C2D19174  23.270  18.627  35.805 -0.1329 -0.1722  0.0805
  799BOLB   C3D19175  23.196  18.668  35.351  0.0244 -0.2067 -0.6112
  799BOLB   C4D19176  23.010  18.443  35.026  0.1393 -0.1453  0.1730
  800BOLB   NC119177  24.184  16.125  22.189  0.2575 -0.1832  0.0846
  800BOLB   PO119178  24.440  15.862  22.494  0.4567 -0.3350 -0.3107
  800BOLB   GL119179  24.180  15.569  22.279  0.0333  0.0055  0.0854
  800BOLB   GL219180  23.898  15.732  22.157 -0.4290  0.0927  0.2555
  800BOLB   C1A19181  24.084  15.224  22.012 -0.1372  0.1207  0.0702
  800BOLB   C2A19182  23.760  14.847  21.899 -0.2721  0.1511  0.3761
  800BOLB   C3A19183  23.522  14.892  21.483  0.3590 -0.2864 -0.1405
  800BOLB   C4A19184  23.538  14.609  21.070 -0.0747  0.2864  0.2325
  800BOLB   C1B19185  23.479  15.459  22.129  0.0936  0.0826  0.1737
  800BOLB   C2B19186  23.357  15.023  22.157  0.1868 -0.0128 -0.3024
  800BOLB   C3B19187  23.021  14.786  21.904  0.1692  0.1956  0.1141
  800BOLB   C4B19188  22.547  14.813  22.027  0.1489  0.2795  0.1531
  800BOLB   NC219189  25.976  15.165  20.431  0.2705  0.1498  0.1145
  800BOLB   PO219190  25.710  14.768  20.257  0.1948 -0.3340  0.2923
  800BOLB   GL319191  25.279  14.762  20.279  0.5783  0.2789 -0.1125
  800BOLB   GL419192  25.149  14.430  20.347 -0.2997 -0.0249  0.4321
  800BOLB   C1C19193  24.773  14.944  20.401 -0.1032  0.2004  0.3192
  800BOLB   C2C19194  24.372  14.767  20.453  0.0783 -0.0766  0.0618
  800BOLB   C3C19195  23.912  14.585  20.409  0.0955  0.1726  0.4275
  800BOLB   C4C19196  23.608  14.431  20.681  0.0593 -0.0293 -0.0711
  800BOLB   C1D19197  24.785  14.466  20.632  0.1375 -0.0804  0.1614
  800BOLB   C2D19198  24.605  14.693  20.833 -0.2002 -0.2055  0.0685
  800BOLB   C3D19199  24.361  15.064  20.921 -0.0508  0.1915 -0.0462
  800BOLB   C4D19200  23.949  14.997  21.100  0.0462 -0.1271  0.2692
  801BOLB   NC119201  26.251  12.215  22.148 -0.2392 -0.0648  0.0035
  801BOLB   PO119202  26.460  12.183  22.607 -0.2703 -0.0813 -0.0385
  801BOLB   GL119203  26.113  11.927  22.781 -0.4352  0.0745 -0.1488
  801BOLB   GL219204  25.893  12.173  22.996 -0.1147  0.0683  0.1012
  801BOLB   C1A19205  25.797  11.607  22.990  0.0648 -0.4208  0.1245
  801BOLB   C2A19206  25.575  11.190  23.173 -0.1868 -0.1584 -0.0438
  801BOLB   C3A19207  25.469  10.889  23.449  0.0741 -0.1393  0.1174
  801BOLB   C4A19208  25.323  10.515  23.433 -0.0369 -0.2414  0.1265
  801BOLB   C1B19209  25.663  12.171  23.231  0.0756  0.1255  0.4142
  801BOLB   C2B19210  25.394  12.277  23.543  0.2671 -0.0470 -0.3305
  801BOLB   C3B19211  25.082  12.081  23.805 -0.0239  0.2564 -0.0558
  801BOLB   C4B19212  24.911  11.903  24.207 -0.1859  0.1197  0.0922
  801BOLB   NC219213  26.528  10.276  21.610 -0.0617 -0.0621  0.1697
  801BOLB   PO219214  26.399   9.992  21.967  0.0832 -0.2871 -0.2133
  801BOLB   GL319215  26.004   9.994  22.048  0.2830  0.1369 -0.3139
  801BOLB   GL419216  26.007   9.750  21.773 -0.3368  0.2211  0.2286
  801BOLB   C1C19217  25.590   9.973  21.913 -0.1305  0.6411 -0.1330
  801BOLB   C2C19218  25.274  10.195  22.100 -0.1531  0.2126  0.0834
  801BOLB   C3C19219  25.391  10.220  22.650 -0.2074 -0.0950 -0.2205
  801BOLB   C4C19220  25.162  10.471  22.956  0.0160 -0.0551  0.1850
  801BOLB   C1D19221  25.773   9.526  22.093 -0.0341 -0.0556  0.1770
  801BOLB   C2D19222  25.356   9.406  22.096 -0.2025  0.0617 -0.0699
  801BOLB   C3D19223  24.933   9.524  22.144  0.2507  0.0447  0.2307
  801BOLB   C4D19224  24.566   9.600  22.092  0.1096  0.0725  0.3828
  802BOLB   NC119225  24.103   6.084  20.492 -0.3242  0.3267  0.0835
  802BOLB   PO119226  23.923   5.672  20.404 -0.3611 -0.0993  0.0465
  802BOLB   GL119227  23.653   5.943  20.645  0.2732 -0.2545  0.0408
  802BOLB   GL219228  23.418   5.926  20.471 -0.0220 -0.2169 -0.5229
  802BOLB   C1A19229  23.585   6.257  20.916  0.3075 -0.1930  0.2620
  802BOLB   C2A19230  23.734   6.701  20.911 -0.0510 -0.2307 -0.0275
  802BOLB   C3A19231  23.483   7.027  21.073  0.1986  0.3236 -0.0588
  802BOLB   C4A19232  23.755   7.258  21.375 -0.1778  0.0130  0.4764
  802BOLB   C1B19233  23.138   6.249  20.637 -0.0798  0.0201 -0.2417
  802BOLB   C2B19234  22.650   6.427  20.713  0.1996 -0.2405 -0.3775
  802BOLB   C3B19235  22.525   6.532  21.106 -0.0775  0.0417  0.2928
  802BOLB   C4B19236  22.806   6.697  21.531  0.4711 -0.3268 -0.0312
  802BOLB   NC219237  25.632   8.097  20.836  0.2535 -0.2414  0.1799
  802BOLB   PO219238  25.655   7.574  20.885  0.2067  0.4679  0.5111
  802BOLB   GL319239  25.429   7.713  21.206 -0.1121 -0.1145 -0.0413
  802BOLB   GL419240  25.529   7.791  21.486  0.1943 -0.0301  0.2046
  802BOLB   C1C19241  25.060   7.666  21.438 -0.0777  0.0660 -0.1900
  802BOLB   C2C19242  24.755   7.738  21.766 -0.1234  0.6185  0.1645
  802BOLB   C3C19243  24.342   7.645  21.769 -0.2531 -0.1586  0.0832
  802BOLB   C4C19244  24.158   7.293  21.630 -0.1231  0.0940 -0.2248
  802BOLB   C1D19245  25.155   8.139  21.360 -0.1187 -0.1797  0.1151
  802BOLB   C2D19246  24.696   8.107  21.455  0.0382  0.0366  0.2241
  802BOLB   C3D19247  24.325   8.077  21.496 -0.0107 -0.0366  0.0566
  802BOLB   C4D19248  23.944   8.054  21.640  0.1742 -0.3173  0.1658
  803BOLB   NC119249   7.915   9.474  29.196 -0.4720  0.2943  0.2475
  803BOLB   PO119250   7.973   9.292  28.828  0.1490 -0.2334  0.3687
  803BOLB   GL119251   7.669   8.945  28.701 -0.2450 -0.2071  0.0110
  803BOLB   GL219252   7.728   8.691  28.468  0.1997  0.0845 -0.2022
  803BOLB   C1A19253   7.235   8.986  28.454 -0.2489  0.1977  0.0980
  803BOLB   C2A19254   6.959   9.014  28.123  0.2337  0.0688 -0.0535
  803BOLB   C3A19255   6.589   9.075  27.774 -0.0769  0.2267  0.1821
  803BOLB   C4A19256   6.506   8.882  27.379  0.1077 -0.1953  0.0592
  803BOLB   C1B19257   7.359   8.539  28.687 -0.4966  0.0625 -0.1960
  803BOLB   C2B19258   7.078   8.634  28.875 -0.3143  0.1444 -0.1668
  803BOLB   C3B19259   6.629   8.616  29.063 -0.2284  0.3428 -0.2035
  803BOLB   C4B19260   6.242   8.322  29.198  0.2753 -0.3022 -0.0300
  803BOLB   NC219261   4.807   7.306  26.507  0.2388  0.0283  0.3376
  803BOLB   PO219262   5.277   7.153  26.396 -0.0282  0.1415  0.1271
  803BOLB   GL319263   5.583   7.509  26.439  0.2040 -0.4067 -0.0536
  803BOLB   GL419264   5.659   7.703  26.129  0.0450  0.0066 -0.0499
  803BOLB   C1C19265   5.900   7.782  26.551 -0.0202 -0.0637 -0.0152
  803BOLB   C2C19266   6.120   8.133  26.447  0.0931  0.0607  0.1538
  803BOLB   C3C19267   6.285   8.475  26.670 -0.3128 -0.0629  0.1136
  803BOLB   C4C19268   6.401   8.712  27.023 -0.1094 -0.0169  0.4623
  803BOLB   C1D19269   5.561   8.181  25.919  0.2159 -0.1362 -0.0780
  803BOLB   C2D19270   5.805   8.485  25.811  0.0900 -0.0758 -0.2827
  803BOLB   C3D19271   5.873   8.919  25.935 -0.4028 -0.0944 -0.0145
  803BOLB   C4D19272   6.141   9.330  25.944 -0.3005  0.1703 -0.0263
  804BOLB   NC119273  12.108   6.929  35.505  0.1100  0.0616  0.3089
  804BOLB   PO119274  11.821   7.204  35.806  0.1201 -0.0351 -0.2074
  804BOLB   GL119275  11.444   6.896  36.031 -0.1500 -0.2346 -0.1173
  804BOLB   GL219276  11.601   6.519  36.265 -0.0144 -0.0940  0.3411
  804BOLB   C1A19277  11.159   6.558  36.074 -0.0095  0.0373 -0.2436
  804BOLB   C2A19278  10.961   6.309  36.364  0.1725 -0.0182  0.0153
  804BOLB   C3A19279  10.797   6.058  36.676  0.0507  0.4978 -0.2210
  804BOLB   C4A19280  11.089   5.672  36.852  0.0397  0.1172 -0.0242
  804BOLB   C1B19281  11.371   6.319  36.656  0.2000 -0.0126  0.0212
  804BOLB   C2B19282  11.097   6.150  37.017  0.0635 -0.2745  0.1807
  804BOLB   C3B19283  10.693   6.416  37.109 -0.0632  0.0155  0.0773
  804BOLB   C4B19284  10.261   6.400  37.187  0.1709 -0.1088 -0.0493
  804BOLB   NC219285   9.192   3.889  38.017  0.2091 -0.2611  0.0198
  804BOLB   PO219286   9.600   3.960  38.072 -0.1232  0.0116 -0.2452
  804BOLB   GL319287   9.898   4.046  37.669  0.0851  0.2655  0.2891
  804BOLB   GL419288   9.760   4.214  37.480 -0.0619 -0.2152  0.1350
  804BOLB   C1C19289  10.233   4.420  37.607 -0.2226 -0.0540 -0.0818
  804BOLB   C2C19290  10.445   4.806  37.478 -0.2089 -0.0807  0.0291
  804BOLB   C3C19291  10.730   4.990  37.276  0.3095 -0.4040  0.2581
  804BOLB   C4C19292  11.024   5.276  37.033  0.0713  0.3026 -0.2689
  804BOLB   C1D19293   9.982   4.398  37.160 -0.1824 -0.1170  0.1222
  804BOLB   C2D19294  10.338   4.428  36.993 -0.1225 -0.0748 -0.1523
  804BOLB   C3D19295  10.398   4.450  36.568  0.1555  0.1382  0.1464
  804BOLB   C4D19296  10.587   4.330  36.292 -0.0678 -0.1685  0.0389
  805BOLB   NC119297  12.420  17.230  36.499 -0.4325  0.0093  0.3535
  805BOLB   PO119298  12.439  17.615  36.747  0.1261 -0.4022 -0.2312
  805BOLB   GL119299  12.147  17.707  36.912  0.0226  0.0536  0.0591
  805BOLB   GL219300  12.017  18.077  36.839  0.0744  0.2388 -0.0402
  805BOLB   C1A19301  11.843  17.709  37.235 -0.0390 -0.0210  0.3004
  805BOLB   C2A19302  11.443  17.994  37.334 -0.1071 -0.5212 -0.3424
  805BOLB   C3A19303  11.145  18.237  37.662 -0.2005  0.1243  0.2785
  805BOLB   C4A19304  10.985  18.459  37.987  0.1603  0.3259  0.0274
  805BOLB   C1B19305  11.920  18.232  37.235  0.0890 -0.0083 -0.0636
  805BOLB   C2B19306  11.774  18.418  37.628  0.1828  0.0748  0.1802
  805BOLB   C3B19307  11.599  18.684  37.926  0.3150 -0.0133  0.2788
  805BOLB   C4B19308  11.511  19.123  37.827  0.1409 -0.2711 -0.0112
  805BOLB   NC219309  10.315  18.949  40.399 -0.0007  0.4356  0.0042
  805BOLB   PO219310  10.316  19.199  40.174 -0.0940 -0.0730 -0.2337
  805BOLB   GL319311  10.540  19.103  39.844  0.0136  0.0387 -0.0287
  805BOLB   GL419312  10.389  18.739  39.753 -0.1500  0.1542 -0.1130
  805BOLB   C1C19313  10.919  19.121  39.487  0.1938  0.0553 -0.2151
  805BOLB   C2C19314  11.117  18.843  39.155  0.1477 -0.0488 -0.2663
  805BOLB   C3C19315  11.146  18.573  38.800 -0.0183  0.2011  0.0352
  805BOLB   C4C19316  11.089  18.474  38.425  0.1416  0.1788 -0.0242
  805BOLB   C1D19317  10.395  18.916  39.318  0.2576 -0.2960  0.2512
  805BOLB   C2D19318  10.321  18.965  38.946  0.2114  0.4067 -0.1474
  805BOLB   C3D19319  10.555  19.120  38.605  0.0278  0.4081  0.3113
  805BOLB   C4D19320  10.930  19.284  38.384 -0.3127 -0.0026 -0.1493
  806BOLB   NC119321  13.371  18.098  36.657  0.0464  0.1954  0.1367
  806BOLB   PO119322  13.430  18.048  37.178 -0.1606  0.1738  0.0068
  806BOLB   GL119323  13.293  18.498  37.504  0.2212 -0.1218  0.0593
  806BOLB   GL219324  13.086  18.862  37.392 -0.2056  0.3164 -0.1933
  806BOLB   C1A19325  13.306  18.686  37.863  0.0373 -0.2415 -0.1994
  806BOLB   C2A19326  13.216  19.077  38.119  0.1815  0.2322 -0.1709
  806BOLB   C3A19327  13.062  19.405  38.441  0.1470  0.0689  0.4098
  806BOLB   C4A19328  13.139  19.859  38.278 -0.0861  0.1699  0.2386
  806BOLB   C1B19329  13.037  19.268  37.337  0.1117 -0.0884  0.0747
  806BOLB   C2B19330  13.266  19.642  37.524 -0.1268  0.0568  0.1058
  806BOLB   C3B19331  13.394  19.981  37.675  0.2468 -0.1657  0.2469
  806BOLB   C4B19332  13.051  20.296  37.662 -0.2200  0.0980  0.2946
  806BOLB   NC219333  12.673  21.735  39.471 -0.0251 -0.0594  0.1614
  806BOLB   PO219334  12.935  21.899  39.136 -0.3095 -0.4159 -0.0636
  806BOLB   GL319335  12.987  21.660  38.688  0.2081 -0.0262 -0.0428
  806BOLB   GL419336  13.118  21.773  38.554  0.0554 -0.2679 -0.0344
  806BOLB   C1C19337  12.816  21.340  38.463 -0.1196 -0.1683  0.1930
  806BOLB   C2C19338  12.751  21.026  38.201 -0.0205 -0.0091 -0.2195
  806BOLB   C3C19339  12.848  20.626  38.055  0.3933 -0.3124 -0.0340
  806BOLB   C4C19340  12.929  20.241  38.142  0.0595  0.3235 -0.0148
  806BOLB   C1D19341  13.417  21.693  38.237 -0.1167  0.2211  0.1576
  806BOLB   C2D19342  13.527  21.410  37.908 -0.0795  0.0788 -0.0052
  806BOLB   C3D19343  13.481  20.963  37.707  0.2696  0.1542  0.1314
  806BOLB   C4D19344  13.340  20.617  37.833 -0.0104  0.0511  0.1710
  807BOLB   NC119345  16.351   8.116  20.774  0.1296 -0.1873 -0.1432
  807BOLB   PO119346  16.105   8.519  20.733 -0.0349  0.2145  0.1452
  807BOLB   GL119347  15.843   8.321  20.436 -0.3454 -0.0225 -0.0493
  807BOLB   GL219348  15.614   8.501  20.365 -0.1690  0.0394  0.0968
  807BOLB   C1A19349  15.626   8.020  20.168 -0.1715 -0.1354  0.0721
  807BOLB   C2A19350  15.469   8.049  19.729 -0.0794  0.0651  0.3038
  807BOLB   C3A19351  15.293   7.810  19.465 -0.3667  0.0700 -0.0399
  807BOLB   C4A19352  15.369   7.506  19.071  0.1384  0.0001 -0.1612
  807BOLB   C1B19353  15.317   8.448  20.067 -0.0859  0.0381  0.3457
  807BOLB   C2B19354  15.055   8.309  19.629 -0.1358  0.1775 -0.0136
  807BOLB   C3B19355  14.669   8.557  19.442 -0.0564 -0.1730 -0.0423
  807BOLB   C4B19356  14.248   8.474  19.318 -0.1442  0.1028 -0.1909
  807BOLB   NC219357  14.375   6.813  17.737 -0.0354  0.2137  0.1206
  807BOLB   PO219358  14.516   6.376  17.507  0.0527 -0.1553 -0.4391
  807BOLB   GL319359  14.656   6.201  17.923  0.0239  0.0884 -0.1290
  807BOLB   GL419360  14.504   6.459  18.041 -0.0924  0.0772  0.0247
  807BOLB   C1C19361  14.968   6.404  18.222 -0.2370 -0.0068  0.0178
  807BOLB   C2C19362  15.235   6.724  18.369  0.0754  0.0403 -0.0329
  807BOLB   C3C19363  15.577   7.009  18.567 -0.2961 -0.1312 -0.2075
  807BOLB   C4C19364  15.386   7.328  18.684 -0.1690  0.2228  0.0547
  807BOLB   C1D19365  14.645   6.913  18.303 -0.2583 -0.2384  0.2220
  807BOLB   C2D19366  14.963   7.151  18.516 -0.3442  0.3117 -0.2471
  807BOLB   C3D19367  14.959   7.538  18.772 -0.0187  0.0951 -0.2073
  807BOLB   C4D19368  14.980   7.871  19.012  0.0105  0.1356 -0.0239
  808BOLB   NC119369  18.990  19.060  28.950  0.2370 -0.1689  0.0436
  808BOLB   PO119370  19.233  18.835  28.694 -0.1931 -0.1268  0.0548
  808BOLB   GL119371  19.469  19.233  28.793  0.3559  0.2374 -0.0769
  808BOLB   GL219372  19.384  19.584  28.734 -0.0798 -0.0309 -0.1911
  808BOLB   C1A19373  19.876  19.193  28.628  0.0010 -0.0230  0.0714
  808BOLB   C2A19374  20.317  19.324  28.718  0.0443 -0.1658 -0.0264
  808BOLB   C3A19375  20.701  19.555  28.746 -0.3299  0.1090 -0.0939
  808BOLB   C4A19376  21.101  19.707  28.751 -0.0931  0.2066  0.1496
  808BOLB   C1B19377  19.789  19.685  28.723 -0.0025 -0.0442 -0.1534
  808BOLB   C2B19378  20.135  19.737  28.666 -0.1733  0.3613  0.0552
  808BOLB   C3B19379  20.410  19.967  28.830 -0.4906 -0.0488  0.1112
  808BOLB   C4B19380  20.720  20.072  28.739  0.1054 -0.1010 -0.1876
  808BOLB   NC219381  23.320  20.689  28.634 -0.0558 -0.1177  0.1959
  808BOLB   PO219382  23.112  20.598  29.059  0.0453  0.3287 -0.0235
  808BOLB   GL319383  22.823  20.468  28.854 -0.3472  0.1955  0.1925
  808BOLB   GL419384  22.532  20.467  29.058 -0.1304  0.6509  0.0681
  808BOLB   C1C19385  22.529  20.062  28.754 -0.1247 -0.0805 -0.3889
  808BOLB   C2C19386  22.103  19.900  28.829 -0.1605 -0.3109 -0.0135
  808BOLB   C3C19387  21.867  19.580  28.833 -0.1415 -0.2436  0.1891
  808BOLB   C4C19388  21.534  19.779  28.783 -0.0952  0.1508  0.2072
  808BOLB   C1D19389  22.217  20.238  29.166 -0.1205  0.0950 -0.0053
  808BOLB   C2D19390  21.976  19.998  29.263 -0.3918 -0.2348  0.0557
  808BOLB   C3D19391  21.559  19.906  29.240  0.1244 -0.2192 -0.0670
  808BOLB   C4D19392  21.425  19.509  29.168 -0.1954 -0.3050  0.3711
  809BOLB   NC119393  15.015  12.761  39.273 -0.2677 -0.1153 -0.0848
  809BOLB   PO119394  15.230  13.002  39.620 -0.2600  0.2422  0.0744
  809BOLB   GL119395  15.190  13.178  40.023 -0.2717  0.0138  0.4403
  809BOLB   GL219396  14.967  13.109  40.195 -0.3871 -0.1365  0.3211
  809BOLB   C1A19397  15.412  13.158  40.427 -0.0047 -0.0703 -0.2100
  809BOLB   C2A19398  15.395  13.081  40.879  0.3230 -0.2342 -0.0743
  809BOLB   C3A19399  15.234  13.109  41.439 -0.0160  0.2568 -0.0446
  809BOLB   C4A19400  15.005  13.242  41.727 -0.2898 -0.1430  0.0134
  809BOLB   C1B19401  14.913  13.009  40.618  0.0195  0.1395 -0.0651
  809BOLB   C2B19402  15.128  12.678  40.901  0.1489  0.2129 -0.2240
  809BOLB   C3B19403  15.175  12.624  41.289  0.2842  0.1762  0.3337
  809BOLB   C4B19404  15.034  12.733  41.655  0.0568 -0.0761 -0.5067
  809BOLB   NC219405  15.605  12.452  44.013 -0.1048 -0.0756 -0.3369
  809BOLB   PO219406  15.649  12.832  44.177  0.1038  0.1129  0.0700
  809BOLB   GL319407  15.637  12.938  43.764 -0.1912  0.2098  0.1393
  809BOLB   GL419408  15.826  13.009  43.432  0.0259  0.1346 -0.2259
  809BOLB   C1C19409  15.338  13.071  43.395 -0.0864  0.2067 -0.0522
  809BOLB   C2C19410  15.239  13.239  42.941 -0.1808  0.4425  0.1781
  809BOLB   C3C19411  15.304  13.429  42.503  0.2386  0.0088  0.0009
  809BOLB   C4C19412  14.997  13.315  42.140  0.0967 -0.0033 -0.1304
  809BOLB   C1D19413  16.031  13.086  43.071 -0.0043  0.3228 -0.0463
  809BOLB   C2D19414  16.070  12.978  42.669  0.1267 -0.1448  0.2082
  809BOLB   C3D19415  15.979  12.608  42.434 -0.0690 -0.0308  0.3082
  809BOLB   C4D19416  15.700  12.427  42.163  0.2101  0.0135  0.2223
  810BOLB   NC119417  13.355  20.624  32.828 -0.1059 -0.0404  0.0258
  810BOLB   PO119418  13.335  20.742  32.345 -0.0134 -0.1519 -0.2422
  810BOLB   GL119419  13.471  21.212  32.603  0.1512  0.0540  0.1811
  810BOLB   GL219420  13.556  21.136  32.903 -0.3472  0.3078 -0.0074
  810BOLB   C1A19421  13.660  21.652  32.573 -0.0021  0.1105  0.1800
  810BOLB   C2A19422  13.780  22.032  32.913 -0.2042  0.0241  0.2683
  810BOLB   C3A19423  13.942  22.343  33.191 -0.0948 -0.3154  0.1366
  810BOLB   C4A19424  14.108  22.716  33.050 -0.0213  0.0425  0.1722
  810BOLB   C1B19425  13.623  21.569  33.100  0.0084 -0.1350  0.0595
  810BOLB   C2B19426  13.660  21.934  33.396 -0.0412  0.2859 -0.0531
  810BOLB   C3B19427  13.589  22.371  33.503 -0.0376  0.0969 -0.0196
  810BOLB   C4B19428  13.345  22.664  33.621 -0.1087  0.0928  0.0579
  810BOLB   NC219429  13.493  25.193  33.412  0.0618 -0.1125 -0.2495
  810BOLB   PO219430  13.760  25.037  33.820  0.0960  0.3519 -0.1689
  810BOLB   GL319431  13.725  24.601  33.900 -0.2334  0.1023  0.0486
  810BOLB   GL419432  13.503  24.372  33.780  0.1030 -0.0422 -0.2024
  810BOLB   C1C19433  13.953  24.243  33.627  0.2120  0.0678 -0.1302
  810BOLB   C2C19434  13.812  23.862  33.760  0.0651 -0.0095  0.0662
  810BOLB   C3C19435  13.882  23.517  33.605  0.1137 -0.0037  0.3822
  810BOLB   C4C19436  13.949  23.160  33.226 -0.1297  0.5111 -0.0577
  810BOLB   C1D19437  13.340  23.935  33.679  0.0583 -0.1681 -0.0034
  810BOLB   C2D19438  12.963  23.704  33.530  0.0805 -0.2942  0.2527
  810BOLB   C3D19439  12.535  23.729  33.579  0.0761  0.1891  0.2688
  810BOLB   C4D19440  12.435  23.319  33.749 -0.0784  0.0713 -0.0503
  811BOLB   NC119441  11.003  16.799  36.987  0.0117 -0.3016 -0.3692
  811BOLB   PO119442  11.434  16.766  37.098  0.1793 -0.0988 -0.2594
  811BOLB   GL119443  11.518  16.998  37.524 -0.2472  0.0146  0.4368
  811BOLB   GL219444  11.373  16.926  37.859 -0.1494  0.0308 -0.0828
  811BOLB   C1A19445  11.344  17.397  37.495 -0.0128  0.1537 -0.2256
  811BOLB   C2A19446  11.208  17.741  37.686 -0.1830  0.3729  0.1910
  811BOLB   C3A19447  11.008  17.940  38.060  0.1059 -0.0840  0.1628
  811BOLB   C4A19448  10.854  18.001  38.444 -0.2908 -0.0329  0.2464
  811BOLB   C1B19449  11.427  17.334  38.133  0.0783 -0.2449  0.2212
  811BOLB   C2B19450  11.189  17.533  38.411 -0.0377 -0.0162 -0.0102
  811BOLB   C3B19451  10.839  17.590  38.717  0.0238 -0.4221  0.3281
  811BOLB   C4B19452  10.611  17.380  38.910  0.0366  0.0205 -0.0753
  811BOLB   NC219453   9.643  17.667  40.909  0.3876 -0.1344  0.2118
  811BOLB   PO219454   9.793  17.973  40.636 -0.1018  0.3568 -0.0497
  811BOLB   GL319455   9.968  17.574  40.403 -0.0381 -0.0023 -0.5373
  811BOLB   GL419456  10.083  17.430  40.773 -0.0171 -0.1180  0.1513
  811BOLB   C1C19457  10.384  17.619  40.142  0.2517 -0.0337  0.3862
  811BOLB   C2C19458  10.383  17.754  39.646  0.0738  0.2399 -0.0329
  811BOLB   C3C19459  10.501  17.857  39.232 -0.3168 -0.2086 -0.0716
  811BOLB   C4C19460  10.670  18.076  38.862  0.1137 -0.0823 -0.2327
  811BOLB   C1D19461  10.436  17.384  40.597  0.1455  0.3622  0.0510
  811BOLB   C2D19462  10.761  17.217  40.480  0.3695  0.0880  0.1717
  811BOLB   C3D19463  10.861  16.878  40.256  0.1721  0.4018 -0.1820
  811BOLB   C4D19464  11.102  16.439  40.351  0.0512 -0.0282 -0.0567
  812BOLB   NC119465  15.532  21.091  28.833 -0.2286 -0.3665  0.1538
  812BOLB   PO119466  15.914  21.014  28.723 -0.4909 -0.0589 -0.0889
  812BOLB   GL119467  16.011  21.442  28.741 -0.0121  0.2189  0.0617
  812BOLB   GL219468  15.738  21.566  28.761  0.2215 -0.2431 -0.3480
  812BOLB   C1A19469  16.169  21.861  28.818  0.2269  0.0889  0.0730
  812BOLB   C2A19470  16.360  22.222  29.057 -0.0454  0.0211 -0.2353
  812BOLB   C3A19471  16.704  22.622  29.027 -0.4616 -0.0972  0.4509
  812BOLB   C4A19472  16.963  22.950  29.074 -0.1832 -0.0651 -0.1272
  812BOLB   C1B19473  15.736  22.047  28.841  0.2486 -0.0926 -0.0186
  812BOLB   C2B19474  15.949  22.450  28.980  0.0319 -0.1917  0.0922
  812BOLB   C3B19475  16.181  22.700  29.159 -0.0187  0.2008  0.0616
  812BOLB   C4B19476  16.438  23.049  29.064  0.2451 -0.2282  0.0913
  812BOLB   NC219477  18.354  24.494  28.778  0.0036 -0.2067 -0.2095
  812BOLB   PO219478  17.966  24.428  28.491 -0.1127 -0.0975  0.0415
  812BOLB   GL319479  17.821  24.058  28.612 -0.0177  0.2519  0.1029
  812BOLB   GL419480  17.488  23.967  28.519  0.2901 -0.3179  0.1855
  812BOLB   C1C19481  18.089  23.762  28.816  0.1665  0.0466  0.0496
  812BOLB   C2C19482  18.004  23.423  29.059  0.1513 -0.0822  0.0688
  812BOLB   C3C19483  17.761  23.132  29.123 -0.0672  0.0349  0.0022
  812BOLB   C4C19484  17.489  22.964  29.197  0.0416 -0.0997  0.0295
  812BOLB   C1D19485  17.608  23.600  28.742  0.1825 -0.1797  0.0002
  812BOLB   C2D19486  17.305  23.449  29.064  0.3465 -0.2064 -0.0652
  812BOLB   C3D19487  16.859  23.481  29.088  0.1555  0.3062 -0.3100
  812BOLB   C4D19488  16.714  23.818  29.014 -0.2125 -0.4331 -0.0529
  813BOLB   NC119489  14.435  20.729  23.559  0.3898 -0.2163  0.1406
  813BOLB   PO119490  14.511  20.749  23.998  0.0272 -0.1314 -0.0965
  813BOLB   GL119491  14.757  21.054  23.822 -0.4392 -0.4068 -0.1744
  813BOLB   GL219492  14.524  21.196  23.668  0.1809  0.1699  0.2205
  813BOLB   C1A19493  15.079  21.142  24.056 -0.1599  0.1843  0.0971
  813BOLB   C2A19494  15.127  21.612  24.111  0.4525  0.0046  0.0715
  813BOLB   C3A19495  15.401  21.893  24.260 -0.1203 -0.1567 -0.1034
  813BOLB   C4A19496  15.766  22.159  24.203 -0.2009  0.1212 -0.1360
  813BOLB   C1B19497  14.744  21.398  23.356 -0.2481  0.2240  0.0599
  813BOLB   C2B19498  15.046  21.506  23.133 -0.0088  0.0887  0.0813
  813BOLB   C3B19499  15.419  21.416  23.144  0.2980 -0.1790  0.1134
  813BOLB   C4B19500  15.734  21.329  22.876  0.0913 -0.1889 -0.4619
  813BOLB   NC219501  16.799  24.124  23.831 -0.0572  0.0990 -0.0202
  813BOLB   PO219502  16.710  24.485  24.113 -0.0934  0.0992 -0.0285
  813BOLB   GL319503  16.297  24.238  24.134 -0.1642  0.1883  0.1982
  813BOLB   GL419504  16.450  24.037  24.317 -0.1478  0.1240  0.3973
  813BOLB   C1C19505  15.975  23.949  24.069  0.1406 -0.1495 -0.0638
  813BOLB   C2C19506  15.900  23.441  24.127 -0.0498 -0.3746 -0.1107
  813BOLB   C3C19507  15.887  23.047  24.233 -0.1791  0.2947  0.0705
  813BOLB   C4C19508  15.827  22.640  24.201 -0.0147  0.0780  0.0553
  813BOLB   C1D19509  16.387  23.635  24.142 -0.0413 -0.0878  0.0496
  813BOLB   C2D19510  16.378  23.092  24.063  0.1899 -0.1071 -0.1292
  813BOLB   C3D19511  16.313  22.798  24.407  0.1170  0.4319 -0.3498
  813BOLB   C4D19512  16.509  22.475  24.513 -0.1189 -0.1183 -0.1065
  814BOLB   NC119513  25.730   4.786  31.244 -0.3656  0.3065 -0.1910
  814BOLB   PO119514  25.472   4.524  30.856  0.2754  0.0741  0.0934
  814BOLB   GL119515  25.019   4.711  30.588  0.0746  0.0149 -0.1942
  814BOLB   GL219516  24.777   4.324  30.395 -0.0936  0.2203  0.0261
  814BOLB   C1A19517  24.652   4.894  30.506 -0.2582  0.1702  0.1254
  814BOLB   C2A19518  24.211   4.993  30.592  0.1332  0.1341 -0.0174
  814BOLB   C3A19519  23.831   5.228  30.760  0.0686  0.0014  0.0281
  814BOLB   C4A19520  23.438   5.100  30.870  0.0078 -0.1658  0.2905
  814BOLB   C1B19521  24.346   4.375  30.437 -0.3402 -0.0677 -0.0209
  814BOLB   C2B19522  23.996   4.534  30.628 -0.1085 -0.0034  0.1427
  814BOLB   C3B19523  23.655   4.751  30.543  0.0587  0.3522  0.3304
  814BOLB   C4B19524  23.601   5.069  30.178  0.2568  0.0315  0.0616
  814BOLB   NC219525  24.844   3.139  31.494  0.0706  0.1349  0.1287
  814BOLB   PO219526  24.508   3.062  31.138  0.2031 -0.0589  0.0707
  814BOLB   GL319527  24.085   3.207  31.234 -0.1410  0.2658 -0.0699
  814BOLB   GL419528  24.014   2.967  31.344 -0.2114 -0.0020 -0.1786
  814BOLB   C1C19529  23.661   3.411  31.152  0.2532  0.0404 -0.0137
  814BOLB   C2C19530  23.340   3.763  31.232 -0.1301 -0.0037  0.0015
  814BOLB   C3C19531  23.165   4.307  31.079  0.0522  0.0382 -0.1184
  814BOLB   C4C19532  23.254   4.681  30.979 -0.4501  0.0332  0.0675
  814BOLB   C1D19533  23.838   3.425  31.624 -0.1142 -0.0330 -0.2518
  814BOLB   C2D19534  23.637   3.792  31.989 -0.1723 -0.2498 -0.0119
  814BOLB   C3D19535  23.853   4.132  32.145  0.0715 -0.0588  0.0030
  814BOLB   C4D19536  24.015   4.573  32.086 -0.0707  0.3340 -0.0799
  815BOLB   NC119537   7.632  10.839  32.385  0.1345 -0.3135 -0.5697
  815BOLB   PO119538   7.983  10.607  32.191  0.1113  0.4144  0.2222
  815BOLB   GL119539   7.632  10.341  32.180  0.1406  0.2192  0.0207
  815BOLB   GL219540   7.357  10.513  32.138 -0.0732 -0.1227  0.1767
  815BOLB   C1A19541   7.416  10.068  32.317 -0.1809  0.0580 -0.0502
  815BOLB   C2A19542   7.252   9.803  32.574  0.2196  0.0502 -0.1646
  815BOLB   C3A19543   6.867   9.668  32.741  0.5050  0.0406 -0.1614
  815BOLB   C4A19544   6.455   9.575  32.900  0.1080 -0.0210  0.4858
  815BOLB   C1B19545   7.059  10.306  32.147  0.2314 -0.0304  0.2371
  815BOLB   C2B19546   6.847   9.986  32.361 -0.2479  0.0201 -0.0031
  815BOLB   C3B19547   6.532   9.959  32.492 -0.0402 -0.1329 -0.0425
  815BOLB   C4B19548   6.248   9.990  32.710  0.1098  0.1031  0.3984
  815BOLB   NC219549   3.959   9.155  33.089 -0.0014 -0.1591 -0.2752
  815BOLB   PO219550   4.130   8.917  32.678 -0.0999 -0.0427 -0.0690
  815BOLB   GL319551   4.475   9.070  32.994  0.0141 -0.0055 -0.0493
  815BOLB   GL419552   4.595   9.234  32.851  0.0374 -0.1595 -0.0030
  815BOLB   C1C19553   4.874   9.246  33.336 -0.0984  0.1805  0.0478
  815BOLB   C2C19554   5.356   9.273  33.196  0.0208 -0.1369  0.0064
  815BOLB   C3C19555   5.599   9.510  32.986 -0.2859 -0.0660  0.0288
  815BOLB   C4C19556   5.943   9.534  32.785  0.4726 -0.1757  0.1939
  815BOLB   C1D19557   4.885   9.576  32.880  0.0881 -0.0011 -0.3454
  815BOLB   C2D19558   5.215   9.872  32.839  0.0948  0.0509  0.0375
  815BOLB   C3D19559   5.635  10.058  32.801  0.0428 -0.2239  0.1665
  815BOLB   C4D19560   5.893  10.219  32.990  0.0709 -0.0703  0.0853
  816BOLB   NC119561  17.643  18.132  37.025 -0.1466  0.0475  0.0803
  816BOLB   PO119562  17.493  18.379  37.358  0.3513  0.2981  0.0486
  816BOLB   GL119563  17.778  18.631  37.516  0.0159  0.2423 -0.1983
  816BOLB   GL219564  17.900  18.837  37.338  0.0145 -0.2831 -0.0905
  816BOLB   C1A19565  17.676  19.129  37.595 -0.0758 -0.5362  0.0616
  816BOLB   C2A19566  17.645  19.211  37.957 -0.0303 -0.1201 -0.1434
  816BOLB   C3A19567  17.769  19.498  38.442  0.0781  0.0695 -0.1959
  816BOLB   C4A19568  17.510  19.852  38.643 -0.1098 -0.1258 -0.0604
  816BOLB   C1B19569  18.034  18.935  37.842  0.0859  0.0737  0.2857
  816BOLB   C2B19570  18.332  18.911  38.169 -0.2546 -0.0286 -0.0336
  816BOLB   C3B19571  18.636  18.567  38.261  0.0424 -0.1401 -0.2890
  816BOLB   C4B19572  18.957  18.498  38.415 -0.1412  0.0243  0.0231
  816BOLB   NC219573  16.239  21.296  40.453  0.2383  0.0031 -0.2136
  816BOLB   PO219574  16.521  21.386  40.022  0.2668 -0.0089 -0.1592
  816BOLB   GL319575  16.624  20.949  39.856  0.0386 -0.1042  0.0441
  816BOLB   GL419576  16.323  20.835  39.730  0.1596 -0.1387 -0.1496
  816BOLB   C1C19577  16.701  20.494  39.716  0.0468 -0.0252 -0.2154
  816BOLB   C2C19578  16.726  20.029  39.555 -0.0794  0.3975  0.1140
  816BOLB   C3C19579  16.822  19.852  39.199 -0.2379 -0.0220 -0.0057
  816BOLB   C4C19580  17.232  19.765  38.891  0.2063 -0.1773  0.0696
  816BOLB   C1D19581  16.470  20.849  39.337  0.0121 -0.0662  0.2237
  816BOLB   C2D19582  16.439  20.816  38.920  0.0335 -0.2062 -0.1545
  816BOLB   C3D19583  16.367  20.795  38.471 -0.4077 -0.0204 -0.1474
  816BOLB   C4D19584  16.270  20.444  38.223 -0.1814  0.0867  0.0490
  817BOLB   NC119585   9.389  18.576  27.544 -0.0231 -0.1496 -0.1318
  817BOLB   PO119586   9.766  18.866  27.834  0.0735 -0.2634  0.2124
  817BOLB   GL119587   9.667  19.095  27.445 -0.0453 -0.0991 -0.7504
  817BOLB   GL219588   9.771  19.238  27.178  0.2971  0.2900 -0.1119
  817BOLB   C1A19589   9.299  19.190  27.260 -0.2459  0.2742  0.1018
  817BOLB   C2A19590   9.017  19.456  27.022 -0.2477  0.0488 -0.0165
  817BOLB   C3A19591   8.713  19.572  26.751  0.4498  0.3745  0.2982
  817BOLB   C4A19592   8.205  19.504  26.732 -0.1034  0.4162 -0.4069
  817BOLB   C1B19593   9.494  19.586  27.004  0.1509 -0.0764  0.0439
  817BOLB   C2B19594   9.231  19.801  26.751  0.1925  0.2211 -0.0538
  817BOLB   C3B19595   8.912  19.994  26.946 -0.0101 -0.2623  0.0010
  817BOLB   C4B19596   8.608  20.356  27.048  0.1745  0.0892 -0.2287
  817BOLB   NC219597   6.488  20.937  26.166  0.0777 -0.0098 -0.2929
  817BOLB   PO219598   6.454  20.778  25.684 -0.0260 -0.3919 -0.0808
  817BOLB   GL319599   6.759  20.564  25.830  0.0539  0.2302  0.1259
  817BOLB   GL419600   7.100  20.700  25.735  0.0677  0.2782  0.2164
  817BOLB   C1C19601   7.062  20.511  26.184  0.1934 -0.5260 -0.0109
  817BOLB   C2C19602   7.280  20.129  26.531  0.0213  0.2574 -0.2266
  817BOLB   C3C19603   7.421  19.780  26.664 -0.2270  0.1427 -0.1313
  817BOLB   C4C19604   7.853  19.462  26.524  0.0671  0.1820  0.0200
  817BOLB   C1D19605   7.468  20.705  25.789 -0.2710 -0.0113 -0.1892
  817BOLB   C2D19606   7.796  20.376  25.708  0.2034  0.2318 -0.1674
  817BOLB   C3D19607   7.980  20.023  25.591 -0.1477 -0.1029  0.1783
  817BOLB   C4D19608   8.214  19.661  25.849  0.3384 -0.3425 -0.1696
  818BOLB   NC119609  21.154  11.423  37.306 -0.1786 -0.3061  0.1193
  818BOLB   PO119610  21.496  11.597  37.227  0.0208 -0.2250  0.1659
  818BOLB   GL119611  21.945  11.537  37.579  0.0903  0.0090  0.1230
  818BOLB   GL219612  22.231  11.838  37.562 -0.3083 -0.0215  0.0533
  818BOLB   C1A19613  22.183  11.409  37.851  0.1956 -0.2055  0.0513
  818BOLB   C2A19614  22.333  11.382  38.285  0.2307 -0.0492 -0.2634
  818BOLB   C3A19615  22.525  11.671  38.600  0.1703  0.2635 -0.2802
  818BOLB   C4A19616  22.500  11.818  39.025 -0.1190  0.0987 -0.1835
  818BOLB   C1B19617  22.187  11.891  38.055 -0.2409  0.1074  0.2742
  818BOLB   C2B19618  22.350  12.067  38.464  0.2284 -0.2134 -0.0466
  818BOLB   C3B19619  22.644  12.381  38.705 -0.3156  0.1257  0.1008
  818BOLB   C4B19620  22.796  12.361  39.048  0.3003 -0.1951 -0.4077
  818BOLB   NC219621  23.564  12.153  41.271  0.1994 -0.0998  0.1087
  818BOLB   PO219622  23.736  12.372  40.966 -0.4691 -0.1176  0.1061
  818BOLB   GL319623  23.438  12.629  40.677  0.1800  0.2024 -0.2499
  818BOLB   GL419624  23.292  12.848  40.991 -0.5385 -0.0239 -0.0246
  818BOLB   C1C19625  23.369  12.633  40.269 -0.2106  0.1674 -0.1360
  818BOLB   C2C19626  23.147  12.473  39.959  0.1061  0.0454  0.1652
  818BOLB   C3C19627  22.784  12.314  39.711 -0.0089 -0.1607  0.2251
  818BOLB   C4C19628  22.558  12.077  39.404  0.1584  0.1690  0.2550
  818BOLB   C1D19629  22.835  12.922  40.882 -0.1182 -0.1240  0.0843
  818BOLB   C2D19630  22.694  13.278  40.686 -0.0078  0.4011 -0.1290
  818BOLB   C3D19631  22.594  13.671  40.759  0.1236  0.0613 -0.1534
  818BOLB   C4D19632  22.559  14.048  40.587  0.2156 -0.0009 -0.2704
  819BOLB   NC119633   8.995  14.185  36.154 -0.0521 -0.1697 -0.1038
  819BOLB   PO119634   8.634  14.420  35.937  0.1195 -0.0456  0.3070
  819BOLB   GL119635   8.293  14.501  36.089  0.0406 -0.1946  0.0279
  819BOLB   GL219636   8.289  14.750  36.361  0.2111 -0.0409 -0.0673
  819BOLB   C1A19637   7.844  14.481  36.179 -0.1362 -0.0715  0.1398
  819BOLB   C2A19638   7.460  14.644  36.355 -0.0353 -0.2367  0.0708
  819BOLB   C3A19639   7.452  14.752  36.712  0.1161 -0.1072 -0.2701
  819BOLB   C4A19640   7.409  15.017  37.139 -0.0730  0.0873 -0.1008
  819BOLB   C1B19641   7.821  14.990  36.462 -0.2331 -0.0819 -0.0789
  819BOLB   C2B19642   7.414  15.192  36.425  0.0288  0.1826 -0.3972
  819BOLB   C3B19643   7.058  15.038  36.497  0.3741 -0.0441 -0.2381
  819BOLB   C4B19644   6.632  15.024  36.657 -0.0418 -0.2025 -0.2080
  819BOLB   NC219645   5.018  15.598  37.339  0.0292 -0.1599 -0.0871
  819BOLB   PO219646   5.223  15.294  37.648  0.1426  0.2786  0.1159
  819BOLB   GL319647   5.630  15.038  37.691 -0.1505 -0.0791 -0.0656
  819BOLB   GL419648   5.394  14.807  37.517 -0.1266  0.1992 -0.1917
  819BOLB   C1C19649   6.045  15.120  37.868 -0.1680  0.0478 -0.3231
  819BOLB   C2C19650   6.439  15.198  37.921  0.0149 -0.6777  0.0464
  819BOLB   C3C19651   6.858  15.174  37.664  0.0275  0.0522 -0.4453
  819BOLB   C4C19652   7.235  15.025  37.562  0.0331  0.3016 -0.1699
  819BOLB   C1D19653   5.795  14.776  37.275 -0.3332 -0.0225  0.0074
  819BOLB   C2D19654   5.940  14.461  36.875 -0.0508  0.2791  0.2881
  819BOLB   C3D19655   6.181  14.268  36.463 -0.1620 -0.1653  0.0946
  819BOLB   C4D19656   6.452  14.337  36.206  0.0370 -0.0730 -0.0685
  820BOLB   NC119657   8.335  13.028  35.429 -0.1826 -0.3099  0.0750
  820BOLB   PO119658   8.587  12.996  35.660 -0.1722  0.0386 -0.1657
  820BOLB   GL119659   8.242  12.751  35.862  0.0506 -0.3744 -0.2427
  820BOLB   GL219660   8.060  12.950  35.865 -0.1257 -0.2747 -0.1563
  820BOLB   C1A19661   7.930  12.507  35.987 -0.2052  0.1695  0.2435
  820BOLB   C2A19662   7.548  12.395  35.808 -0.2117  0.1561  0.1635
  820BOLB   C3A19663   7.139  12.237  35.751 -0.0290 -0.1059 -0.2821
  820BOLB   C4A19664   6.643  12.190  35.633  0.0404 -0.0636  0.1542
  820BOLB   C1B19665   7.747  12.989  36.129 -0.1059 -0.0009 -0.0561
  820BOLB   C2B19666   7.632  13.121  36.575 -0.2088 -0.1570 -0.0385
  820BOLB   C3B19667   7.502  13.035  36.938  0.1726 -0.1459 -0.2342
  820BOLB   C4B19668   7.416  12.734  37.283  0.1053 -0.2387  0.3687
  820BOLB   NC219669   4.953  10.715  36.396 -0.0890 -0.0329 -0.0253
  820BOLB   PO219670   4.701  10.992  36.300  0.0037  0.2680  0.1305
  820BOLB   GL319671   5.020  11.099  36.076 -0.0809  0.0914 -0.2099
  820BOLB   GL419672   4.893  11.106  35.761  0.2035  0.0635 -0.3595
  820BOLB   C1C19673   5.407  11.393  36.035 -0.1770  0.2065 -0.2216
  820BOLB   C2C19674   5.434  11.897  36.033 -0.2215  0.0667 -0.0008
  820BOLB   C3C19675   5.833  12.191  35.912 -0.1599  0.0447  0.4104
  820BOLB   C4C19676   6.266  12.133  35.961  0.1472 -0.1765  0.1399
  820BOLB   C1D19677   5.011  10.834  35.418 -0.0655 -0.2557 -0.2046
  820BOLB   C2D19678   5.349  10.582  35.396 -0.3051  0.2250  0.2698
  820BOLB   C3D19679   5.528  10.180  35.065  0.1186  0.1631 -0.1285
  820BOLB   C4D19680   5.894   9.972  34.945 -0.0657  0.0558  0.3336
  821BOLB   NC119681  20.182   6.411  23.841 -0.1288  0.0681  0.2529
  821BOLB   PO119682  20.395   6.438  24.166 -0.0009 -0.1134  0.2205
  821BOLB   GL119683  20.447   6.006  24.059  0.4300 -0.0972 -0.1937
  821BOLB   GL219684  20.730   6.046  24.363 -0.1147  0.1060  0.1531
  821BOLB   C1A19685  20.694   5.605  24.110 -0.0036 -0.1430  0.2733
  821BOLB   C2A19686  20.879   5.274  24.225 -0.0513  0.1725 -0.0056
  821BOLB   C3A19687  20.986   4.802  24.142 -0.0819  0.0844  0.3023
  821BOLB   C4A19688  21.115   4.461  24.023  0.1147 -0.3601  0.0917
  821BOLB   C1B19689  21.147   5.842  24.170  0.1054 -0.0435 -0.3487
  821BOLB   C2B19690  21.344   5.406  24.020 -0.0582 -0.2807 -0.3082
  821BOLB   C3B19691  21.449   4.947  24.005 -0.0661 -0.1582 -0.2131
  821BOLB   C4B19692  21.623   4.969  23.648 -0.0387  0.4576 -0.1000
  821BOLB   NC219693  22.112   2.355  23.413 -0.0941  0.0936 -0.1226
  821BOLB   PO219694  21.690   2.180  23.314 -0.0673  0.1063  0.1357
  821BOLB   GL319695  21.549   2.620  23.236 -0.1816  0.0551 -0.0906
  821BOLB   GL419696  21.206   2.698  23.155 -0.3082 -0.3009  0.0045
  821BOLB   C1C19697  21.652   3.147  23.143  0.4480 -0.1000 -0.2414
  821BOLB   C2C19698  21.624   3.662  23.345  0.1381  0.0884 -0.1251
  821BOLB   C3C19699  21.593   3.942  23.571 -0.0877  0.1468  0.0504
  821BOLB   C4C19700  21.496   4.270  23.804  0.1095  0.0353 -0.2630
  821BOLB   C1D19701  21.230   3.078  23.402 -0.1375  0.3309  0.4883
  821BOLB   C2D19702  21.052   3.255  23.775 -0.3064  0.1594 -0.0792
  821BOLB   C3D19703  20.850   3.530  24.147 -0.1666  0.1123  0.3804
  821BOLB   C4D19704  20.850   3.929  24.355  0.0234  0.0889 -0.0753
  822BOLB   NC119705  13.083   9.118  38.734  0.0692  0.1769 -0.1150
  822BOLB   PO119706  13.189   8.715  38.935  0.1894 -0.0386 -0.2023
  822BOLB   GL119707  13.322   8.370  39.281 -0.2487 -0.2077 -0.0283
  822BOLB   GL219708  13.438   8.380  39.535  0.2176 -0.0552  0.1256
  822BOLB   C1A19709  13.018   8.119  39.385  0.0551 -0.1767  0.2511
  822BOLB   C2A19710  12.946   7.855  39.761 -0.1042 -0.3244 -0.1073
  822BOLB   C3A19711  12.971   7.742  40.220 -0.3353  0.2335  0.2447
  822BOLB   C4A19712  12.854   7.660  40.540  0.0513  0.2961 -0.0962
  822BOLB   C1B19713  13.458   7.963  39.665  0.0749  0.1098 -0.0696
  822BOLB   C2B19714  13.539   7.592  39.841 -0.3025 -0.0503 -0.2790
  822BOLB   C3B19715  13.587   7.689  40.222  0.0281  0.3822 -0.1241
  822BOLB   C4B19716  13.892   7.826  40.596  0.1477 -0.1625 -0.0448
  822BOLB   NC219717  11.840   6.565  41.792 -0.3083  0.1067 -0.0850
  822BOLB   PO219718  11.360   6.630  41.732  0.0129  0.2848 -0.2954
  822BOLB   GL319719  11.607   6.930  41.483 -0.2124 -0.0841  0.1979
  822BOLB   GL419720  11.661   6.846  41.131  0.0973  0.0267 -0.2946
  822BOLB   C1C19721  12.108   7.087  41.325  0.1490  0.1159  0.2217
  822BOLB   C2C19722  12.448   6.859  41.065 -0.2103  0.2074 -0.1014
  822BOLB   C3C19723  12.781   6.995  40.878  0.2708 -0.1738 -0.2390
  822BOLB   C4C19724  12.734   7.301  40.644 -0.3116 -0.0023  0.1938
  822BOLB   C1D19725  11.752   7.048  40.616 -0.1011  0.2097  0.2870
  822BOLB   C2D19726  12.127   7.210  40.264  0.2486  0.1781 -0.1041
  822BOLB   C3D19727  12.569   7.232  40.088  0.3115  0.0389 -0.1844
  822BOLB   C4D19728  13.072   7.177  40.249  0.2084 -0.0046  0.0147
  823BOLB   NC119729   7.461  13.812  31.137  0.1945 -0.0596  0.3544
  823BOLB   PO119730   7.587  13.616  31.459 -0.3313  0.1000  0.0970
  823BOLB   GL119731   7.142  13.552  31.558  0.0784 -0.0765  0.2919
  823BOLB   GL219732   6.988  13.919  31.565  0.1223 -0.1095  0.0894
  823BOLB   C1A19733   6.677  13.509  31.473 -0.4419  0.2424  0.4104
  823BOLB   C2A19734   6.238  13.721  31.457 -0.0044 -0.1023  0.1403
  823BOLB   C3A19735   5.960  13.970  31.745  0.0838  0.2316  0.0025
  823BOLB   C4A19736   5.566  14.094  31.936  0.0683 -0.0530 -0.1411
  823BOLB   C1B19737   6.613  14.080  31.847  0.3987 -0.1934 -0.4309
  823BOLB   C2B19738   6.222  14.224  32.079 -0.3153 -0.1575  0.3654
  823BOLB   C3B19739   5.920  14.461  31.732 -0.0771 -0.1274 -0.0371
  823BOLB   C4B19740   5.620  14.341  31.513 -0.0796 -0.0927 -0.2394
  823BOLB   NC219741   3.228  15.705  32.167  0.3561  0.0596  0.0599
  823BOLB   PO219742   3.414  15.238  31.997  0.0516  0.0242  0.0184
  823BOLB   GL319743   3.671  15.175  31.658 -0.1796  0.0941 -0.0813
  823BOLB   GL419744   3.882  15.341  31.418  0.1041  0.0654 -0.0165
  823BOLB   C1C19745   3.973  14.860  31.711  0.5366  0.2636  0.0642
  823BOLB   C2C19746   4.373  14.622  31.652 -0.0601 -0.0922  0.0558
  823BOLB   C3C19747   4.811  14.536  31.600 -0.3563  0.1387  0.0092
  823BOLB   C4C19748   5.231  14.270  31.787  0.0215 -0.2791 -0.0052
  823BOLB   C1D19749   4.255  15.200  31.467 -0.1690 -0.1717  0.0129
  823BOLB   C2D19750   4.563  15.187  31.717  0.0924 -0.1741 -0.0420
  823BOLB   C3D19751   4.984  15.346  31.804  0.3121 -0.1356  0.0007
  823BOLB   C4D19752   5.401  15.249  31.777  0.1684 -0.0116 -0.4144
  824BOLB   NC119753  17.441  18.708  16.774  0.0178 -0.2272 -0.0693
  824BOLB   PO119754  17.760  18.541  16.873 -0.0741 -0.1515 -0.0377
  824BOLB   GL119755  18.151  18.442  17.069 -0.1055  0.1783 -0.3188
  824BOLB   GL219756  18.435  18.597  17.283 -0.3820  0.1531  0.1822
  824BOLB   C1A19757  18.244  18.102  17.385 -0.0825 -0.1999 -0.0239
  824BOLB   C2A19758  18.414  17.747  17.548 -0.3615  0.0818 -0.0317
  824BOLB   C3A19759  18.676  17.666  17.917 -0.2019 -0.3307 -0.1833
  824BOLB   C4A19760  18.791  17.384  18.049  0.0963 -0.0119  0.3663
  824BOLB   C1B19761  18.537  18.485  17.686 -0.2186 -0.1252 -0.4065
  824BOLB   C2B19762  18.230  18.585  17.999 -0.0597  0.0929  0.0927
  824BOLB   C3B19763  17.942  18.551  18.316  0.1476  0.0505 -0.0767
  824BOLB   C4B19764  17.711  18.191  18.407 -0.0551 -0.0924  0.1129
  824BOLB   NC219765  20.729  17.060  16.895 -0.0111 -0.1073  0.3801
  824BOLB   PO219766  20.765  17.006  17.337  0.0072  0.0254  0.2056
  824BOLB   GL319767  20.687  16.801  17.610  0.2331  0.0598  0.1255
  824BOLB   GL419768  20.638  16.429  17.508 -0.0793 -0.0446  0.0257
  824BOLB   C1C19769  20.280  16.767  17.769  0.0072  0.1836  0.1080
  824BOLB   C2C19770  19.910  16.839  17.567  0.0269 -0.0782  0.0285
  824BOLB   C3C19771  19.556  16.988  17.753 -0.1852 -0.2327 -0.2573
  824BOLB   C4C19772  19.201  17.124  18.021 -0.1439  0.1724 -0.1499
  824BOLB   C1D19773  20.571  16.477  18.030 -0.1549  0.0916  0.0854
  824BOLB   C2D19774  20.298  16.357  18.355  0.5877  0.4658  0.2264
  824BOLB   C3D19775  19.881  16.250  18.490 -0.2420  0.1431 -0.0209
  824BOLB   C4D19776  19.709  15.939  18.583  0.1323 -0.1451  0.0282
  825BOLB   NC119777   6.737  19.611  23.545  0.2119 -0.0182  0.2179
  825BOLB   PO119778   6.466  19.362  23.844 -0.2151 -0.3151  0.1223
  825BOLB   GL119779   6.684  19.166  24.239 -0.0104  0.2234  0.1089
  825BOLB   GL219780   6.626  19.165  24.513  0.3147 -0.2736  0.0080
  825BOLB   C1A19781   6.930  18.830  24.281 -0.4310  0.0793 -0.4314
  825BOLB   C2A19782   7.122  18.518  24.525  0.0832 -0.0548 -0.1283
  825BOLB   C3A19783   7.161  18.149  24.781  0.2388 -0.0237  0.2575
  825BOLB   C4A19784   7.394  17.787  24.996  0.0078 -0.0662 -0.0679
  825BOLB   C1B19785   6.811  19.156  24.752 -0.0058 -0.1755  0.4438
  825BOLB   C2B19786   7.200  19.323  25.051 -0.1341 -0.1598 -0.0831
  825BOLB   C3B19787   7.433  19.014  25.344 -0.0808  0.1276  0.2006
  825BOLB   C4B19788   7.727  18.964  25.539  0.1789 -0.3227 -0.0596
  825BOLB   NC219789   5.316  17.633  23.707 -0.0149 -0.0945 -0.2484
  825BOLB   PO219790   5.547  17.263  23.582 -0.0872 -0.2604 -0.0518
  825BOLB   GL319791   6.033  17.284  23.825 -0.1477 -0.2406 -0.3049
  825BOLB   GL419792   6.222  16.995  23.748  0.1498  0.1930 -0.0703
  825BOLB   C1C19793   6.366  17.389  24.084  0.0149  0.0934 -0.0339
  825BOLB   C2C19794   6.688  17.456  24.275  0.2513  0.0056 -0.5417
  825BOLB   C3C19795   6.896  17.221  24.595  0.2859  0.1191  0.0511
  825BOLB   C4C19796   7.207  17.366  24.906  0.0160  0.0234  0.0925
  825BOLB   C1D19797   6.509  16.780  23.504 -0.3720 -0.0779 -0.0392
  825BOLB   C2D19798   6.899  16.871  23.428 -0.0906 -0.2334 -0.1639
  825BOLB   C3D19799   7.158  17.254  23.161 -0.0097 -0.2228 -0.2612
  825BOLB   C4D19800   7.099  17.486  22.798 -0.0484 -0.3272 -0.1809
  826BOLB   NC119801  13.017  20.701  25.080 -0.1592  0.1530  0.1199
  826BOLB   PO119802  13.384  20.822  25.447 -0.0633 -0.0082  0.2601
  826BOLB   GL119803  13.336  21.216  25.329 -0.2398 -0.1856  0.2741
  826BOLB   GL219804  12.975  21.213  25.354 -0.0684  0.0065  0.1940
  826BOLB   C1A19805  13.571  21.406  25.018 -0.1845  0.1850  0.1792
  826BOLB   C2A19806  13.772  21.758  24.703 -0.2123 -0.0484 -0.0111
  826BOLB   C3A19807  13.793  22.135  24.619  0.3196 -0.1230 -0.0552
  826BOLB   C4A19808  14.070  22.426  24.671  0.2405  0.1493  0.0459
  826BOLB   C1B19809  12.832  21.455  25.025  0.0543 -0.0693 -0.1553
  826BOLB   C2B19810  12.729  21.658  24.739 -0.0668 -0.3457  0.1143
  826BOLB   C3B19811  12.599  22.037  24.643 -0.0191  0.1559  0.0370
  826BOLB   C4B19812  12.215  22.296  24.660 -0.0310 -0.1346  0.0990
  826BOLB   NC219813  15.262  24.534  23.242  0.0258  0.2671 -0.2861
  826BOLB   PO219814  14.927  24.217  23.103  0.1937 -0.0026 -0.1873
  826BOLB   GL319815  15.163  24.021  23.587  0.4944 -0.1205  0.1216
  826BOLB   GL419816  15.382  23.841  23.565 -0.1379  0.0575  0.1436
  826BOLB   C1C19817  15.043  23.742  24.006 -0.2422 -0.3616 -0.2096
  826BOLB   C2C19818  14.751  23.389  24.120  0.6624 -0.4524 -0.1450
  826BOLB   C3C19819  14.359  23.118  24.066  0.3466 -0.0803  0.0043
  826BOLB   C4C19820  14.215  22.794  24.373  0.2208 -0.0784 -0.0575
  826BOLB   C1D19821  15.513  23.723  23.966 -0.3730 -0.1366 -0.0923
  826BOLB   C2D19822  15.225  23.432  24.311 -0.0485 -0.1070  0.2898
  826BOLB   C3D19823  14.983  23.051  24.390  0.0354 -0.4916 -0.0875
  826BOLB   C4D19824  14.696  22.759  24.150  0.2459  0.1237  0.4138
  827BOLB   NC119825  21.979  16.173  33.468  0.0216  0.1311 -0.1728
  827BOLB   PO119826  22.481  16.095  33.580 -0.1677  0.2197 -0.4306
  827BOLB   GL119827  22.848  16.375  33.567  0.2967  0.1369 -0.1464
  827BOLB   GL219828  22.840  16.493  33.163 -0.2872  0.0903 -0.0325
  827BOLB   C1A19829  23.076  16.728  33.708 -0.1673  0.0085 -0.1388
  827BOLB   C2A19830  23.380  16.945  34.043 -0.0523 -0.0133 -0.1615
  827BOLB   C3A19831  23.666  17.007  34.373 -0.5687  0.0303  0.0407
  827BOLB   C4A19832  24.141  16.962  34.508  0.3135 -0.0395  0.2351
  827BOLB   C1B19833  23.197  16.683  33.065  0.2446  0.0516  0.2294
  827BOLB   C2B19834  23.610  16.918  32.925  0.1002 -0.0557  0.2311
  827BOLB   C3B19835  23.935  17.148  32.860  0.2006 -0.0377  0.0779
  827BOLB   C4B19836  24.267  17.333  32.884 -0.1857 -0.3296 -0.0629
  827BOLB   NC219837  25.915  18.365  35.006  0.0891 -0.3525 -0.0189
  827BOLB   PO219838  25.948  17.943  34.929  0.1042  0.1577  0.3102
  827BOLB   GL319839  25.497  18.027  35.063 -0.1025 -0.0503 -0.4007
  827BOLB   GL419840  25.339  17.721  35.079 -0.1212 -0.3951 -0.0350
  827BOLB   C1C19841  25.057  18.168  34.996 -0.1634  0.0911  0.2281
  827BOLB   C2C19842  24.747  17.888  35.022  0.1559 -0.0294 -0.0483
  827BOLB   C3C19843  24.659  17.418  34.917 -0.0227 -0.2542 -0.2629
  827BOLB   C4C19844  24.479  17.047  34.770  0.1240  0.0140 -0.0328
  827BOLB   C1D19845  25.105  17.535  34.803 -0.0998 -0.1048 -0.0504
  827BOLB   C2D19846  24.729  17.421  34.444 -0.0386  0.0623 -0.0492
  827BOLB   C3D19847  24.610  17.085  34.283  0.2578 -0.1507 -0.0663
  827BOLB   C4D19848  24.399  17.075  33.871  0.1377 -0.1480 -0.2994
  828BOLB   NC119849  22.825   8.180  31.134  0.0931  0.1390  0.2618
  828BOLB   PO119850  22.530   7.764  31.146 -0.0707 -0.0771  0.1344
  828BOLB   GL119851  22.882   7.748  30.928  0.5027  0.0358  0.1940
  828BOLB   GL219852  22.830   7.470  30.609  0.4662  0.2234  0.1483
  828BOLB   C1A19853  23.278   7.690  30.825  0.0656 -0.0699  0.1771
  828BOLB   C2A19854  23.701   7.576  30.689  0.0763 -0.0847  0.1783
  828BOLB   C3A19855  23.922   7.271  30.588  0.0649  0.1629  0.4162
  828BOLB   C4A19856  24.398   7.099  30.514 -0.0480 -0.1101 -0.0754
  828BOLB   C1B19857  23.234   7.237  30.564 -0.0373 -0.3226  0.0662
  828BOLB   C2B19858  23.542   6.887  30.501 -0.2938 -0.2205 -0.1593
  828BOLB   C3B19859  23.964   6.793  30.654 -0.1138 -0.0542 -0.1339
  828BOLB   C4B19860  24.316   6.670  30.639  0.0959  0.2210 -0.0522
  828BOLB   NC219861   0.105   6.831  30.461  0.1762  0.2093 -0.1425
  828BOLB   PO219862  26.790   6.738  30.668 -0.0554 -0.2542 -0.1413
  828BOLB   GL319863  26.427   7.016  30.709 -0.0792  0.1642  0.1550
  828BOLB   GL419864  26.249   7.283  30.855 -0.0727 -0.0473 -0.0371
  828BOLB   C1C19865  25.996   6.895  30.699  0.1708  0.1388  0.1141
  828BOLB   C2C19866  25.583   6.956  30.409 -0.0792  0.0439 -0.0249
  828BOLB   C3C19867  25.228   7.179  30.240  0.0009 -0.2510 -0.1347
  828BOLB   C4C19868  24.763   7.215  30.263 -0.1502  0.2179 -0.1327
  828BOLB   C1D19869  26.084   7.265  30.423 -0.1038 -0.0836  0.0767
  828BOLB   C2D19870  25.817   7.170  30.033  0.2066  0.0825  0.3682
  828BOLB   C3D19871  25.414   7.070  29.811 -0.0577  0.2141  0.2305
  828BOLB   C4D19872  25.112   6.782  29.513  0.0660 -0.2541  0.3981
  829BOLB   NC119873  23.999   1.926  31.846 -0.0962  0.2866 -0.1601
  829BOLB   PO119874  24.112   2.049  31.440 -0.0034 -0.0154  0.0753
  829BOLB   GL119875  23.698   2.234  31.603  0.1488 -0.1707 -0.1278
  829BOLB   GL219876  23.740   2.468  31.431  0.1514 -0.0915 -0.0130
  829BOLB   C1A19877  23.220   2.509  31.534 -0.0661 -0.0083 -0.1660
  829BOLB   C2A19878  23.205   2.747  31.871 -0.0291  0.0155  0.2327
  829BOLB   C3A19879  22.963   3.129  32.033 -0.0023 -0.1201 -0.2412
  829BOLB   C4A19880  22.632   3.399  32.247 -0.0694 -0.0637  0.2126
  829BOLB   C1B19881  23.533   2.899  31.549  0.1514  0.1068 -0.2230
  829BOLB   C2B19882  23.310   3.123  31.347  0.1224 -0.1938  0.0702
  829BOLB   C3B19883  22.988   3.277  31.211  0.0414 -0.2190 -0.1228
  829BOLB   C4B19884  22.594   3.482  31.195  0.0212 -0.4423 -0.0613
  829BOLB   NC219885  22.791   2.071  33.030  0.1686  0.4381  0.0132
  829BOLB   PO219886  22.530   1.968  33.283 -0.3560 -0.1779 -0.0371
  829BOLB   GL319887  22.143   2.060  33.079  0.0784  0.0844 -0.1883
  829BOLB   GL419888  22.047   2.178  33.310  0.1539 -0.2855 -0.3292
  829BOLB   C1C19889  21.869   2.280  32.824  0.0732  0.0358 -0.0669
  829BOLB   C2C19890  21.916   2.557  32.390 -0.0878 -0.0271 -0.1084
  829BOLB   C3C19891  22.039   2.930  32.335 -0.0531 -0.3627  0.2465
  829BOLB   C4C19892  22.193   3.303  32.570  0.1254  0.0046 -0.0282
  829BOLB   C1D19893  21.810   2.541  33.256  0.3791 -0.1106  0.2725
  829BOLB   C2D19894  21.395   2.910  33.134  0.1330  0.0426 -0.2073
  829BOLB   C3D19895  21.021   3.040  32.948 -0.0843 -0.0020  0.0677
  829BOLB   C4D19896  20.777   3.398  32.674  0.0944 -0.0369 -0.0590
  830BOLB   NC119897  10.908   6.979  34.824  0.0637  0.2711  0.0934
  830BOLB   PO119898  10.682   7.279  34.938 -0.0081 -0.1335  0.1564
  830BOLB   GL119899  10.522   7.115  35.200 -0.1237  0.1031  0.1652
  830BOLB   GL219900  10.505   7.229  35.462 -0.1945  0.1103 -0.1019
  830BOLB   C1A19901  10.160   6.830  35.345  0.0711  0.2546 -0.2338
  830BOLB   C2A19902  10.024   6.673  35.732 -0.0906 -0.1421  0.0109
  830BOLB   C3A19903   9.974   6.558  36.239 -0.2145 -0.1201  0.1162
  830BOLB   C4A19904   9.913   6.665  36.591 -0.2659  0.2794 -0.0037
  830BOLB   C1B19905  10.509   6.753  35.658  0.0426 -0.0196 -0.0806
  830BOLB   C2B19906  10.491   6.554  36.140  0.4028  0.1075 -0.0192
  830BOLB   C3B19907  10.477   6.188  36.251  0.0908 -0.0708  0.0698
  830BOLB   C4B19908  10.406   5.812  36.504  0.0009 -0.1835  0.2947
  830BOLB   NC219909   8.097   6.430  38.557 -0.0157 -0.2466  0.0671
  830BOLB   PO219910   8.195   6.779  38.215  0.2416  0.0758 -0.0897
  830BOLB   GL319911   8.314   6.742  37.767  0.3076 -0.1355  0.1342
  830BOLB   GL419912   8.170   6.989  37.589  0.0391 -0.0316  0.1539
  830BOLB   C1C19913   8.624   6.510  37.483  0.2559  0.1350 -0.0568
  830BOLB   C2C19914   9.083   6.377  37.521 -0.1006 -0.0599  0.3162
  830BOLB   C3C19915   9.410   6.447  37.100  0.2742 -0.1490 -0.3856
  830BOLB   C4C19916   9.687   6.670  36.931 -0.0897 -0.1524  0.1555
  830BOLB   C1D19917   8.540   7.175  37.521 -0.2804  0.0815  0.2682
  830BOLB   C2D19918   8.901   7.318  37.388  0.1602  0.1453  0.1516
  830BOLB   C3D19919   9.210   7.631  37.280  0.1864  0.0047  0.3062
  830BOLB   C4D19920   9.562   7.715  37.172 -0.1426 -0.0616 -0.1850
  831BOLB   NC119921  20.200   7.611  36.789 -0.1202  0.0149  0.4457
  831BOLB   PO119922  20.381   7.210  36.857  0.0540  0.1523 -0.0128
  831BOLB   GL119923  20.595   6.819  36.996 -0.0846 -0.0674 -0.1483
  831BOLB   GL219924  20.915   6.881  37.206 -0.2049 -0.0057 -0.0882
  831BOLB   C1A19925  20.795   6.347  37.080 -0.2588  0.0189  0.2151
  831BOLB   C2A19926  20.931   6.084  37.415 -0.1673 -0.2045  0.1801
  831BOLB   C3A19927  21.181   5.786  37.846  0.0906  0.0783  0.1146
  831BOLB   C4A19928  21.292   5.614  38.114 -0.1186  0.3318  0.0777
  831BOLB   C1B19929  21.134   6.555  37.474  0.0575  0.0922  0.1379
  831BOLB   C2B19930  21.581   6.485  37.599 -0.1138  0.0625 -0.1358
  831BOLB   C3B19931  21.722   6.160  37.791 -0.2677 -0.0989  0.0404
  831BOLB   C4B19932  22.160   6.022  37.939 -0.2110 -0.0879 -0.1630
  831BOLB   NC219933  22.539   5.691  39.778 -0.3429  0.0714  0.4825
  831BOLB   PO219934  22.166   5.892  39.831  0.1754  0.0751 -0.1002
  831BOLB   GL319935  22.034   5.861  39.458 -0.2451  0.0563 -0.1047
  831BOLB   GL419936  22.181   6.211  39.368 -0.1086 -0.1261 -0.0937
  831BOLB   C1C19937  21.890   5.507  39.279 -0.0488 -0.1206 -0.0114
  831BOLB   C2C19938  21.588   5.257  39.074  0.0393 -0.3516 -0.1331
  831BOLB   C3C19939  21.241   5.322  38.899  0.2080 -0.1907 -0.2064
  831BOLB   C4C19940  21.307   5.595  38.568 -0.1709 -0.0116  0.0496
  831BOLB   C1D19941  21.946   6.589  39.169  0.0360 -0.0410 -0.0639
  831BOLB   C2D19942  21.685   6.919  39.131 -0.0777  0.0206  0.0456
  831BOLB   C3D19943  21.337   7.145  39.041 -0.0239  0.2319  0.2473
  831BOLB   C4D19944  21.092   7.430  39.096 -0.4760 -0.1962  0.0354
  832BOLB   NC119945  13.678  21.022  31.652  0.2805 -0.2497 -0.0806
  832BOLB   PO119946  13.765  21.428  31.604  0.0114 -0.0541  0.2114
  832BOLB   GL119947  14.062  21.600  31.895 -0.0344  0.0426 -0.1635
  832BOLB   GL219948  13.815  21.762  32.039 -0.2611  0.0999  0.0150
  832BOLB   C1A19949  14.379  21.971  31.919  0.1336 -0.1968 -0.2922
  832BOLB   C2A19950  14.563  22.349  31.971 -0.1683  0.0822  0.0636
  832BOLB   C3A19951  14.538  22.803  31.773  0.1674 -0.1223  0.1724
  832BOLB   C4A19952  14.352  23.215  31.888 -0.0891 -0.1935  0.2719
  832BOLB   C1B19953  13.668  22.072  32.246 -0.1025 -0.3418  0.0329
  832BOLB   C2B19954  13.565  22.377  32.553  0.2853  0.1753 -0.1376
  832BOLB   C3B19955  13.657  22.689  32.866  0.3106  0.1881  0.2787
  832BOLB   C4B19956  13.611  22.787  33.238 -0.0028  0.2530  0.0229
  832BOLB   NC219957  13.954  25.270  31.122  0.4202 -0.3138  0.0054
  832BOLB   PO219958  14.373  25.221  31.053  0.0435 -0.1068  0.3560
  832BOLB   GL319959  14.635  25.060  31.281 -0.3148 -0.1798  0.0504
  832BOLB   GL419960  14.946  25.029  31.111  0.0088 -0.0694 -0.0725
  832BOLB   C1C19961  14.721  24.651  31.432 -0.0336  0.2812 -0.0423
  832BOLB   C2C19962  14.729  24.255  31.477  0.0476 -0.4986  0.1101
  832BOLB   C3C19963  14.679  23.896  31.629 -0.0877  0.0179  0.1515
  832BOLB   C4C19964  14.648  23.512  31.822  0.0897 -0.1605 -0.2401
  832BOLB   C1D19965  15.130  24.560  30.951 -0.2030 -0.0365  0.4713
  832BOLB   C2D19966  15.202  24.213  31.307 -0.1245  0.4050  0.0671
  832BOLB   C3D19967  15.085  23.777  31.289  0.2099  0.0622 -0.7364
  832BOLB   C4D19968  14.826  23.450  31.311 -0.0227 -0.0689  0.0778
  833BOLB   NC119969  15.048   4.942  31.044  0.1210 -0.1528 -0.0828
  833BOLB   PO119970  14.734   4.570  30.845 -0.1436 -0.0460  0.0025
  833BOLB   GL119971  14.882   4.274  30.699  0.1931 -0.0287 -0.2985
  833BOLB   GL219972  15.025   4.254  30.339 -0.0663 -0.2122 -0.0945
  833BOLB   C1A19973  14.934   3.858  30.755 -0.3823 -0.2277 -0.0217
  833BOLB   C2A19974  15.012   3.400  30.773  0.0218  0.0081  0.0731
  833BOLB   C3A19975  14.920   3.008  30.759 -0.2323  0.2258  0.1116
  833BOLB   C4A19976  14.899   2.619  30.607 -0.0511 -0.2906  0.2736
  833BOLB   C1B19977  14.767   3.983  30.253  0.3429 -0.0126  0.2378
  833BOLB   C2B19978  14.779   3.650  30.328  0.0729 -0.2946 -0.0045
  833BOLB   C3B19979  14.629   3.262  30.299  0.1347 -0.2563  0.0063
  833BOLB   C4B19980  14.418   2.946  30.683 -0.1633 -0.0187 -0.0100
  833BOLB   NC219981  14.991  26.956  30.579 -0.0847 -0.0081 -0.4356
  833BOLB   PO219982  15.060   0.024  30.145 -0.2189  0.0809 -0.1224
  833BOLB   GL319983  14.954   0.535  30.085 -0.2608 -0.0707  0.0253
  833BOLB   GL419984  14.676   0.668  30.250  0.0529 -0.0185 -0.2128
  833BOLB   C1C19985  15.122   0.863  30.350 -0.2665  0.1404 -0.1771
  833BOLB   C2C19986  15.065   1.379  30.453  0.2188  0.0161  0.1458
  833BOLB   C3C19987  14.960   1.813  30.462  0.1344 -0.1156 -0.0891
  833BOLB   C4C19988  15.206   2.207  30.457 -0.0476 -0.2048 -0.1345
  833BOLB   C1D19989  14.627   0.902  30.581 -0.1023  0.0654  0.0430
  833BOLB   C2D19990  14.559   1.417  30.491 -0.1052 -0.0187 -0.1639
  833BOLB   C3D19991  14.284   1.868  30.366 -0.2420  0.0489 -0.3051
  833BOLB   C4D19992  14.343   2.316  30.213  0.0446 -0.0636 -0.0806
  834BOLB   NC119993  23.088  12.300  35.700  0.0093 -0.1412 -0.1269
  834BOLB   PO119994  22.941  12.435  35.992  0.2840  0.4140  0.0043
  834BOLB   GL119995  23.214  12.279  36.216  0.3191  0.1478  0.1083
  834BOLB   GL219996  23.411  12.106  36.048  0.0536  0.0053  0.1969
  834BOLB   C1A19997  23.450  12.318  36.567  0.0754 -0.1515 -0.3689
  834BOLB   C2A19998  23.886  12.347  36.732  0.1999  0.1858 -0.1169
  834BOLB   C3A19999  24.099  12.056  37.024 -0.1708 -0.0157 -0.0623
  834BOLB   C4A20000  24.466  11.912  36.922  0.0581  0.1944 -0.0389
  834BOLB   C1B20001  23.835  12.073  36.260  0.0533 -0.1407  0.2139
  834BOLB   C2B20002  24.202  12.150  35.894 -0.0160 -0.0168  0.0123
  834BOLB   C3B20003  24.548  11.993  35.666  0.0603 -0.2610 -0.1136
  834BOLB   C4B20004  24.828  11.785  35.541 -0.0909  0.1192  0.3178
  834BOLB   NC220005  25.710  11.548  38.360 -0.1510  0.0832 -0.3399
  834BOLB   PO220006  25.819  11.083  38.398  0.0636  0.1962  0.2645
  834BOLB   GL320007  25.504  11.168  38.035  0.4005 -0.2578 -0.3447
  834BOLB   GL420008  25.150  11.113  38.023  0.4472  0.3340 -0.0470
  834BOLB   C1C20009  25.384  11.579  37.808  0.1358  0.1848  0.0353
  834BOLB   C2C20010  25.262  11.573  37.409  0.0622  0.0249  0.1772
  834BOLB   C3C20011  25.240  11.761  37.034 -0.2220  0.1051 -0.0174
  834BOLB   C4C20012  24.925  11.865  36.683  0.1076 -0.1357 -0.0240
  834BOLB   C1D20013  25.293  11.071  37.626 -0.3161 -0.0158  0.1297
  834BOLB   C2D20014  25.287  11.197  37.151 -0.1367  0.0010  0.0201
  834BOLB   C3D20015  25.223  11.285  36.726 -0.0921  0.0818 -0.1528
  834BOLB   C4D20016  25.000  11.418  36.387 -0.0379  0.3487  0.1369
  835BOLB   NC120017   8.314  10.866  32.916  0.0518 -0.0184 -0.0130
  835BOLB   PO120018   8.077  10.619  32.654 -0.3593 -0.2416 -0.0655
  835BOLB   GL120019   7.808  10.345  32.648 -0.0939 -0.1596  0.0738
  835BOLB   GL220020   7.491  10.455  32.692 -0.1742 -0.0492  0.1935
  835BOLB   C1A20021   7.550  10.083  32.979  0.1133  0.5999 -0.0380
  835BOLB   C2A20022   7.315   9.720  33.107  0.0172  0.2081  0.1536
  835BOLB   C3A20023   7.313   9.359  33.391  0.0954 -0.1052 -0.0559
  835BOLB   C4A20024   7.039   9.082  33.652  0.0554  0.0104 -0.0587
  835BOLB   C1B20025   7.138  10.239  32.690 -0.0444 -0.1285 -0.2045
  835BOLB   C2B20026   6.647  10.352  32.745  0.0768 -0.0476  0.1240
  835BOLB   C3B20027   6.226  10.556  32.936  0.0667 -0.1796  0.2947
  835BOLB   C4B20028   5.762  10.665  33.056  0.0838  0.3269  0.0042
  835BOLB   NC220029   5.018   7.745  33.392  0.3062 -0.1250 -0.0890
  835BOLB   PO220030   5.205   7.429  33.570  0.0762  0.2830 -0.0448
  835BOLB   GL320031   5.572   7.642  33.559 -0.1076  0.0051 -0.1313
  835BOLB   GL420032   5.516   7.853  33.291  0.2458 -0.4201  0.1374
  835BOLB   C1C20033   5.989   7.837  33.601  0.1724 -0.0361  0.0339
  835BOLB   C2C20034   6.345   8.125  33.531 -0.0874  0.1244  0.1107
  835BOLB   C3C20035   6.468   8.430  33.399  0.1326  0.1121 -0.1547
  835BOLB   C4C20036   6.766   8.756  33.522  0.1213  0.0903 -0.2876
  835BOLB   C1D20037   5.707   8.278  33.241 -0.3324 -0.2442  0.2690
  835BOLB   C2D20038   5.924   8.727  32.974  0.1391 -0.1318  0.0151
  835BOLB   C3D20039   6.157   9.022  32.767  0.1160 -0.1218 -0.2046
  835BOLB   C4D20040   6.201   9.356  32.452  0.2967  0.0383 -0.0710
  836BOLB   NC120041  10.783  17.048  24.436  0.2426 -0.2355  0.0309
  836BOLB   PO120042  10.756  17.078  23.983 -0.1351  0.0299 -0.2697
  836BOLB   GL120043  10.555  17.351  23.587  0.0991 -0.1544  0.0103
  836BOLB   GL220044  10.337  17.094  23.375  0.1166  0.0210 -0.0385
  836BOLB   C1A20045  10.223  17.574  23.227 -0.0467 -0.0574 -0.3814
  836BOLB   C2A20046   9.874  17.372  23.156 -0.0645 -0.1924  0.1556
  836BOLB   C3A20047   9.441  17.387  22.956 -0.0474 -0.0842  0.0578
  836BOLB   C4A20048   9.026  17.458  22.737 -0.0505  0.4256 -0.1988
  836BOLB   C1B20049  10.318  17.167  22.873 -0.1078 -0.4352 -0.1936
  836BOLB   C2B20050  10.152  17.408  22.687 -0.5904 -0.4406 -0.3030
  836BOLB   C3B20051   9.770  17.497  22.575  0.1526 -0.0758  0.0983
  836BOLB   C4B20052   9.423  17.307  22.429  0.1220 -0.2802  0.0394
  836BOLB   NC220053   6.995  18.214  21.307 -0.2949  0.1414 -0.1372
  836BOLB   PO220054   7.462  18.346  21.282 -0.1176  0.4462  0.1106
  836BOLB   GL320055   7.694  18.355  21.570 -0.1195  0.3721 -0.1351
  836BOLB   GL420056   8.036  18.404  21.475 -0.1712 -0.2337  0.2200
  836BOLB   C1C20057   7.829  17.941  21.718  0.4098 -0.2172  0.1397
  836BOLB   C2C20058   7.918  17.601  22.150  0.0643 -0.2016 -0.1406
  836BOLB   C3C20059   8.234  17.392  22.271 -0.0457  0.1015  0.0288
  836BOLB   C4C20060   8.539  17.418  22.593  0.0501 -0.1142 -0.0056
  836BOLB   C1D20061   8.056  18.526  21.956  0.1134 -0.0891  0.2987
  836BOLB   C2D20062   8.297  18.488  22.204  0.4968  0.1782  0.1288
  836BOLB   C3D20063   8.572  18.224  22.338 -0.2588 -0.3178 -0.0443
  836BOLB   C4D20064   8.831  17.855  22.234  0.0727 -0.1992 -0.1182
  837BOLB   NC120065  17.450   9.374  38.985  0.4366  0.0662 -0.0034
  837BOLB   PO120066  17.793   9.260  38.797  0.2086  0.1421 -0.0839
  837BOLB   GL120067  17.827   8.981  39.106  0.1928  0.1251 -0.1012
  837BOLB   GL220068  17.821   9.285  39.391  0.0993 -0.2521  0.0647
  837BOLB   C1A20069  18.070   8.868  39.476  0.0699  0.1814  0.3054
  837BOLB   C2A20070  18.281   8.835  39.837 -0.3235  0.0903 -0.1048
  837BOLB   C3A20071  18.331   8.714  40.363 -0.0730 -0.2360  0.1376
  837BOLB   C4A20072  18.300   8.331  40.627 -0.0586  0.4035  0.1304
  837BOLB   C1B20073  17.577   9.466  39.783 -0.1988 -0.0812  0.0006
  837BOLB   C2B20074  17.612   9.348  40.159 -0.1145 -0.0873 -0.2288
  837BOLB   C3B20075  17.388   9.243  40.554  0.1404  0.2291  0.2608
  837BOLB   C4B20076  17.120   9.155  40.847  0.3244 -0.0222  0.1194
  837BOLB   NC220077  18.551   6.815  42.532 -0.0418  0.0429 -0.0497
  837BOLB   PO220078  18.129   6.841  42.437 -0.2825  0.3578  0.0894
  837BOLB   GL320079  17.917   7.146  42.225 -0.2135  0.1302  0.1623
  837BOLB   GL420080  17.837   6.951  41.793 -0.2183 -0.3290 -0.3332
  837BOLB   C1C20081  17.886   7.651  42.085 -0.1193  0.2681 -0.0028
  837BOLB   C2C20082  17.916   7.872  41.666  0.1473 -0.1671 -0.0670
  837BOLB   C3C20083  17.864   7.938  41.266 -0.1798 -0.1194 -0.0194
  837BOLB   C4C20084  18.037   8.152  40.875  0.1983 -0.0781 -0.1578
  837BOLB   C1D20085  17.763   7.188  41.381 -0.2590  0.0691  0.0769
  837BOLB   C2D20086  17.652   7.419  41.009  0.0207  0.0815  0.0875
  837BOLB   C3D20087  17.513   7.788  40.945 -0.0761 -0.2861 -0.1674
  837BOLB   C4D20088  17.245   8.194  40.911 -0.2486  0.1374 -0.0226
  838BOLB   NC120089   9.933  10.572  42.884  0.0515  0.2561 -0.2529
  838BOLB   PO120090  10.145  10.278  42.639 -0.0099  0.1119  0.3212
  838BOLB   GL120091  10.522  10.471  42.380  0.1528 -0.3145 -0.3369
  838BOLB   GL220092  10.420  10.694  42.073 -0.2662 -0.2467 -0.0910
  838BOLB   C1A20093  10.859  10.592  41.976  0.1745  0.2060 -0.0509
  838BOLB   C2A20094  11.173  10.657  41.726  0.0191  0.0436 -0.1239
  838BOLB   C3A20095  11.371  10.886  41.273  0.2265 -0.0703  0.1694
  838BOLB   C4A20096  11.339  11.264  41.143 -0.4146  0.0716  0.2165
  838BOLB   C1B20097  10.529  10.618  41.602  0.1360 -0.2227  0.5584
  838BOLB   C2B20098  10.753  10.911  41.326  0.1128 -0.0352 -0.0813
  838BOLB   C3B20099  10.862  11.080  40.954 -0.0576 -0.0214  0.2563
  838BOLB   C4B20100  11.174  11.146  40.648 -0.0136  0.4201  0.0103
  838BOLB   NC220101   9.210  12.156  42.337 -0.0191 -0.3453  0.0885
  838BOLB   PO220102   9.403  11.792  42.010 -0.0192 -0.1805  0.0684
  838BOLB   GL320103   9.826  11.991  41.832  0.1858  0.1313  0.0049
  838BOLB   GL420104   9.568  11.975  41.614  0.0021  0.0087  0.2637
  838BOLB   C1C20105  10.132  12.134  41.565  0.1678 -0.1697  0.0519
  838BOLB   C2C20106  10.415  11.987  41.219 -0.0434  0.1088  0.0623
  838BOLB   C3C20107  10.828  11.901  41.009 -0.1374  0.0996 -0.0905
  838BOLB   C4C20108  11.074  11.596  40.931 -0.0091 -0.0059 -0.1414
  838BOLB   C1D20109   9.793  12.053  41.181 -0.1473 -0.0391 -0.1365
  838BOLB   C2D20110  10.038  12.153  40.783 -0.2234  0.1940  0.3771
  838BOLB   C3D20111  10.029  12.015  40.358 -0.2804 -0.0686 -0.0198
  838BOLB   C4D20112  10.029  11.552  40.198 -0.4294  0.0767  0.0949
  839BOLB   NC120113  12.416   7.723  23.157  0.0301 -0.3034 -0.0708
  839BOLB   PO120114  12.271   7.411  23.496  0.2368  0.0560  0.2938
  839BOLB   GL120115  12.078   7.271  23.205 -0.1475  0.1057  0.0399
  839BOLB   GL220116  11.974   6.962  23.308 -0.1523 -0.0771 -0.0296
  839BOLB   C1A20117  12.133   7.124  22.795  0.1387 -0.0613  0.0814
  839BOLB   C2A20118  11.939   6.745  22.663 -0.0627 -0.1700  0.1531
  839BOLB   C3A20119  11.755   6.362  22.577  0.2135  0.3986 -0.1658
  839BOLB   C4A20120  11.658   6.098  22.241  0.0342 -0.0074 -0.2811
  839BOLB   C1B20121  11.859   6.530  23.158  0.1977  0.2067  0.1606
  839BOLB   C2B20122  11.646   6.105  23.129  0.2381 -0.2571 -0.2458
  839BOLB   C3B20123  11.489   5.764  23.291 -0.0325  0.1389  0.0802
  839BOLB   C4B20124  11.178   5.446  23.236  0.3177  0.1862 -0.0106
  839BOLB   NC220125  10.368   6.201  20.361 -0.2337 -0.0512 -0.1505
  839BOLB   PO220126  10.521   5.824  20.249  0.0615  0.0081 -0.1564
  839BOLB   GL320127  10.804   5.906  20.565  0.0618  0.0076  0.2301
  839BOLB   GL420128  10.815   6.279  20.520 -0.0257  0.3680 -0.0749
  839BOLB   C1C20129  11.062   5.898  20.776 -0.0399 -0.0931 -0.0748
  839BOLB   C2C20130  11.056   5.804  21.319 -0.3512  0.2068  0.0187
  839BOLB   C3C20131  11.183   5.863  21.672 -0.1982  0.4575 -0.0115
  839BOLB   C4C20132  11.438   6.095  21.876 -0.0849 -0.1473  0.1775
  839BOLB   C1D20133  11.280   6.400  20.590  0.1850 -0.1377 -0.2787
  839BOLB   C2D20134  11.563   6.521  20.927 -0.1110  0.2046  0.0727
  839BOLB   C3D20135  11.808   6.655  21.232 -0.0997 -0.4483  0.0482
  839BOLB   C4D20136  11.751   6.832  21.611  0.0941  0.2551  0.2937
  840BOLB   NC120137  20.630   6.837  34.579  0.2647 -0.0764  0.0043
  840BOLB   PO120138  21.011   6.633  34.237  0.2624  0.4191 -0.0047
  840BOLB   GL120139  21.181   6.220  34.292 -0.1928 -0.2889  0.0236
  840BOLB   GL220140  21.114   5.965  34.065  0.4074 -0.3163  0.2276
  840BOLB   C1A20141  21.307   5.905  34.552 -0.0004 -0.0857 -0.1609
  840BOLB   C2A20142  21.663   5.816  34.731 -0.0361  0.1008  0.0641
  840BOLB   C3A20143  21.776   5.443  34.928  0.1347  0.3693  0.0635
  840BOLB   C4A20144  22.115   5.112  34.861  0.1667  0.1949 -0.2561
  840BOLB   C1B20145  21.232   5.497  33.949 -0.0013  0.0490 -0.0536
  840BOLB   C2B20146  21.386   5.139  34.107 -0.2216 -0.0560 -0.2092
  840BOLB   C3B20147  21.464   4.766  34.395  0.1967  0.0161 -0.0863
  840BOLB   C4B20148  21.372   4.438  34.272 -0.0271 -0.1239  0.2719
  840BOLB   NC220149  23.966   3.271  34.622 -0.0405  0.0554  0.3283
  840BOLB   PO220150  23.656   2.952  34.824 -0.1728  0.1825 -0.0002
  840BOLB   GL320151  23.435   3.452  34.619  0.0854  0.0145 -0.1383
  840BOLB   GL420152  23.209   3.409  34.576  0.2065 -0.1264 -0.1308
  840BOLB   C1C20153  23.181   3.963  34.676 -0.2148  0.2369  0.0845
  840BOLB   C2C20154  22.833   4.156  34.357  0.3384  0.0214 -0.0517
  840BOLB   C3C20155  22.547   4.568  34.286  0.3099  0.0373 -0.2919
  840BOLB   C4C20156  22.174   4.808  34.532 -0.0112 -0.1734  0.2439
  840BOLB   C1D20157  22.820   3.706  34.585 -0.1855 -0.0677 -0.0086
  840BOLB   C2D20158  22.448   3.959  34.638 -0.2568 -0.0496  0.3726
  840BOLB   C3D20159  22.286   4.344  34.693 -0.3368 -0.1016  0.0772
  840BOLB   C4D20160  22.179   4.657  35.055  0.0268  0.1076  0.0372
  841BOLB   NC120161   9.669  16.742  24.530  0.0580 -0.0966 -0.0904
  841BOLB   PO120162   9.706  16.360  24.868 -0.0909 -0.0853 -0.3270
  841BOLB   GL120163   9.289  16.453  24.658 -0.0188 -0.0062 -0.0771
  841BOLB   GL220164   9.191  16.132  24.422  0.2546 -0.2581 -0.5331
  841BOLB   C1A20165   8.977  16.706  24.615 -0.0692  0.0426 -0.0349
  841BOLB   C2A20166   8.618  16.793  24.533 -0.1623 -0.3621 -0.2897
  841BOLB   C3A20167   8.378  17.097  24.352 -0.1379 -0.1433 -0.1315
  841BOLB   C4A20168   8.264  17.487  24.145  0.0030  0.1005  0.3897
  841BOLB   C1B20169   8.793  16.234  24.571 -0.0231 -0.1905 -0.0135
  841BOLB   C2B20170   8.419  16.384  24.314  0.1351 -0.1825  0.3426
  841BOLB   C3B20171   8.069  16.664  24.127 -0.5399  0.1980  0.0418
  841BOLB   C4B20172   7.803  16.857  23.793  0.0759 -0.2508 -0.2915
  841BOLB   NC220173   6.631  18.793  22.102  0.0266 -0.0770 -0.2408
  841BOLB   PO220174   7.002  18.776  22.294 -0.1288  0.3588  0.1186
  841BOLB   GL320175   7.321  18.751  22.549 -0.1263 -0.2379 -0.1966
  841BOLB   GL420176   7.450  19.062  22.742  0.1230 -0.0366 -0.1277
  841BOLB   C1C20177   7.499  18.380  22.753 -0.0778 -0.2674  0.1213
  841BOLB   C2C20178   7.481  18.214  23.189 -0.2111 -0.2627 -0.1691
  841BOLB   C3C20179   7.600  18.091  23.557 -0.0230 -0.0117 -0.1556
  841BOLB   C4C20180   7.903  17.718  23.823 -0.1755  0.1697  0.0340
  841BOLB   C1D20181   7.892  19.214  22.724 -0.0937  0.1234  0.1148
  841BOLB   C2D20182   8.232  19.067  23.014  0.1374  0.3346  0.0530
  841BOLB   C3D20183   8.278  18.808  23.411 -0.0829  0.4446  0.0721
  841BOLB   C4D20184   8.638  18.686  23.610 -0.0031  0.1725 -0.1530
  842BOLB   NC120185  17.709  16.488  38.861  0.2713 -0.1570  0.0265
  842BOLB   PO120186  17.850  16.719  38.675 -0.2279 -0.0739  0.1730
  842BOLB   GL120187  17.918  16.953  39.031  0.1039  0.1813 -0.0947
  842BOLB   GL220188  17.749  16.822  39.231  0.0649  0.0495 -0.0637
  842BOLB   C1A20189  18.346  17.039  39.398  0.1520  0.1409 -0.1352
  842BOLB   C2A20190  18.704  16.907  39.590 -0.0788  0.0285 -0.1847
  842BOLB   C3A20191  18.750  16.637  39.871  0.1237 -0.0583  0.1770
  842BOLB   C4A20192  19.135  16.592  39.831  0.2902 -0.1722 -0.1375
  842BOLB   C1B20193  17.929  16.873  39.686  0.1067  0.0816  0.3504
  842BOLB   C2B20194  17.969  16.977  40.139  0.2514  0.1115 -0.4587
  842BOLB   C3B20195  18.364  17.056  40.467 -0.0087  0.0270  0.0081
  842BOLB   C4B20196  18.645  16.788  40.368  0.0809 -0.0359  0.1783
  842BOLB   NC220197  20.540  17.173  42.337 -0.1458  0.0531  0.0684
  842BOLB   PO220198  20.351  16.963  41.958  0.1628  0.1336 -0.0692
  842BOLB   GL320199  20.261  16.778  41.656  0.0607 -0.3130  0.1172
  842BOLB   GL420200  20.518  16.721  41.524  0.3234  0.1620 -0.0123
  842BOLB   C1C20201  20.150  16.881  41.283  0.1408  0.1187  0.0122
  842BOLB   C2C20202  19.886  16.969  40.908 -0.0887  0.0875 -0.1433
  842BOLB   C3C20203  19.677  16.921  40.529  0.2105  0.0153 -0.1635
  842BOLB   C4C20204  19.440  16.783  40.121 -0.0118 -0.2500  0.1091
  842BOLB   C1D20205  20.510  16.424  41.322 -0.0867 -0.1346  0.6344
  842BOLB   C2D20206  20.341  15.987  41.220 -0.1624  0.0778  0.0657
  842BOLB   C3D20207  19.980  15.828  41.025  0.1560  0.0116 -0.2346
  842BOLB   C4D20208  19.639  15.823  40.755  0.2487  0.0312 -0.0125
  843BOLB   NC120209  14.025  13.876  20.723 -0.2503 -0.2107  0.0640
  843BOLB   PO120210  13.602  13.885  20.785  0.3283  0.0962 -0.0712
  843BOLB   GL120211  13.606  13.882  20.324  0.0613  0.0808 -0.1401
  843BOLB   GL220212  14.005  14.042  20.176  0.3240  0.0061  0.0007
  843BOLB   C1A20213  13.347  14.063  19.971 -0.2318 -0.0352  0.0143
  843BOLB   C2A20214  13.065  14.219  19.699 -0.0496  0.1454  0.1780
  843BOLB   C3A20215  12.653  14.158  19.519  0.0949 -0.0311  0.2665
  843BOLB   C4A20216  12.187  14.207  19.508 -0.0107  0.0659 -0.1192
  843BOLB   C1B20217  13.916  13.880  19.776  0.1158  0.4002 -0.0375
  843BOLB   C2B20218  13.552  13.924  19.448  0.1985  0.0326 -0.2214
  843BOLB   C3B20219  13.271  13.935  19.127 -0.1570 -0.0409 -0.2602
  843BOLB   C4B20220  13.059  13.922  18.739 -0.0421 -0.1681  0.0684
  843BOLB   NC220221  11.004  15.703  17.492 -0.4820  0.0523 -0.1418
  843BOLB   PO220222  10.740  15.464  17.751  0.2035 -0.0121 -0.0419
  843BOLB   GL320223  10.989  15.134  17.928  0.1837 -0.0001  0.1019
  843BOLB   GL420224  11.236  15.327  17.903 -0.0392 -0.0042  0.1895
  843BOLB   C1C20225  11.149  15.102  18.327  0.3042 -0.1874  0.1459
  843BOLB   C2C20226  11.312  14.845  18.655  0.1164  0.2535  0.2010
  843BOLB   C3C20227  11.595  14.503  18.908  0.0331  0.2330 -0.0710
  843BOLB   C4C20228  12.052  14.412  19.159 -0.0090 -0.2112  0.0837
  843BOLB   C1D20229  11.763  15.362  17.973 -0.0077  0.2167  0.1033
  843BOLB   C2D20230  12.215  15.391  18.149 -0.2317 -0.0157 -0.2842
  843BOLB   C3D20231  12.608  15.463  18.319  0.1667 -0.1267  0.0396
  843BOLB   C4D20232  12.860  15.245  18.681 -0.0329  0.2591 -0.0749
  844BOLB   NC120233   9.245  18.462  28.458  0.0226  0.0935 -0.0823
  844BOLB   PO120234   9.338  18.663  28.021  0.2999  0.0471 -0.0990
  844BOLB   GL120235   8.954  18.796  27.722 -0.1230 -0.0333  0.0200
  844BOLB   GL220236   8.911  18.668  27.391  0.1215 -0.0414  0.0648
  844BOLB   C1A20237   8.869  19.270  27.595 -0.0517  0.0691  0.3041
  844BOLB   C2A20238   8.719  19.599  27.406  0.1516  0.0025  0.2758
  844BOLB   C3A20239   8.800  19.960  27.531 -0.2087 -0.0467 -0.1836
  844BOLB   C4A20240   8.750  20.337  27.501  0.1326  0.2811  0.1221
  844BOLB   C1B20241   8.843  18.961  27.180 -0.1005 -0.1122 -0.1216
  844BOLB   C2B20242   8.486  19.245  27.115 -0.2486  0.0130 -0.1204
  844BOLB   C3B20243   8.055  19.170  27.238 -0.0609 -0.2006 -0.3347
  844BOLB   C4B20244   7.759  18.898  27.406 -0.1377  0.0968 -0.3008
  844BOLB   NC220245   7.519  22.512  27.082  0.0793 -0.0021 -0.0484
  844BOLB   PO220246   7.337  22.164  26.774 -0.2666 -0.3017  0.1562
  844BOLB   GL320247   7.532  21.889  27.062  0.1466  0.0296 -0.2044
  844BOLB   GL420248   7.780  22.084  27.183 -0.1842  0.0753  0.0735
  844BOLB   C1C20249   7.739  21.493  27.220  0.0583 -0.3542 -0.0680
  844BOLB   C2C20250   8.130  21.245  27.195  0.0947 -0.4204  0.0415
  844BOLB   C3C20251   8.538  21.043  27.208 -0.2633 -0.1230  0.1906
  844BOLB   C4C20252   8.723  20.686  27.446  0.5480  0.2230  0.1647
  844BOLB   C1D20253   8.114  21.808  27.015 -0.2436 -0.1453 -0.1089
  844BOLB   C2D20254   8.460  21.696  27.161 -0.0907  0.2577 -0.1935
  844BOLB   C3D20255   8.707  21.653  27.520  0.0531 -0.1427  0.1504
  844BOLB   C4D20256   8.954  21.194  27.594  0.1513  0.0835 -0.0283
  845BOLB   NC120257  14.852  16.103  38.982 -0.0522 -0.1773  0.1151
  845BOLB   PO120258  15.049  16.449  38.921  0.1049  0.0846 -0.0198
  845BOLB   GL120259  15.063  16.500  39.296 -0.0675  0.2459 -0.1380
  845BOLB   GL220260  15.094  16.241  39.514 -0.1306  0.1641 -0.1836
  845BOLB   C1A20261  15.096  16.737  39.546  0.0694  0.1472 -0.0282
  845BOLB   C2A20262  15.051  16.954  39.909  0.0615  0.3012 -0.0227
  845BOLB   C3A20263  15.122  17.356  40.055 -0.2027 -0.1549 -0.2388
  845BOLB   C4A20264  14.896  17.691  40.447  0.2237 -0.0594  0.1567
  845BOLB   C1B20265  15.125  16.365  39.855  0.0845  0.1539 -0.0723
  845BOLB   C2B20266  14.864  16.559  40.141  0.1907  0.0743 -0.2022
  845BOLB   C3B20267  14.935  16.721  40.474 -0.2057  0.2410 -0.4280
  845BOLB   C4B20268  15.260  16.721  40.744  0.2641  0.0117  0.0346
  845BOLB   NC220269  13.617  19.703  42.037 -0.0730 -0.1166  0.0896
  845BOLB   PO220270  13.572  19.465  41.523  0.1936  0.0448  0.1612
  845BOLB   GL320271  13.791  19.080  41.416 -0.0247 -0.1817 -0.0994
  845BOLB   GL420272  13.685  18.831  41.233  0.2305  0.0867  0.0637
  845BOLB   C1C20273  14.156  18.788  41.315  0.0101  0.0737  0.1791
  845BOLB   C2C20274  14.397  18.458  41.102 -0.0217 -0.1949  0.0749
  845BOLB   C3C20275  14.555  18.390  40.817 -0.3091 -0.2498 -0.1635
  845BOLB   C4C20276  14.889  18.049  40.715 -0.1207  0.1721 -0.0013
  845BOLB   C1D20277  13.895  19.141  40.771 -0.2397 -0.2174  0.2558
  845BOLB   C2D20278  13.764  19.072  40.345  0.3431 -0.2466 -0.0647
  845BOLB   C3D20279  13.683  18.624  40.183  0.2085  0.1662 -0.0893
  845BOLB   C4D20280  13.762  18.195  39.986  0.0984 -0.0719  0.0384
  846BOLB   NC120281  24.448   7.074  19.999  0.2384 -0.0440  0.0589
  846BOLB   PO120282  23.995   6.896  20.071  0.1921 -0.2459 -0.1277
  846BOLB   GL120283  23.867   7.180  20.291  0.0342 -0.0347  0.0775
  846BOLB   GL220284  23.754   7.065  20.532 -0.2909  0.1008 -0.0197
  846BOLB   C1A20285  23.623   7.580  20.363  0.1359 -0.1564  0.0226
  846BOLB   C2A20286  23.559   7.880  20.743 -0.2334  0.2446  0.1816
  846BOLB   C3A20287  23.224   8.091  20.961  0.1592 -0.0395  0.0934
  846BOLB   C4A20288  23.122   8.429  21.248  0.0712 -0.0193  0.1775
  846BOLB   C1B20289  23.340   7.231  20.608  0.2231  0.3995  0.2944
  846BOLB   C2B20290  22.931   7.301  20.730 -0.0038 -0.1895 -0.0353
  846BOLB   C3B20291  22.492   7.352  20.695 -0.0068 -0.3176 -0.0405
  846BOLB   C4B20292  22.139   7.396  20.930 -0.0181  0.1591 -0.0948
  846BOLB   NC220293  24.711   7.529  19.751  0.1728  0.1329 -0.2785
  846BOLB   PO220294  24.434   7.644  19.500  0.3313  0.1228  0.3223
  846BOLB   GL320295  24.290   8.011  19.766  0.0199  0.1689 -0.3580
  846BOLB   GL420296  24.502   7.887  20.058  0.2086  0.0785  0.0328
  846BOLB   C1C20297  23.876   7.992  20.034 -0.0476  0.0514 -0.0630
  846BOLB   C2C20298  23.610   8.233  20.360 -0.3791  0.2299  0.0895
  846BOLB   C3C20299  23.442   8.602  20.609 -0.3555  0.0399 -0.1833
  846BOLB   C4C20300  23.149   8.623  20.932  0.0747 -0.0189 -0.0660
  846BOLB   C1D20301  24.228   8.196  20.284  0.0515 -0.2052 -0.0429
  846BOLB   C2D20302  24.398   8.590  20.568 -0.2834 -0.0280 -0.0722
  846BOLB   C3D20303  24.421   9.080  20.626 -0.1179 -0.0377 -0.0186
  846BOLB   C4D20304  24.439   9.325  21.083  0.0293  0.2963  0.4775
  847BOLB   NC120305  20.862  16.399  28.172 -0.0684  0.0549 -0.3282
  847BOLB   PO120306  20.765  16.585  27.780 -0.0327  0.0613  0.0841
  847BOLB   GL120307  20.933  16.892  27.640 -0.0306  0.0078  0.4224
  847BOLB   GL220308  20.859  17.237  27.712 -0.1233 -0.0739 -0.1476
  847BOLB   C1A20309  21.068  17.159  27.286 -0.1905 -0.4428 -0.0091
  847BOLB   C2A20310  21.377  17.395  26.997  0.3020  0.1456  0.2692
  847BOLB   C3A20311  21.453  17.561  26.684  0.0658  0.1386 -0.0790
  847BOLB   C4A20312  21.780  17.499  26.391 -0.0012 -0.0166  0.0786
  847BOLB   C1B20313  21.308  17.372  27.765  0.5739  0.0766  0.0502
  847BOLB   C2B20314  21.638  17.299  27.422  0.0750 -0.0121 -0.1974
  847BOLB   C3B20315  21.919  17.348  27.113 -0.0190  0.0095  0.3337
  847BOLB   C4B20316  22.079  17.670  26.814  0.1339  0.0878 -0.2043
  847BOLB   NC220317  23.004  19.452  26.166  0.2089  0.1252 -0.0075
  847BOLB   PO220318  23.047  19.401  25.719  0.2081 -0.3581 -0.2885
  847BOLB   GL320319  22.653  19.216  25.882 -0.3167 -0.2124  0.0411
  847BOLB   GL420320  22.342  19.262  26.074 -0.0894 -0.0356 -0.1929
  847BOLB   C1C20321  22.641  18.822  26.092  0.5624  0.1059  0.1093
  847BOLB   C2C20322  22.303  18.569  26.263 -0.1757  0.2345  0.2842
  847BOLB   C3C20323  22.115  18.117  26.227 -0.1730 -0.2002 -0.1980
  847BOLB   C4C20324  22.015  17.747  26.266 -0.0546  0.2365  0.1766
  847BOLB   C1D20325  22.080  19.138  26.267 -0.3996  0.2738  0.1798
  847BOLB   C2D20326  21.812  18.730  26.281 -0.0040 -0.1355  0.1641
  847BOLB   C3D20327  21.802  18.428  26.607 -0.3112 -0.2117  0.0526
  847BOLB   C4D20328  21.727  17.997  26.593 -0.1169 -0.0392 -0.0991
  848BOLB   NC120329  22.754  13.759  35.776 -0.0211  0.0143  0.0188
  848BOLB   PO120330  23.066  13.708  35.502 -0.1438  0.1066  0.0702
  848BOLB   GL120331  23.308  14.068  35.652 -0.3136 -0.2492  0.2119
  848BOLB   GL220332  23.362  13.997  35.973 -0.3002 -0.0452  0.0354
  848BOLB   C1A20333  23.777  14.126  35.551  0.2915 -0.1411  0.1149
  848BOLB   C2A20334  24.043  13.859  35.378  0.2421 -0.1497 -0.1040
  848BOLB   C3A20335  24.331  13.815  35.286 -0.2184  0.0953  0.0003
  848BOLB   C4A20336  24.738  13.872  35.537 -0.1013  0.1738 -0.1425
  848BOLB   C1B20337  23.757  14.248  36.031  0.1011  0.1040 -0.0829
  848BOLB   C2B20338  24.100  14.394  36.287 -0.4036 -0.3173  0.0335
  848BOLB   C3B20339  24.025  14.695  36.681  0.1621 -0.2910 -0.1298
  848BOLB   C4B20340  23.667  14.738  37.020 -0.1765  0.0896  0.0997
  848BOLB   NC220341  26.757  13.606  36.753 -0.2250 -0.1405  0.1141
  848BOLB   PO220342  26.686  13.952  36.608 -0.2582 -0.3036 -0.1539
  848BOLB   GL320343  26.336  13.821  36.460  0.0339 -0.2235  0.0640
  848BOLB   GL420344  26.389  13.531  36.201  0.2500 -0.1805  0.1071
  848BOLB   C1C20345  26.052  13.885  36.281 -0.1322 -0.0662  0.2406
  848BOLB   C2C20346  25.959  14.075  35.817  0.0191  0.0614 -0.1745
  848BOLB   C3C20347  25.548  14.055  35.601  0.0305  0.0486 -0.1867
  848BOLB   C4C20348  25.118  13.969  35.500 -0.1522  0.4496 -0.1944
  848BOLB   C1D20349  26.034  13.367  36.429  0.1174  0.0684  0.2346
  848BOLB   C2D20350  25.644  13.122  36.319 -0.0934  0.0420 -0.3361
  848BOLB   C3D20351  25.232  12.959  36.075 -0.1826 -0.0970  0.0453
  848BOLB   C4D20352  25.210  12.818  35.652  0.0819 -0.0159  0.1185
  849BOLB   NC120353   7.377  12.099  31.768  0.1858 -0.2464 -0.0752
  849BOLB   PO120354   7.471  11.598  31.894  0.4895 -0.2018  0.0447
  849BOLB   GL120355   7.203  11.334  31.934  0.2137 -0.1534  0.0880
  849BOLB   GL220356   7.250  11.126  32.109  0.0173 -0.0246 -0.4043
  849BOLB   C1A20357   6.769  11.134  31.744  0.3192 -0.3714 -0.2828
  849BOLB   C2A20358   6.565  10.737  31.863  0.0987 -0.2574 -0.1836
  849BOLB   C3A20359   6.463  10.331  32.108 -0.3384 -0.1769  0.1115
  849BOLB   C4A20360   6.128  10.421  32.347 -0.0485 -0.0770  0.1366
  849BOLB   C1B20361   6.902  10.860  32.211 -0.1849  0.2732  0.3949
  849BOLB   C2B20362   6.725  10.636  32.345 -0.3820  0.1706 -0.0416
  849BOLB   C3B20363   6.328  10.807  32.505 -0.0551 -0.0232  0.2698
  849BOLB   C4B20364   5.962  10.914  32.335  0.2398  0.0836 -0.0206
  849BOLB   NC220365   3.473  10.494  33.623 -0.1070 -0.1690 -0.3350
  849BOLB   PO220366   3.901  10.504  33.540 -0.1681 -0.2161  0.0150
  849BOLB   GL320367   4.219  10.730  33.348  0.3966  0.1214  0.0149
  849BOLB   GL420368   4.410  10.889  33.535 -0.0771  0.4719  0.0597
  849BOLB   C1C20369   4.570  10.737  32.976  0.0668  0.4818 -0.0310
  849BOLB   C2C20370   4.903  10.765  32.823  0.1085 -0.0047 -0.3836
  849BOLB   C3C20371   5.371  10.624  32.771 -0.5600 -0.0316 -0.0063
  849BOLB   C4C20372   5.791  10.551  32.609 -0.0600 -0.2292 -0.0832
  849BOLB   C1D20373   4.743  10.622  33.477 -0.1223  0.1283 -0.1587
  849BOLB   C2D20374   4.943  10.341  33.168 -0.1759 -0.2396 -0.0451
  849BOLB   C3D20375   5.263  10.274  33.168 -0.1477 -0.1166  0.1200
  849BOLB   C4D20376   5.664  10.337  33.434  0.1049  0.0240  0.2548
  850BOLB   NC120377  14.104   4.348  29.693 -0.1071 -0.0070  0.3862
  850BOLB   PO120378  13.944   4.367  29.375  0.2377  0.2795  0.4490
  850BOLB   GL120379  13.901   4.016  29.190 -0.1633 -0.0970  0.2776
  850BOLB   GL220380  14.171   3.908  28.959 -0.1640  0.2418  0.2461
  850BOLB   C1A20381  13.728   3.626  29.250  0.1311 -0.1591 -0.1111
  850BOLB   C2A20382  13.568   3.252  29.294 -0.0490 -0.4391 -0.2755
  850BOLB   C3A20383  13.512   2.908  29.065 -0.2324 -0.1114  0.1342
  850BOLB   C4A20384  13.204   2.619  28.825  0.0075 -0.0475 -0.2218
  850BOLB   C1B20385  14.205   3.566  29.191 -0.0730  0.0183 -0.3018
  850BOLB   C2B20386  14.440   3.122  29.309 -0.0820  0.0786 -0.0174
  850BOLB   C3B20387  14.291   2.852  29.606  0.1575 -0.3577  0.1513
  850BOLB   C4B20388  14.165   2.563  29.830 -0.0537  0.1328 -0.1287
  850BOLB   NC220389  11.613   0.681  29.010 -0.0393  0.0085 -0.0421
  850BOLB   PO220390  12.048   0.770  29.010  0.2047  0.3078 -0.1663
  850BOLB   GL320391  12.201   1.123  28.991 -0.1238 -0.1129 -0.1567
  850BOLB   GL420392  12.192   1.346  29.278 -0.0521 -0.5179  0.0333
  850BOLB   C1C20393  12.368   1.460  28.810 -0.1019  0.1003  0.0176
  850BOLB   C2C20394  12.643   1.747  28.716  0.1374  0.0621 -0.2565
  850BOLB   C3C20395  12.905   2.081  28.580 -0.2435 -0.3430  0.4618
  850BOLB   C4C20396  13.087   2.454  28.479  0.0306 -0.2198  0.0908
  850BOLB   C1D20397  12.111   1.697  29.211 -0.2176  0.2119 -0.0536
  850BOLB   C2D20398  12.214   2.076  29.119  0.0934  0.0608  0.0980
  850BOLB   C3D20399  12.525   2.355  29.119 -0.2746  0.0970  0.0119
  850BOLB   C4D20400  12.432   2.902  29.077 -0.0609  0.0603  0.1335
  851BOLB   NC120401  12.138  19.809  34.759 -0.1599 -0.4535 -0.2795
  851BOLB   PO120402  12.250  19.842  34.313 -0.2680 -0.1046  0.2359
  851BOLB   GL120403  12.072  20.310  34.386 -0.0670  0.1795  0.3609
  851BOLB   GL220404  12.046  20.304  34.677  0.0570 -0.1016 -0.0961
  851BOLB   C1A20405  11.992  20.781  34.563 -0.1040  0.1134  0.0785
  851BOLB   C2A20406  12.008  21.220  34.622 -0.0083  0.0782  0.0631
  851BOLB   C3A20407  12.138  21.554  34.315  0.1952 -0.0120  0.2254
  851BOLB   C4A20408  12.055  21.984  34.413  0.1683  0.0346  0.2145
  851BOLB   C1B20409  12.128  20.621  35.043 -0.1990 -0.0915  0.2926
  851BOLB   C2B20410  12.094  20.902  35.323  0.1721 -0.1980  0.0356
  851BOLB   C3B20411  11.860  21.207  35.589  0.0833 -0.0204 -0.4482
  851BOLB   C4B20412  11.398  21.383  35.710 -0.0268  0.2639 -0.1350
  851BOLB   NC220413  10.605  23.340  35.737  0.2648  0.2173 -0.0970
  851BOLB   PO220414  10.616  23.542  35.352  0.0993 -0.0461 -0.0066
  851BOLB   GL320415  10.710  23.114  35.316  0.0733 -0.0793 -0.0081
  851BOLB   GL420416  10.650  22.884  35.534 -0.1220  0.0666 -0.2226
  851BOLB   C1C20417  11.079  22.898  35.085 -0.1867  0.6049 -0.2525
  851BOLB   C2C20418  11.193  22.727  34.705  0.2035 -0.0160 -0.0530
  851BOLB   C3C20419  11.389  22.567  34.375 -0.0234 -0.1476 -0.0571
  851BOLB   C4C20420  11.542  22.211  34.370 -0.0822 -0.1098 -0.1840
  851BOLB   C1D20421  10.720  22.548  35.303 -0.0437  0.0776 -0.1625
  851BOLB   C2D20422  10.618  22.041  35.369  0.0920 -0.1043 -0.0905
  851BOLB   C3D20423  10.498  21.711  35.689  0.1827 -0.1452  0.1755
  851BOLB   C4D20424  10.347  21.246  35.760 -0.0908 -0.1943  0.4166
  852BOLB   NC120425  12.883   5.633  26.256  0.0882 -0.1213  0.1656
  852BOLB   PO120426  12.584   5.272  26.219 -0.0243 -0.2696 -0.1080
  852BOLB   GL120427  12.863   5.000  26.151 -0.0463 -0.1881 -0.2273
  852BOLB   GL220428  13.165   4.935  26.105 -0.3727 -0.0469  0.1448
  852BOLB   C1A20429  12.814   4.539  26.002  0.0456 -0.2984 -0.1965
  852BOLB   C2A20430  12.950   4.188  25.685 -0.1932  0.0546  0.0144
  852BOLB   C3A20431  13.043   3.803  25.635  0.1028  0.1579  0.2498
  852BOLB   C4A20432  13.225   3.401  25.698 -0.0694 -0.0593  0.0232
  852BOLB   C1B20433  13.160   4.848  25.685 -0.1400  0.1749 -0.0844
  852BOLB   C2B20434  12.965   4.755  25.298 -0.2364 -0.2892 -0.1000
  852BOLB   C3B20435  12.638   4.524  25.360 -0.2066 -0.0651 -0.2074
  852BOLB   C4B20436  12.353   4.230  25.301 -0.2586  0.2637 -0.0342
  852BOLB   NC220437  11.560   1.408  25.942 -0.0138 -0.2444 -0.1377
  852BOLB   PO220438  11.570   1.810  26.149 -0.2066 -0.0858 -0.1162
  852BOLB   GL320439  11.957   2.034  26.384 -0.1539  0.0261 -0.0286
  852BOLB   GL420440  12.273   1.955  26.420 -0.3022  0.2488 -0.0898
  852BOLB   C1C20441  12.134   2.405  26.195  0.0617 -0.0808  0.0375
  852BOLB   C2C20442  12.316   2.872  26.144 -0.0083  0.2355 -0.2744
  852BOLB   C3C20443  12.728   2.968  26.252  0.3306  0.4028  0.2338
  852BOLB   C4C20444  13.152   3.168  26.075 -0.1410  0.2883 -0.0922
  852BOLB   C1D20445  12.451   2.314  26.603  0.3126 -0.0239  0.0068
  852BOLB   C2D20446  12.602   2.478  27.051 -0.0283 -0.1283 -0.0455
  852BOLB   C3D20447  12.948   2.712  27.301  0.1315  0.0013 -0.2034
  852BOLB   C4D20448  13.297   2.605  27.566 -0.0218  0.1335 -0.0965
  853BOLB   NC120449  16.973  18.028  37.554 -0.0981  0.0870 -0.2014
  853BOLB   PO120450  17.014  18.148  37.120  0.1170  0.0806  0.1442
  853BOLB   GL120451  16.933  18.497  37.485 -0.1547  0.3997 -0.2237
  853BOLB   GL220452  16.843  18.724  37.271 -0.2241 -0.0108 -0.1905
  853BOLB   C1A20453  16.930  18.605  37.919  0.0084 -0.3493 -0.0788
  853BOLB   C2A20454  17.220  18.766  38.177  0.0515 -0.2901 -0.0125
  853BOLB   C3A20455  17.371  19.150  38.408  0.0092  0.0748 -0.0116
  853BOLB   C4A20456  17.416  19.286  38.825  0.1675 -0.1552  0.2215
  853BOLB   C1B20457  16.734  19.047  37.404 -0.1246  0.2604  0.3821
  853BOLB   C2B20458  16.796  19.489  37.646 -0.2289 -0.0466 -0.1175
  853BOLB   C3B20459  16.591  19.861  37.530 -0.4751 -0.0885  0.3474
  853BOLB   C4B20460  16.606  20.304  37.716 -0.1207 -0.1899  0.1511
  853BOLB   NC220461  19.650  20.457  39.928  0.1665  0.3558  0.0404
  853BOLB   PO220462  19.141  20.406  40.082 -0.1038 -0.1750 -0.1810
  853BOLB   GL320463  18.844  20.305  39.729  0.1168 -0.1185  0.0791
  853BOLB   GL420464  18.560  20.256  39.893 -0.2758 -0.2493  0.0228
  853BOLB   C1C20465  18.804  20.005  39.363  0.2214 -0.3761 -0.0861
  853BOLB   C2C20466  18.526  19.707  39.201  0.0692  0.0824  0.0598
  853BOLB   C3C20467  18.120  19.669  39.123  0.2464  0.1524 -0.3945
  853BOLB   C4C20468  17.762  19.402  39.033 -0.1004 -0.1706 -0.0993
  853BOLB   C1D20469  18.684  19.863  39.837 -0.2590  0.0021 -0.0530
  853BOLB   C2D20470  18.926  19.469  39.919 -0.0825  0.1868  0.3769
  853BOLB   C3D20471  18.837  19.020  40.053  0.1180 -0.3529  0.3116
  853BOLB   C4D20472  18.905  18.908  40.450 -0.2540 -0.1854 -0.0882
  854BOLB   NC120473  20.195   5.038  26.603 -0.0295  0.0667  0.4423
  854BOLB   PO120474  19.831   5.103  26.520  0.1224  0.2351  0.2680
  854BOLB   GL120475  19.972   4.651  26.480  0.0421 -0.2116 -0.0777
  854BOLB   GL220476  20.162   4.531  26.662  0.2739  0.1710  0.0663
  854BOLB   C1A20477  20.041   4.331  26.211 -0.0991  0.0357 -0.2657
  854BOLB   C2A20478  20.469   4.192  26.029  0.1431 -0.0957  0.1807
  854BOLB   C3A20479  20.774   3.949  25.900 -0.0020  0.1857  0.1077
  854BOLB   C4A20480  20.761   3.511  26.202  0.0892  0.1291  0.2002
  854BOLB   C1B20481  20.583   4.340  26.516  0.3426 -0.2830 -0.1687
  854BOLB   C2B20482  20.805   3.933  26.527 -0.3183 -0.1846  0.1722
  854BOLB   C3B20483  20.793   3.527  26.720 -0.0912 -0.1894 -0.0071
  854BOLB   C4B20484  20.391   3.310  26.606  0.1843  0.2224  0.3288
  854BOLB   NC220485  21.461   1.160  25.998  0.0364 -0.2877  0.1396
  854BOLB   PO220486  21.140   1.180  26.268 -0.3744 -0.2538 -0.0934
  854BOLB   GL320487  21.005   1.495  26.482  0.2180  0.0367 -0.4073
  854BOLB   GL420488  20.740   1.394  26.788 -0.2722  0.1888  0.0555
  854BOLB   C1C20489  20.722   1.937  26.505 -0.0689 -0.1743 -0.0661
  854BOLB   C2C20490  20.719   2.318  26.175 -0.1060 -0.1315  0.1149
  854BOLB   C3C20491  20.808   2.753  26.178 -0.1630 -0.0441  0.0428
  854BOLB   C4C20492  20.840   3.167  26.410 -0.6426 -0.1213 -0.0609
  854BOLB   C1D20493  20.514   1.756  26.925 -0.4279 -0.3858  0.0901
  854BOLB   C2D20494  20.311   1.996  27.039 -0.1671  0.1991  0.0787
  854BOLB   C3D20495  20.399   2.439  27.238 -0.0167  0.1644  0.3231
  854BOLB   C4D20496  20.596   2.831  27.248  0.1510 -0.1925 -0.0623
  855BOLB   NC120497  12.900   5.259  34.396 -0.0157 -0.1911 -0.2283
  855BOLB   PO120498  12.841   5.194  33.975  0.0735 -0.1349 -0.2898
  855BOLB   GL120499  12.871   4.836  33.770 -0.2442 -0.1825 -0.3670
  855BOLB   GL220500  13.128   4.572  33.613  0.2486 -0.0866 -0.2943
  855BOLB   C1A20501  12.582   4.402  33.690  0.1305 -0.0082 -0.3557
  855BOLB   C2A20502  12.247   4.137  33.680  0.2079 -0.1207  0.0034
  855BOLB   C3A20503  11.891   3.983  33.821 -0.1349  0.0947 -0.0766
  855BOLB   C4A20504  11.606   3.778  34.029 -0.4339 -0.1087 -0.1005
  855BOLB   C1B20505  13.087   4.127  33.775 -0.1937 -0.0502 -0.0502
  855BOLB   C2B20506  13.047   3.687  34.010  0.0876 -0.2868  0.0639
  855BOLB   C3B20507  12.981   3.284  33.901  0.0495 -0.0891 -0.4846
  855BOLB   C4B20508  12.529   2.995  33.875  0.1461  0.3238 -0.2612
  855BOLB   NC220509   9.934   2.176  34.270  0.2884 -0.2562 -0.1143
  855BOLB   PO220510   9.786   2.470  34.011  0.4085  0.3566  0.0617
  855BOLB   GL320511  10.000   2.736  33.841 -0.1868  0.3095 -0.1862
  855BOLB   GL420512  10.236   2.652  34.118 -0.0212 -0.0652  0.1036
  855BOLB   C1C20513  10.522   2.714  33.672  0.1535  0.2719  0.3112
  855BOLB   C2C20514  10.759   3.073  33.585 -0.0709 -0.1210  0.0386
  855BOLB   C3C20515  11.103   3.096  33.881  0.1673 -0.2219 -0.0641
  855BOLB   C4C20516  11.329   3.433  34.007 -0.2841  0.2343 -0.2019
  855BOLB   C1D20517  10.673   2.947  34.097 -0.1440 -0.2143 -0.4040
  855BOLB   C2D20518  10.994   3.285  34.325 -0.4966  0.3198 -0.1626
  855BOLB   C3D20519  11.159   3.609  34.471  0.0226  0.1140 -0.1356
  855BOLB   C4D20520  11.581   3.893  34.527 -0.2243  0.0493  0.0283
  856BOLB   NC120521   9.487  11.523  24.543 -0.1322 -0.2642  0.1334
  856BOLB   PO120522   9.452  11.874  24.292 -0.0062  0.1398  0.0725
  856BOLB   GL120523   9.271  11.610  23.994 -0.1350 -0.0760 -0.2054
  856BOLB   GL220524   9.331  11.285  24.147  0.1200  0.1059  0.1565
  856BOLB   C1A20525   8.895  11.572  23.679  0.2986  0.0357 -0.2335
  856BOLB   C2A20526   8.442  11.435  23.524 -0.0622 -0.0449 -0.0162
  856BOLB   C3A20527   7.910  11.560  23.668  0.0534 -0.0007  0.1695
  856BOLB   C4A20528   7.585  11.428  24.032  0.2859  0.1958 -0.0724
  856BOLB   C1B20529   8.907  11.146  24.049 -0.0616 -0.1676  0.0117
  856BOLB   C2B20530   8.523  11.038  23.822 -0.1636  0.0898  0.1732
  856BOLB   C3B20531   8.467  10.977  23.345  0.0743 -0.3940  0.0830
  856BOLB   C4B20532   8.270  11.334  23.101  0.1683  0.0789  0.2758
  856BOLB   NC220533   6.205  10.376  22.366  0.0029 -0.4176  0.4605
  856BOLB   PO220534   6.116  10.617  22.720  0.2594  0.0598  0.1229
  856BOLB   GL320535   6.212  10.719  23.131 -0.2465 -0.0914 -0.0187
  856BOLB   GL420536   5.971  10.805  23.294  0.0526  0.0584  0.0805
  856BOLB   C1C20537   6.564  10.608  23.401 -0.0973 -0.0597 -0.2178
  856BOLB   C2C20538   6.830  10.787  23.534 -0.1428 -0.2901  0.1382
  856BOLB   C3C20539   7.128  11.072  23.648  0.2162  0.2236 -0.0383
  856BOLB   C4C20540   7.271  11.406  23.821  0.0090  0.1467 -0.0214
  856BOLB   C1D20541   6.337  10.985  23.584 -0.0233 -0.2869 -0.5343
  856BOLB   C2D20542   6.674  11.046  23.912  0.0077  0.0468  0.4067
  856BOLB   C3D20543   7.024  11.037  24.177  0.0961 -0.1416 -0.0288
  856BOLB   C4D20544   7.409  10.712  24.463  0.4954 -0.1101  0.2543
  857BOLB   NC120545  12.350  20.719  26.336 -0.1964  0.0557 -0.0316
  857BOLB   PO120546  12.701  20.777  26.127  0.3263 -0.0165  0.0300
  857BOLB   GL120547  12.339  21.028  25.913 -0.0641 -0.1435 -0.0269
  857BOLB   GL220548  12.509  21.240  25.695  0.1290  0.0509  0.0665
  857BOLB   C1A20549  12.020  21.229  25.534  0.2689 -0.0214 -0.1493
  857BOLB   C2A20550  11.863  21.747  25.520  0.3311 -0.0521  0.0263
  857BOLB   C3A20551  11.518  22.073  25.542  0.2409 -0.0096 -0.0268
  857BOLB   C4A20552  11.317  22.354  25.414  0.3503 -0.2024  0.0887
  857BOLB   C1B20553  12.670  21.588  25.493  0.0310 -0.0594 -0.0213
  857BOLB   C2B20554  12.537  21.902  25.149  0.0197 -0.0103  0.3093
  857BOLB   C3B20555  12.137  22.047  25.121  0.2839 -0.0453  0.2661
  857BOLB   C4B20556  12.054  22.517  25.130  0.2031  0.1213 -0.3811
  857BOLB   NC220557   9.474  23.969  24.236  0.3105  0.3700 -0.1280
  857BOLB   PO220558   9.662  23.662  24.319  0.0197 -0.3794 -0.1673
  857BOLB   GL320559   9.888  23.302  24.351 -0.0085 -0.0193 -0.2154
  857BOLB   GL420560  10.108  23.353  24.598 -0.0817 -0.0314 -0.4540
  857BOLB   C1C20561   9.934  22.914  24.655 -0.0930  0.1749 -0.0445
  857BOLB   C2C20562  10.321  22.775  24.867  0.0376 -0.2318  0.3764
  857BOLB   C3C20563  10.701  22.528  24.932  0.1903 -0.4672 -0.1018
  857BOLB   C4C20564  11.114  22.485  25.048 -0.5531 -0.2019 -0.1826
  857BOLB   C1D20565  10.402  23.074  24.432 -0.4929  0.2724 -0.2168
  857BOLB   C2D20566  10.817  23.150  24.364  0.1143 -0.1107  0.0634
  857BOLB   C3D20567  11.124  22.990  24.180  0.3721  0.1974  0.0971
  857BOLB   C4D20568  11.492  22.769  23.935  0.0315  0.0412  0.0950
  858BOLB   NC120569  11.354  15.344  21.823 -0.0451  0.2249 -0.4205
  858BOLB   PO120570  11.233  14.917  22.126 -0.0406 -0.2307  0.0245
  858BOLB   GL120571  11.001  15.041  21.754 -0.1434 -0.0098 -0.0160
  858BOLB   GL220572  10.753  15.212  21.692 -0.0526  0.0566  0.4788
  858BOLB   C1A20573  10.774  14.963  21.269 -0.2008 -0.0030  0.0623
  858BOLB   C2A20574  10.440  15.225  21.210 -0.0001  0.0222  0.0013
  858BOLB   C3A20575  10.278  15.484  20.968  0.3319 -0.3668  0.0578
  858BOLB   C4A20576  10.231  15.843  20.676  0.1867  0.2453  0.2425
  858BOLB   C1B20577  10.582  15.669  21.613 -0.0974  0.0155 -0.4412
  858BOLB   C2B20578  10.120  15.778  21.466  0.0037  0.0720  0.1767
  858BOLB   C3B20579   9.896  15.781  21.118  0.3053 -0.3417  0.1032
  858BOLB   C4B20580   9.646  15.772  20.763  0.0429 -0.0827  0.2688
  858BOLB   NC220581   7.811  17.399  19.823  0.1603 -0.1614  0.0788
  858BOLB   PO220582   8.219  17.423  19.950 -0.2288  0.2821 -0.0563
  858BOLB   GL320583   8.508  17.263  20.313 -0.0426  0.1181  0.1250
  858BOLB   GL420584   8.745  17.479  20.587 -0.0095  0.1983  0.2971
  858BOLB   C1C20585   8.945  17.066  20.248 -0.1011  0.1344  0.1746
  858BOLB   C2C20586   9.246  16.830  20.256 -0.2006 -0.3965 -0.1524
  858BOLB   C3C20587   9.498  16.424  20.381  0.1375 -0.2471 -0.1048
  858BOLB   C4C20588   9.919  16.247  20.561 -0.0349  0.0345  0.0701
  858BOLB   C1D20589   9.139  17.267  20.917  0.0299  0.0643 -0.0617
  858BOLB   C2D20590   9.310  16.946  21.247 -0.0421  0.1071 -0.3401
  858BOLB   C3D20591   9.552  16.502  21.454 -0.0979  0.1695 -0.1687
  858BOLB   C4D20592   9.875  16.349  21.773  0.0093  0.3558  0.3138
  859BOLB   NC120593   9.984   2.991  24.104 -0.0341  0.1446  0.1320
  859BOLB   PO120594  10.169   3.202  23.847 -0.0400  0.1352  0.2173
  859BOLB   GL120595  10.104   3.520  24.105 -0.2771  0.2144 -0.0216
  859BOLB   GL220596  10.147   3.503  24.421  0.0465 -0.2136 -0.1625
  859BOLB   C1A20597  10.309   3.966  24.248 -0.1377  0.1567  0.1602
  859BOLB   C2A20598  10.181   4.028  24.622  0.4834  0.0415 -0.0401
  859BOLB   C3A20599   9.867   4.229  24.889 -0.1024 -0.0028  0.0260
  859BOLB   C4A20600   9.547   4.242  25.157  0.0462  0.1612 -0.0941
  859BOLB   C1B20601   9.823   3.726  24.716 -0.0428  0.0402  0.2883
  859BOLB   C2B20602   9.934   3.834  25.187  0.1455 -0.1403  0.0227
  859BOLB   C3B20603  10.113   4.184  25.340  0.0561 -0.3016 -0.0149
  859BOLB   C4B20604  10.266   4.574  25.492 -0.1985  0.0023  0.0819
  859BOLB   NC220605   8.503   3.265  25.864 -0.0609 -0.3458 -0.1085
  859BOLB   PO220606   8.267   3.570  26.168 -0.0270 -0.2448 -0.0247
  859BOLB   GL320607   8.427   3.843  26.413  0.1935  0.1570 -0.0512
  859BOLB   GL420608   8.213   3.935  26.643 -0.1401  0.2894  0.0842
  859BOLB   C1C20609   8.653   4.146  26.356 -0.2260 -0.2153  0.0140
  859BOLB   C2C20610   8.806   4.290  25.982 -0.3018  0.1005  0.1242
  859BOLB   C3C20611   9.023   4.088  25.706 -0.1409  0.0491 -0.1700
  859BOLB   C4C20612   9.284   4.168  25.445 -0.2751  0.2925  0.1670
  859BOLB   C1D20613   8.536   4.098  26.834  0.0331  0.0952 -0.0264
  859BOLB   C2D20614   8.754   4.350  27.059  0.1875 -0.3555 -0.1132
  859BOLB   C3D20615   9.098   4.695  26.969  0.2681 -0.0394  0.1781
  859BOLB   C4D20616   9.130   5.154  27.101  0.3040 -0.1332  0.3429
  860BOLB   NC120617  21.283  17.510  34.260  0.0412 -0.2602  0.0260
  860BOLB   PO120618  21.283  17.678  33.867  0.2098 -0.1762  0.1979
  860BOLB   GL120619  21.655  17.837  33.952 -0.0860  0.2243  0.1994
  860BOLB   GL220620  21.913  17.813  33.615  0.2784  0.2304 -0.1524
  860BOLB   C1A20621  21.948  18.111  34.091 -0.2856 -0.0417  0.0789
  860BOLB   C2A20622  22.349  18.417  34.233 -0.0771 -0.2690 -0.0569
  860BOLB   C3A20623  22.667  18.723  34.469 -0.3109  0.2047 -0.3101
  860BOLB   C4A20624  22.906  19.083  34.616 -0.3047 -0.4096 -0.0408
  860BOLB   C1B20625  22.211  17.759  33.337  0.0677  0.3292 -0.3298
  860BOLB   C2B20626  22.582  17.852  33.056  0.0590  0.1337 -0.4802
  860BOLB   C3B20627  22.918  17.717  33.019 -0.1869  0.1855 -0.0040
  860BOLB   C4B20628  23.164  17.644  32.711 -0.0446 -0.3357  0.1767
  860BOLB   NC220629  24.573  19.852  35.139 -0.1576 -0.1820 -0.0632
  860BOLB   PO220630  24.431  19.877  35.592  0.0739  0.1826 -0.2357
  860BOLB   GL320631  24.216  19.600  35.513 -0.2147 -0.0032  0.1924
  860BOLB   GL420632  23.953  19.406  35.799  0.3868  0.0328 -0.4764
  860BOLB   C1C20633  23.755  19.634  35.428 -0.1837  0.1267  0.0463
  860BOLB   C2C20634  23.308  19.716  35.527  0.0193  0.2700 -0.1805
  860BOLB   C3C20635  23.080  19.583  35.233  0.1289 -0.1142  0.0424
  860BOLB   C4C20636  22.996  19.246  34.969  0.1506  0.0993 -0.3862
  860BOLB   C1D20637  23.886  19.160  35.415  0.0643  0.1320  0.1638
  860BOLB   C2D20638  23.906  18.768  35.277  0.0529  0.0492  0.1561
  860BOLB   C3D20639  23.645  18.430  35.076 -0.2312 -0.0400  0.1417
  860BOLB   C4D20640  23.323  18.101  34.926 -0.2020 -0.3088  0.1557
  861BOLB   NC120641  13.762   7.541  37.662 -0.2559 -0.4006  0.1834
  861BOLB   PO120642  13.931   7.185  37.320 -0.0368 -0.1712  0.0596
  861BOLB   GL120643  14.072   6.697  37.431 -0.0674  0.1592  0.0092
  861BOLB   GL220644  13.960   6.428  37.192  0.0011  0.1912 -0.2183
  861BOLB   C1A20645  13.983   6.317  37.682 -0.0005 -0.2964 -0.0952
  861BOLB   C2A20646  13.922   5.919  37.799  0.0148 -0.3450 -0.1322
  861BOLB   C3A20647  13.783   5.604  38.044  0.0683  0.1329 -0.2101
  861BOLB   C4A20648  13.738   5.226  38.306  0.1100  0.1768 -0.4484
  861BOLB   C1B20649  14.122   5.965  37.213 -0.1171  0.2783  0.1395
  861BOLB   C2B20650  13.929   5.570  37.313 -0.0583  0.0985  0.1259
  861BOLB   C3B20651  13.636   5.252  37.361 -0.1729 -0.2405 -0.1822
  861BOLB   C4B20652  13.416   4.843  37.448  0.2679 -0.1362 -0.1685
  861BOLB   NC220653  12.699   3.546  39.587 -0.0236  0.3742 -0.3051
  861BOLB   PO220654  12.398   3.823  39.357  0.3736  0.3766 -0.3474
  861BOLB   GL320655  12.579   3.886  39.011 -0.1474 -0.2223  0.0984
  861BOLB   GL420656  12.603   3.562  38.819 -0.0713  0.0484  0.0660
  861BOLB   C1C20657  12.691   4.069  38.621  0.0266 -0.0964  0.1928
  861BOLB   C2C20658  13.064   4.382  38.561 -0.3714  0.0125  0.1233
  861BOLB   C3C20659  13.525   4.447  38.290  0.1313  0.1164 -0.1608
  861BOLB   C4C20660  13.712   4.866  38.322 -0.0857 -0.1772  0.0079
  861BOLB   C1D20661  13.093   3.742  38.748 -0.3275 -0.2350  0.1114
  861BOLB   C2D20662  13.484   3.623  38.591  0.0742 -0.1749 -0.2308
  861BOLB   C3D20663  13.351   3.508  38.143  0.3118  0.0020 -0.0170
  861BOLB   C4D20664  13.114   3.560  37.811  0.4704  0.0276 -0.1226
  862BOLB   NC120665  14.260  20.403  25.209 -0.0766  0.1507  0.0196
  862BOLB   PO120666  14.030  20.519  24.905 -0.2342  0.1822  0.1673
  862BOLB   GL120667  14.129  20.843  24.791 -0.0522  0.1410 -0.0979
  862BOLB   GL220668  13.937  20.792  24.467 -0.4481  0.1994  0.3324
  862BOLB   C1A20669  14.067  21.242  24.787  0.2201 -0.2106  0.2593
  862BOLB   C2A20670  14.053  21.481  24.433 -0.2890  0.1786  0.0059
  862BOLB   C3A20671  13.840  21.755  24.119  0.0692  0.0263 -0.3316
  862BOLB   C4A20672  13.838  21.901  23.687  0.1233  0.1562  0.2483
  862BOLB   C1B20673  13.618  21.175  24.459  0.1781  0.0809 -0.2146
  862BOLB   C2B20674  13.341  21.382  24.222  0.1699  0.1070 -0.3866
  862BOLB   C3B20675  12.931  21.299  24.105  0.0428  0.0526  0.1480
  862BOLB   C4B20676  12.673  21.189  23.763  0.0563 -0.3116  0.1679
  862BOLB   NC220677  13.760  24.341  23.799  0.0740 -0.1645  0.0740
  862BOLB   PO220678  13.950  24.264  23.380 -0.0637 -0.0567  0.1279
  862BOLB   GL320679  14.164  23.884  23.320  0.1065  0.0276 -0.1567
  862BOLB   GL420680  14.466  23.877  23.351  0.2334  0.0264  0.2377
  862BOLB   C1C20681  14.176  23.428  23.328  0.0714  0.0121 -0.0951
  862BOLB   C2C20682  13.997  22.966  23.127  0.0973  0.0355 -0.1345
  862BOLB   C3C20683  14.113  22.579  23.373  0.1351 -0.4140 -0.3096
  862BOLB   C4C20684  13.804  22.378  23.579 -0.5923 -0.0201  0.1063
  862BOLB   C1D20685  14.842  23.580  23.464  0.0310  0.1903  0.4548
  862BOLB   C2D20686  15.094  23.324  23.708  0.1099 -0.0141 -0.0337
  862BOLB   C3D20687  15.326  23.014  23.963  0.0355 -0.1032  0.2806
  862BOLB   C4D20688  15.474  22.644  23.803  0.0143  0.2591  0.0534
  863BOLB   NC120689  10.506   9.201  25.045  0.1350  0.1274 -0.0270
  863BOLB   PO120690  10.724   9.129  24.623 -0.4686  0.0323 -0.1370
  863BOLB   GL120691  10.393   9.096  24.222  0.0265 -0.1250 -0.2535
  863BOLB   GL220692  10.127   9.265  24.243  0.2087 -0.1274 -0.1841
  863BOLB   C1A20693  10.171   8.851  23.800  0.0482  0.0381 -0.2587
  863BOLB   C2A20694  10.059   8.634  23.481  0.0333  0.0339  0.2447
  863BOLB   C3A20695   9.677   8.727  23.342 -0.0229  0.1211 -0.0441
  863BOLB   C4A20696   9.321   8.270  23.200  0.3566 -0.0033  0.1224
  863BOLB   C1B20697   9.705   9.381  24.114 -0.1633  0.3392 -0.2502
  863BOLB   C2B20698   9.278   9.394  24.069  0.2806 -0.1059 -0.2467
  863BOLB   C3B20699   8.901   9.360  23.993  0.2037  0.0828 -0.2041
  863BOLB   C4B20700   8.512   9.370  24.016 -0.0816  0.0033 -0.3238
  863BOLB   NC220701   7.684   6.846  21.413 -0.0758 -0.0770  0.2568
  863BOLB   PO220702   7.852   7.080  21.748 -0.0706 -0.1254 -0.0281
  863BOLB   GL320703   8.246   7.308  21.692 -0.0632 -0.0806  0.2247
  863BOLB   GL420704   8.477   7.054  21.711 -0.1587  0.1760  0.2724
  863BOLB   C1C20705   8.620   7.550  21.840  0.0137 -0.1042 -0.0746
  863BOLB   C2C20706   8.755   7.585  22.351 -0.0314  0.2184 -0.1050
  863BOLB   C3C20707   9.043   7.648  22.679 -0.4325  0.1171  0.1831
  863BOLB   C4C20708   9.193   7.894  23.046  0.1198 -0.1497  0.1741
  863BOLB   C1D20709   8.847   7.000  21.793  0.3639  0.1258  0.0428
  863BOLB   C2D20710   9.081   7.309  21.946  0.0691 -0.0129 -0.1486
  863BOLB   C3D20711   9.368   7.455  22.257  0.2357  0.1557 -0.2719
  863BOLB   C4D20712   9.605   7.822  22.169 -0.0040  0.1492 -0.3300
  864BOLB   NC120713  20.167  17.799  34.588 -0.0659 -0.0462 -0.0843
  864BOLB   PO120714  20.313  18.073  34.878  0.0416 -0.2840  0.1872
  864BOLB   GL120715  20.720  18.171  34.995 -0.1907 -0.1912  0.2521
  864BOLB   GL220716  20.738  18.380  34.791 -0.0062 -0.1159  0.1645
  864BOLB   C1A20717  21.089  18.290  35.181  0.0660  0.1578 -0.1807
  864BOLB   C2A20718  21.350  18.647  35.213 -0.2022  0.3509  0.1882
  864BOLB   C3A20719  21.662  18.878  35.342  0.3869  0.1943 -0.0746
  864BOLB   C4A20720  21.562  19.310  35.517 -0.1365  0.0560 -0.0003
  864BOLB   C1B20721  21.182  18.523  34.752  0.3336 -0.1237 -0.1167
  864BOLB   C2B20722  21.520  18.807  34.693 -0.1433  0.1452 -0.0508
  864BOLB   C3B20723  21.778  19.149  34.881  0.1144  0.2409 -0.0037
  864BOLB   C4B20724  21.999  19.310  35.124  0.2894  0.0057 -0.1737
  864BOLB   NC220725  22.716  21.114  35.678  0.1777  0.2330  0.1055
  864BOLB   PO220726  22.598  21.412  35.285 -0.0444  0.2265  0.3133
  864BOLB   GL320727  22.342  21.167  35.183  0.1729  0.1290 -0.3341
  864BOLB   GL420728  22.122  21.182  35.018  0.1240  0.1613  0.3496
  864BOLB   C1C20729  22.112  20.803  35.374 -0.0848  0.0193  0.3366
  864BOLB   C2C20730  22.055  20.427  35.714 -0.3445  0.1854 -0.2629
  864BOLB   C3C20731  21.809  20.100  35.595  0.0850 -0.0908  0.2505
  864BOLB   C4C20732  21.572  19.688  35.608  0.0838 -0.1938 -0.2691
  864BOLB   C1D20733  21.780  21.130  34.893 -0.1554  0.0258  0.4058
  864BOLB   C2D20734  21.714  20.989  34.567 -0.0187 -0.0978  0.1055
  864BOLB   C3D20735  21.519  20.637  34.306 -0.0008 -0.1614 -0.0933
  864BOLB   C4D20736  21.627  20.289  34.498  0.0288 -0.0481 -0.0235
  865BOLB   NC120737  11.665  20.358  31.174  0.3505 -0.1395  0.0107
  865BOLB   PO120738  11.392  20.641  30.979  0.1150  0.0798  0.2436
  865BOLB   GL120739  11.247  21.043  31.026  0.1744 -0.1451 -0.3975
  865BOLB   GL220740  11.168  21.060  31.237  0.0182  0.1509 -0.1339
  865BOLB   C1A20741  11.204  21.547  30.923  0.1804  0.3278 -0.0499
  865BOLB   C2A20742  11.040  21.990  30.890 -0.1330 -0.0764  0.1867
  865BOLB   C3A20743  11.249  22.364  31.109 -0.0158  0.1344  0.2617
  865BOLB   C4A20744  11.381  22.603  31.379  0.4362  0.1895  0.1951
  865BOLB   C1B20745  11.306  21.295  31.516 -0.1078 -0.2786  0.1091
  865BOLB   C2B20746  11.166  21.730  31.766 -0.0194 -0.0843  0.5438
  865BOLB   C3B20747  11.449  21.976  31.915 -0.3440 -0.0325 -0.2088
  865BOLB   C4B20748  11.815  21.976  31.788  0.0302 -0.0100  0.1537
  865BOLB   NC220749  11.199  24.999  30.460 -0.2313 -0.1579  0.1447
  865BOLB   PO220750  11.551  24.983  30.810  0.0628 -0.0375  0.3233
  865BOLB   GL320751  11.458  24.665  30.847 -0.0166  0.1655  0.1286
  865BOLB   GL420752  11.542  24.572  30.507 -0.1881 -0.0750  0.2031
  865BOLB   C1C20753  11.499  24.322  31.142 -0.1601 -0.0564 -0.0124
  865BOLB   C2C20754  11.385  23.814  31.094 -0.1434 -0.3008 -0.1922
  865BOLB   C3C20755  11.142  23.456  31.272 -0.0896 -0.1799  0.0439
  865BOLB   C4C20756  11.217  23.111  31.463 -0.1513  0.0824  0.1303
  865BOLB   C1D20757  11.931  24.457  30.697 -0.0362  0.0128  0.2348
  865BOLB   C2D20758  12.259  24.204  30.930  0.1106 -0.1255 -0.0435
  865BOLB   C3D20759  12.469  23.894  31.215 -0.2756 -0.2836  0.0235
  865BOLB   C4D20760  12.347  23.531  31.253 -0.0496 -0.1076 -0.0312
  866BOLB   NC120761  21.741   6.102  29.261  0.1168 -0.2295 -0.3756
  866BOLB   PO120762  21.492   6.038  29.616  0.0493 -0.1471 -0.2920
  866BOLB   GL120763  21.769   5.683  29.615  0.2020  0.1457  0.2007
  866BOLB   GL220764  21.612   5.426  29.535  0.0645  0.2831  0.2419
  866BOLB   C1A20765  22.184   5.484  29.702 -0.1019  0.2038 -0.1025
  866BOLB   C2A20766  22.462   5.170  29.503 -0.0574 -0.0418  0.1547
  866BOLB   C3A20767  22.717   4.881  29.429  0.0572 -0.1094 -0.0122
  866BOLB   C4A20768  22.598   4.482  29.156 -0.1250  0.0610 -0.1793
  866BOLB   C1B20769  21.810   5.177  29.852 -0.0001 -0.2351  0.0305
  866BOLB   C2B20770  22.112   4.882  29.855  0.2835 -0.1562  0.0906
  866BOLB   C3B20771  22.400   4.782  29.857  0.2057  0.0581 -0.1201
  866BOLB   C4B20772  22.632   4.482  29.684  0.2604  0.0918 -0.2464
  866BOLB   NC220773  24.375   3.049  30.202 -0.0316 -0.0008 -0.1154
  866BOLB   PO220774  24.477   2.876  29.842 -0.1765  0.2023  0.0248
  866BOLB   GL320775  24.148   3.127  29.690 -0.2950  0.0479 -0.0789
  866BOLB   GL420776  24.035   3.212  29.915  0.0159 -0.0063  0.1038
  866BOLB   C1C20777  23.862   3.287  29.431 -0.2527 -0.3298 -0.1894
  866BOLB   C2C20778  23.499   3.589  29.295  0.2451 -0.1829  0.2609
  866BOLB   C3C20779  23.050   3.758  29.187 -0.0068  0.1398 -0.0142
  866BOLB   C4C20780  22.678   4.016  29.053  0.0868 -0.1211  0.2399
  866BOLB   C1D20781  23.587   3.159  29.929 -0.1840  0.1273  0.5299
  866BOLB   C2D20782  23.184   3.451  29.891  0.3089 -0.0257  0.0830
  866BOLB   C3D20783  22.872   3.748  29.888 -0.0587  0.1519 -0.0047
  866BOLB   C4D20784  22.511   3.903  30.122 -0.1687  0.0900  0.0201
  867BOLB   NC120785  18.578   4.515  32.032 -0.2103  0.0435 -0.2227
  867BOLB   PO120786  18.494   4.573  31.585 -0.2497  0.1127 -0.4132
  867BOLB   GL120787  18.613   4.126  31.680 -0.0447 -0.2156  0.2260
  867BOLB   GL220788  18.469   3.935  31.531 -0.5026 -0.1265 -0.0560
  867BOLB   C1A20789  18.485   3.891  32.013 -0.1951 -0.0594 -0.0226
  867BOLB   C2A20790  18.705   3.724  32.393 -0.2796  0.3145 -0.1194
  867BOLB   C3A20791  18.731   3.240  32.494 -0.0513  0.2957 -0.0134
  867BOLB   C4A20792  18.741   2.854  32.650 -0.5157  0.1570  0.4332
  867BOLB   C1B20793  18.522   3.469  31.432 -0.4315  0.1118 -0.0502
  867BOLB   C2B20794  18.454   3.049  31.455 -0.3196  0.2152 -0.0337
  867BOLB   C3B20795  18.372   2.875  31.811 -0.1215 -0.3399 -0.0861
  867BOLB   C4B20796  18.492   2.858  32.234 -0.2176  0.0675 -0.0648
  867BOLB   NC220797  19.402   0.693  33.409  0.0730  0.0931  0.2834
  867BOLB   PO220798  19.748   0.948  33.492 -0.0537  0.4367  0.3634
  867BOLB   GL320799  19.467   1.261  33.406  0.0929  0.0724  0.2589
  867BOLB   GL420800  19.232   1.282  33.579 -0.1414  0.0870 -0.0245
  867BOLB   C1C20801  19.628   1.693  33.387  0.0918  0.2935  0.2657
  867BOLB   C2C20802  19.504   1.967  33.152 -0.1809 -0.0964  0.0623
  867BOLB   C3C20803  19.252   2.078  32.844  0.1171 -0.2026  0.0992
  867BOLB   C4C20804  18.892   2.461  32.923  0.2416 -0.0002  0.1370
  867BOLB   C1D20805  18.847   1.311  33.242 -0.0752 -0.1107 -0.2670
  867BOLB   C2D20806  18.670   1.422  32.821  0.3312 -0.1136  0.0281
  867BOLB   C3D20807  18.296   1.740  32.794  0.1354 -0.1748 -0.0715
  867BOLB   C4D20808  17.872   1.535  32.744 -0.2134  0.1585 -0.2944
  868BOLB   NC120809  14.079  20.469  34.152  0.2760 -0.1066  0.1084
  868BOLB   PO120810  14.347  20.483  34.507 -0.2752 -0.0741 -0.2093
  868BOLB   GL120811  14.432  20.881  34.294 -0.1192  0.0806  0.0606
  868BOLB   GL220812  14.391  21.051  34.626  0.2930 -0.3445 -0.1079
  868BOLB   C1A20813  14.606  21.299  34.193  0.0456  0.0674  0.2032
  868BOLB   C2A20814  14.566  21.789  34.355  0.1322  0.0594  0.0824
  868BOLB   C3A20815  14.534  22.169  34.578 -0.0058  0.0459 -0.1412
  868BOLB   C4A20816  14.553  22.502  34.941 -0.1556  0.2405 -0.1426
  868BOLB   C1B20817  14.502  21.348  34.805 -0.1946  0.2040 -0.1193
  868BOLB   C2B20818  14.309  21.489  35.197 -0.4331 -0.0773 -0.0927
  868BOLB   C3B20819  14.071  21.722  35.367 -0.0161 -0.2067 -0.2892
  868BOLB   C4B20820  13.992  21.975  35.640  0.1555  0.2231 -0.2367
  868BOLB   NC220821  15.284  24.571  36.450  0.0144 -0.0041  0.1196
  868BOLB   PO220822  14.831  24.665  36.368 -0.1020 -0.0494  0.1355
  868BOLB   GL320823  14.510  24.242  36.236 -0.0082  0.1387 -0.0196
  868BOLB   GL420824  14.541  24.141  35.914 -0.0779 -0.1751 -0.1179
  868BOLB   C1C20825  14.318  23.707  36.101  0.0037  0.1101 -0.1256
  868BOLB   C2C20826  14.240  23.446  35.890 -0.1677  0.2264  0.0021
  868BOLB   C3C20827  14.362  23.090  35.627  0.1892 -0.1790  0.0301
  868BOLB   C4C20828  14.538  22.870  35.352 -0.0694 -0.1223  0.1343
  868BOLB   C1D20829  14.712  23.631  35.817  0.0946  0.0057  0.0108
  868BOLB   C2D20830  14.825  23.281  35.494 -0.1049  0.0849 -0.1589
  868BOLB   C3D20831  14.966  23.237  35.105  0.6880  0.2326 -0.0960
  868BOLB   C4D20832  14.888  22.896  34.805  0.2858 -0.1987 -0.1861
  869BOLB   NC120833  17.776   5.774  23.902 -0.1800  0.1471  0.0972
  869BOLB   PO120834  17.632   5.940  23.473  0.0122 -0.2099  0.1834
  869BOLB   GL120835  17.579   5.559  23.180 -0.2819  0.0428 -0.1607
  869BOLB   GL220836  17.492   5.593  22.769  0.1794  0.0185 -0.3901
  869BOLB   C1A20837  17.963   5.286  23.009  0.0893  0.0495  0.1297
  869BOLB   C2A20838  18.125   4.847  22.801 -0.4188  0.2493 -0.0950
  869BOLB   C3A20839  18.079   4.484  22.672  0.1268 -0.0220  0.3014
  869BOLB   C4A20840  17.950   4.058  22.766  0.0316  0.3874  0.3789
  869BOLB   C1B20841  17.645   5.216  22.656 -0.0632  0.1687 -0.0326
  869BOLB   C2B20842  17.781   4.900  22.302  0.1298 -0.3427 -0.1628
  869BOLB   C3B20843  18.047   4.504  22.169 -0.0200 -0.0127  0.2026
  869BOLB   C4B20844  18.392   4.204  22.169  0.2143  0.1838  0.1182
  869BOLB   NC220845  19.591   2.441  21.967  0.1605  0.1784  0.3391
  869BOLB   PO220846  19.161   2.346  21.862  0.3241  0.1350 -0.3034
  869BOLB   GL320847  18.799   2.608  21.874 -0.2170 -0.0451 -0.0106
  869BOLB   GL420848  18.848   2.860  21.777 -0.1418 -0.1271 -0.1806
  869BOLB   C1C20849  18.526   2.642  22.157  0.0901 -0.3911  0.1476
  869BOLB   C2C20850  18.305   2.931  22.282  0.0183 -0.1195  0.1502
  869BOLB   C3C20851  18.217   3.348  22.420 -0.4645  0.1560 -0.0047
  869BOLB   C4C20852  18.195   3.734  22.591  0.0958  0.0183 -0.1400
  869BOLB   C1D20853  18.625   2.940  21.344  0.1639 -0.0292  0.1946
  869BOLB   C2D20854  18.570   3.287  20.987  0.0724  0.1834  0.1251
  869BOLB   C3D20855  18.639   3.485  20.669 -0.4610 -0.1219  0.0692
  869BOLB   C4D20856  18.438   3.845  20.506 -0.3470 -0.2151 -0.0160
  870BOLB   NC120857  14.101   7.987  22.125 -0.1620  0.1624  0.3822
  870BOLB   PO120858  14.373   8.146  21.915 -0.5126 -0.0737 -0.0017
  870BOLB   GL120859  13.935   8.118  21.665 -0.2178  0.2081 -0.0892
  870BOLB   GL220860  13.613   8.037  21.618  0.1083 -0.0055  0.1578
  870BOLB   C1A20861  13.845   7.676  21.506 -0.0788  0.3534 -0.1633
  870BOLB   C2A20862  13.800   7.393  21.170  0.1780  0.0809  0.1711
  870BOLB   C3A20863  13.862   7.276  20.769  0.3108  0.0428 -0.0980
  870BOLB   C4A20864  13.499   7.035  20.488 -0.0263  0.0926  0.1268
  870BOLB   C1B20865  13.277   7.841  21.487 -0.4539 -0.0090 -0.1674
  870BOLB   C2B20866  12.927   7.654  21.311 -0.1658 -0.3339 -0.1314
  870BOLB   C3B20867  12.678   7.385  21.067  0.0693  0.1524 -0.0311
  870BOLB   C4B20868  12.279   7.384  20.920  0.0256  0.0027 -0.0095
  870BOLB   NC220869  13.802   5.157  19.331  0.3706  0.0635  0.1058
  870BOLB   PO220870  13.350   5.082  19.317  0.0486 -0.0388  0.3039
  870BOLB   GL320871  13.100   5.128  19.747  0.3312 -0.2693  0.2379
  870BOLB   GL420872  12.849   5.113  19.941 -0.2459  0.0056 -0.1329
  870BOLB   C1C20873  13.111   5.568  19.928 -0.0309 -0.0884 -0.0063
  870BOLB   C2C20874  13.140   5.918  20.049  0.0985  0.0665 -0.0648
  870BOLB   C3C20875  13.266   6.357  20.135  0.0234  0.1010 -0.0223
  870BOLB   C4C20876  13.397   6.692  20.208  0.1228 -0.2414  0.1205
  870BOLB   C1D20877  12.815   5.344  20.346  0.0975  0.0749 -0.5507
  870BOLB   C2D20878  13.276   5.528  20.470  0.1655 -0.1404 -0.1471
  870BOLB   C3D20879  13.420   5.991  20.470 -0.1109  0.2633  0.2746
  870BOLB   C4D20880  13.201   6.268  20.765 -0.0991 -0.1878 -0.3405
  871BOLB   NC120881  12.323  19.178  34.747 -0.0818 -0.1447  0.1124
  871BOLB   PO120882  12.291  19.451  35.124  0.1201  0.5460  0.0492
  871BOLB   GL120883  12.099  19.449  35.453  0.0323  0.2128 -0.0074
  871BOLB   GL220884  12.144  19.472  35.822  0.1214  0.0403  0.0925
  871BOLB   C1A20885  11.774  19.797  35.706  0.0878 -0.1222 -0.0235
  871BOLB   C2A20886  11.659  20.095  36.025 -0.0641  0.0992  0.0787
  871BOLB   C3A20887  11.630  20.373  36.364 -0.0885  0.3304 -0.2683
  871BOLB   C4A20888  11.264  20.355  36.640  0.0309 -0.0544  0.0056
  871BOLB   C1B20889  12.227  19.738  36.232 -0.1198  0.0486  0.2230
  871BOLB   C2B20890  12.119  20.088  36.375 -0.0833  0.2283 -0.2848
  871BOLB   C3B20891  12.114  20.414  36.667  0.2422 -0.0590 -0.2162
  871BOLB   C4B20892  11.879  20.556  37.018  0.0282 -0.1849  0.4519
  871BOLB   NC220893  10.269  22.392  37.979  0.1768 -0.2055  0.0070
  871BOLB   PO220894  10.279  22.378  37.509  0.0195  0.0624  0.3168
  871BOLB   GL320895  10.394  22.069  37.338 -0.1456  0.0986 -0.0345
  871BOLB   GL420896  10.526  22.177  37.064 -0.0826  0.4378 -0.0566
  871BOLB   C1C20897  10.674  21.741  37.329  0.3151  0.1010 -0.1144
  871BOLB   C2C20898  10.820  21.389  37.062 -0.3362  0.1255  0.1883
  871BOLB   C3C20899  10.809  20.975  37.046  0.0655  0.3480 -0.1204
  871BOLB   C4C20900  11.111  20.659  37.026 -0.0347  0.2780  0.1674
  871BOLB   C1D20901  10.745  21.880  36.807 -0.0424  0.2543  0.1323
  871BOLB   C2D20902  10.887  21.422  36.608  0.0406 -0.0659  0.3655
  871BOLB   C3D20903  11.140  21.052  36.649  0.1289  0.3323  0.1771
  871BOLB   C4D20904  11.406  20.794  36.496  0.3289 -0.0634  0.1069
  872BOLB   NC120905  23.582  11.058  34.044 -0.0456 -0.4583  0.1669
  872BOLB   PO120906  23.314  10.916  34.390  0.1443 -0.0353  0.1053
  872BOLB   GL120907  23.462  11.145  34.839  0.2406  0.1284  0.0707
  872BOLB   GL220908  23.220  11.363  34.963  0.1304 -0.1729 -0.0899
  872BOLB   C1A20909  23.778  11.164  34.910  0.0217  0.2671 -0.2795
  872BOLB   C2A20910  24.113  11.016  35.086 -0.1883 -0.0275  0.1455
  872BOLB   C3A20911  24.581  11.084  35.036  0.1479  0.0502  0.2190
  872BOLB   C4A20912  25.022  11.008  34.947 -0.3407 -0.0492 -0.2029
  872BOLB   C1B20913  23.551  11.531  35.221  0.4331 -0.1884  0.0978
  872BOLB   C2B20914  24.001  11.429  35.333 -0.1395  0.0642 -0.4246
  872BOLB   C3B20915  24.228  11.143  35.556 -0.0515 -0.5236 -0.3653
  872BOLB   C4B20916  24.612  10.931  35.497  0.1865  0.1482  0.0460
  872BOLB   NC220917   0.609  11.433  35.771  0.0200  0.1460  0.1629
  872BOLB   PO220918   0.200  11.565  35.901 -0.0761 -0.0579  0.3772
  872BOLB   GL320919  26.823  11.460  35.639  0.0464  0.2694 -0.0286
  872BOLB   GL420920  26.622  11.582  35.878  0.1793  0.1928 -0.0531
  872BOLB   C1C20921  26.496  11.237  35.424  0.1248 -0.0989  0.2200
  872BOLB   C2C20922  26.051  11.251  35.344 -0.2089  0.2236  0.0779
  872BOLB   C3C20923  25.746  11.112  35.312  0.4213 -0.0047 -0.0521
  872BOLB   C4C20924  25.373  11.087  35.106 -0.0895 -0.1350 -0.0069
  872BOLB   C1D20925  26.209  11.478  35.726  0.1768  0.1858  0.2544
  872BOLB   C2D20926  25.687  11.459  35.703  0.1138  0.0429  0.0588
  872BOLB   C3D20927  25.298  11.499  35.452  0.4596 -0.1007 -0.0288
  872BOLB   C4D20928  25.019  11.177  35.386 -0.2870 -0.0665 -0.1683
  873BOLB   NC120929  20.062  18.566  32.075 -0.0722  0.0667 -0.0581
  873BOLB   PO120930  20.289  18.399  31.738  0.1454  0.0804  0.2796
  873BOLB   GL120931  20.508  18.722  31.860  0.1184  0.3155 -0.1504
  873BOLB   GL220932  20.389  18.962  31.832  0.1692  0.1919  0.0961
  873BOLB   C1A20933  20.860  18.890  32.063 -0.1635  0.1511  0.1129
  873BOLB   C2A20934  21.060  19.209  32.206 -0.0782 -0.0939 -0.2448
  873BOLB   C3A20935  21.173  19.554  31.865 -0.0666  0.1701 -0.0451
  873BOLB   C4A20936  21.468  19.803  31.780  0.3598 -0.1013 -0.1675
  873BOLB   C1B20937  20.667  19.296  31.853  0.0007  0.3473  0.1576
  873BOLB   C2B20938  20.775  19.574  31.568  0.0362 -0.3406 -0.0882
  873BOLB   C3B20939  20.666  19.907  31.399  0.0865  0.1739 -0.1944
  873BOLB   C4B20940  20.353  20.177  31.299 -0.0860  0.0686  0.2338
  873BOLB   NC220941  23.286  21.011  31.507  0.1303 -0.0955  0.0098
  873BOLB   PO220942  23.050  21.357  31.377  0.3121 -0.4932  0.3762
  873BOLB   GL320943  22.783  21.184  31.494  0.0772  0.0075  0.1394
  873BOLB   GL420944  22.499  21.311  31.762 -0.0072 -0.0902 -0.1300
  873BOLB   C1C20945  22.674  20.800  31.578 -0.1351  0.1261 -0.0651
  873BOLB   C2C20946  22.366  20.461  31.657  0.1537 -0.0332  0.0190
  873BOLB   C3C20947  22.093  20.301  31.490 -0.0306  0.2306 -0.1256
  873BOLB   C4C20948  21.713  20.028  31.426 -0.0284  0.1815  0.1074
  873BOLB   C1D20949  22.263  20.983  31.822 -0.2177  0.2489 -0.1136
  873BOLB   C2D20950  21.886  20.764  31.650 -0.1210  0.1580 -0.2195
  873BOLB   C3D20951  21.776  20.403  31.903  0.2981  0.1134  0.0317
  873BOLB   C4D20952  22.034  19.983  31.956  0.0378 -0.0073 -0.2292
  874BOLB   NC120953  23.343   2.792  24.328  0.0253  0.2244  0.0642
  874BOLB   PO120954  23.213   2.827  23.846  0.0549  0.0817  0.1309
  874BOLB   GL120955  23.031   3.213  23.597  0.0187  0.1132  0.1415
  874BOLB   GL220956  22.710   3.319  23.516  0.5482  0.1172 -0.0475
  874BOLB   C1A20957  22.997   3.698  23.723  0.1144 -0.2594  0.0883
  874BOLB   C2A20958  22.801   4.035  23.997  0.1029 -0.3303 -0.2128
  874BOLB   C3A20959  22.697   4.488  24.103  0.0299 -0.0762 -0.1978
  874BOLB   C4A20960  22.372   4.768  23.929 -0.1447  0.1419  0.0279
  874BOLB   C1B20961  22.488   3.508  23.787 -0.1285  0.1032 -0.4033
  874BOLB   C2B20962  22.365   3.711  24.072  0.1658 -0.1382 -0.0823
  874BOLB   C3B20963  22.383   4.008  24.305  0.1675  0.0580 -0.3238
  874BOLB   C4B20964  22.556   3.943  24.616 -0.3068  0.1068  0.3428
  874BOLB   NC220965  22.357   2.658  22.492  0.0816 -0.0210  0.4394
  874BOLB   PO220966  22.222   2.940  22.706 -0.0602 -0.0663  0.0675
  874BOLB   GL320967  22.097   3.292  22.888 -0.1348 -0.2172 -0.1840
  874BOLB   GL420968  22.237   3.374  23.217  0.2516 -0.1346  0.1415
  874BOLB   C1C20969  22.093   3.756  22.875  0.4399  0.0917 -0.3883
  874BOLB   C2C20970  21.775   4.081  23.091  0.0587  0.2277 -0.1238
  874BOLB   C3C20971  21.667   4.440  23.393 -0.0287  0.0331  0.1176
  874BOLB   C4C20972  21.990   4.638  23.766  0.2860  0.0291 -0.0439
  874BOLB   C1D20973  22.111   3.781  23.360 -0.1081 -0.0745  0.0383
  874BOLB   C2D20974  22.167   4.248  23.411 -0.0207  0.2286  0.1743
  874BOLB   C3D20975  22.442   4.532  23.394  0.1349  0.0296  0.1783
  874BOLB   C4D20976  22.564   4.934  23.388 -0.3764  0.0396 -0.0656
  875BOLB   NC120977  19.881  18.262  34.603 -0.1258 -0.0937  0.1785
  875BOLB   PO120978  20.009  18.614  34.320  0.0963 -0.1117 -0.0935
  875BOLB   GL120979  20.387  18.915  34.425 -0.1894  0.1296 -0.0570
  875BOLB   GL220980  20.767  18.778  34.459 -0.1456  0.1167 -0.0602
  875BOLB   C1A20981  20.652  19.237  34.573  0.0283 -0.1327 -0.1590
  875BOLB   C2A20982  20.939  19.637  34.469 -0.0913 -0.0898 -0.1076
  875BOLB   C3A20983  20.744  19.979  34.607  0.1496 -0.0820 -0.2894
  875BOLB   C4A20984  20.676  20.458  34.811  0.1790 -0.1205  0.1143
  875BOLB   C1B20985  21.096  19.031  34.545  0.2789 -0.1711 -0.3126
  875BOLB   C2B20986  21.332  19.331  34.655  0.2805 -0.0367  0.0308
  875BOLB   C3B20987  21.683  19.587  34.741 -0.1410  0.0559 -0.0592
  875BOLB   C4B20988  22.159  19.593  34.739 -0.1160  0.1788  0.0474
  875BOLB   NC220989  21.569  22.414  35.281  0.0053  0.2147 -0.1112
  875BOLB   PO220990  21.212  22.742  35.028 -0.0862  0.1944  0.1615
  875BOLB   GL320991  21.068  22.350  35.223  0.1073 -0.1140  0.1001
  875BOLB   GL420992  20.770  22.378  34.917 -0.0694  0.3370 -0.1024
  875BOLB   C1C20993  20.903  21.951  35.273 -0.3730 -0.2173 -0.1326
  875BOLB   C2C20994  20.966  21.659  34.991  0.0523 -0.0332  0.2943
  875BOLB   C3C20995  20.823  21.297  34.705 -0.3917  0.2040 -0.0495
  875BOLB   C4C20996  20.594  20.875  34.786  0.0388 -0.1308 -0.0052
  875BOLB   C1D20997  20.680  22.122  34.499 -0.0441  0.0509 -0.2397
  875BOLB   C2D20998  20.475  21.982  34.127 -0.1693 -0.2024 -0.0127
  875BOLB   C3D20999  20.477  21.564  33.989 -0.1793  0.0325  0.1133
  875BOLB   C4D21000  20.112  21.452  33.750 -0.1766  0.1149 -0.0083
  876BOLB   NC121001  11.730  12.698  21.641 -0.1286 -0.0761 -0.3149
  876BOLB   PO121002  11.499  13.123  21.753 -0.1107 -0.2600 -0.3158
  876BOLB   GL121003  11.180  13.199  21.499  0.3358  0.1460 -0.0107
  876BOLB   GL221004  11.159  13.610  21.450 -0.0720  0.3927  0.1606
  876BOLB   C1A21005  11.111  13.008  21.079 -0.0568  0.2257 -0.0292
  876BOLB   C2A21006  11.029  12.903  20.662  0.0206  0.0497 -0.2999
  876BOLB   C3A21007  10.834  12.980  20.270  0.1343  0.0675 -0.1957
  876BOLB   C4A21008  10.632  13.215  19.958  0.2146 -0.1144 -0.0165
  876BOLB   C1B21009  11.067  13.526  20.985 -0.2067  0.1443  0.5162
  876BOLB   C2B21010  11.115  13.414  20.648  0.3098  0.2352  0.0633
  876BOLB   C3B21011  11.054  13.392  20.235 -0.2928 -0.0280 -0.2424
  876BOLB   C4B21012  11.021  13.490  19.731 -0.1437 -0.0317 -0.1614
  876BOLB   NC221013  10.106  13.711  17.587  0.1986  0.0371  0.1228
  876BOLB   PO221014   9.720  13.510  17.649  0.0342  0.2936  0.1016
  876BOLB   GL321015   9.898  13.378  18.012  0.1232 -0.0532 -0.1373
  876BOLB   GL421016   9.804  13.646  18.169 -0.0568  0.2879 -0.1539
  876BOLB   C1C21017  10.289  13.136  18.244  0.0031  0.0467 -0.5988
  876BOLB   C2C21018  10.528  12.915  18.593  0.4868  0.1825 -0.0794
  876BOLB   C3C21019  10.637  12.965  19.134  0.1217 -0.2257 -0.2029
  876BOLB   C4C21020  10.558  13.203  19.540  0.0152 -0.0172  0.0600
  876BOLB   C1D21021  10.193  13.613  18.581  0.0118  0.0183 -0.2131
  876BOLB   C2D21022  10.448  13.399  18.762  0.0991  0.1400  0.0922
  876BOLB   C3D21023  10.887  13.372  18.947 -0.2303  0.0305  0.2526
  876BOLB   C4D21024  11.199  13.208  19.340 -0.0589  0.7169 -0.1632
  877BOLB   NC121025  16.116   7.034  21.882  0.3006 -0.0726  0.1383
  877BOLB   PO121026  15.741   7.173  21.586  0.3105 -0.0674  0.0694
  877BOLB   GL121027  15.720   6.872  21.408  0.0787 -0.3204 -0.0911
  877BOLB   GL221028  15.458   6.863  21.155  0.1555 -0.0720  0.1057
  877BOLB   C1A21029  15.819   6.479  21.217 -0.0589  0.2530 -0.0782
  877BOLB   C2A21030  15.971   6.298  20.855 -0.1109  0.1173  0.1522
  877BOLB   C3A21031  16.027   5.894  20.611 -0.1069 -0.1070  0.2827
  877BOLB   C4A21032  15.888   5.462  20.617 -0.2689 -0.0991 -0.0622
  877BOLB   C1B21033  15.556   6.620  20.835  0.1545  0.2921  0.2098
  877BOLB   C2B21034  15.509   6.323  20.486 -0.2512  0.2384 -0.0105
  877BOLB   C3B21035  15.409   6.091  20.134  0.2237 -0.0995  0.0329
  877BOLB   C4B21036  15.425   5.701  19.761  0.0910 -0.0611 -0.3111
  877BOLB   NC221037  14.617   4.408  18.809 -0.3891  0.0135  0.3328
  877BOLB   PO221038  15.059   4.341  18.639  0.4002 -0.1329 -0.3844
  877BOLB   GL321039  15.080   4.566  19.112  0.2276  0.0606 -0.3710
  877BOLB   GL421040  14.691   4.702  19.277 -0.0424  0.1971  0.3386
  877BOLB   C1C21041  15.103   4.657  19.525  0.2928  0.1719  0.0396
  877BOLB   C2C21042  15.392   4.960  19.625  0.1125 -0.4239  0.0152
  877BOLB   C3C21043  15.388   5.254  19.998 -0.1669  0.0444 -0.4112
  877BOLB   C4C21044  15.594   5.301  20.325  0.0346 -0.1388  0.5156
  877BOLB   C1D21045  14.876   4.992  19.060  0.0122 -0.0517  0.0820
  877BOLB   C2D21046  15.127   5.386  18.928 -0.1580  0.3537  0.1662
  877BOLB   C3D21047  15.207   5.898  18.942  0.1497  0.2128 -0.3342
  877BOLB   C4D21048  15.261   6.170  19.238  0.0612 -0.3395 -0.0178
  878BOLB   NC121049  10.654  19.658  26.470 -0.2281  0.1398 -0.0983
  878BOLB   PO121050  10.476  19.253  26.418 -0.3291 -0.0486  0.0166
  878BOLB   GL121051  10.071  19.238  26.254 -0.2310  0.1126  0.0765
  878BOLB   GL221052  10.031  19.537  26.243 -0.2996  0.0289 -0.2076
  878BOLB   C1A21053   9.852  19.320  25.777  0.1784 -0.0361  0.0996
  878BOLB   C2A21054   9.569  19.580  25.504  0.3472 -0.2528  0.1442
  878BOLB   C3A21055   9.419  19.985  25.308 -0.0374 -0.0680  0.2838
  878BOLB   C4A21056   9.248  20.406  25.445 -0.5029  0.0203  0.0442
  878BOLB   C1B21057   9.758  19.822  25.981  0.1040 -0.0568 -0.2609
  878BOLB   C2B21058   9.430  20.091  25.821  0.4119 -0.0490  0.2150
  878BOLB   C3B21059   9.409  20.538  25.982  0.1333 -0.0683 -0.2180
  878BOLB   C4B21060   9.180  20.864  25.944  0.1238 -0.1553  0.0529
  878BOLB   NC221061   8.299  22.663  24.754  0.0797 -0.4003 -0.2603
  878BOLB   PO221062   8.381  22.568  25.200 -0.3381  0.0752 -0.0124
  878BOLB   GL321063   8.382  22.098  25.438  0.0909  0.1055  0.0524
  878BOLB   GL421064   8.063  22.099  25.622 -0.2448 -0.0162 -0.4678
  878BOLB   C1C21065   8.483  21.732  25.470 -0.3076  0.0579  0.0593
  878BOLB   C2C21066   8.820  21.497  25.421  0.1989  0.2044  0.0558
  878BOLB   C3C21067   8.876  21.065  25.561  0.4438  0.0687 -0.0413
  878BOLB   C4C21068   8.905  20.689  25.487  0.2660  0.0827  0.2905
  878BOLB   C1D21069   8.192  21.787  25.853 -0.1743 -0.0284  0.0373
  878BOLB   C2D21070   8.408  21.687  26.131  0.1370 -0.0112 -0.0422
  878BOLB   C3D21071   8.617  21.353  26.328  0.1013 -0.2552 -0.1543
  878BOLB   C4D21072   8.810  20.952  26.337 -0.0517  0.0285 -0.2540
  879BOLB   NC121073   4.431  15.999  35.498 -0.1588  0.0457  0.1403
  879BOLB   PO121074   4.182  15.699  35.785  0.0736  0.3957  0.2413
  879BOLB   GL121075   4.560  15.470  35.611  0.1285  0.2581 -0.0385
  879BOLB   GL221076   4.567  15.265  35.306  0.0442  0.0835 -0.2326
  879BOLB   C1A21077   4.895  15.517  35.610  0.1001  0.1256  0.1688
  879BOLB   C2A21078   5.251  15.510  35.373 -0.0347 -0.0551 -0.0370
  879BOLB   C3A21079   5.622  15.517  35.142 -0.1905 -0.0832 -0.1894
  879BOLB   C4A21080   6.023  15.274  35.263 -0.0674  0.0002 -0.1858
  879BOLB   C1B21081   4.853  15.360  35.146 -0.0854 -0.2806 -0.1335
  879BOLB   C2B21082   5.251  15.272  34.947  0.1418  0.0530  0.0989
  879BOLB   C3B21083   5.535  15.050  34.796  0.0788  0.5895  0.1222
  879BOLB   C4B21084   5.940  15.012  34.528  0.3114 -0.1339  0.1916
  879BOLB   NC221085   4.775  14.229  36.981 -0.0996  0.2842 -0.0620
  879BOLB   PO221086   4.852  14.626  36.853 -0.1284 -0.0909 -0.0129
  879BOLB   GL321087   5.138  14.350  36.630 -0.2467 -0.1617  0.0228
  879BOLB   GL421088   5.115  14.078  36.604  0.1581  0.1658  0.2258
  879BOLB   C1C21089   5.452  14.376  36.268  0.1821 -0.1464 -0.0289
  879BOLB   C2C21090   5.883  14.373  35.964 -0.0517 -0.1977  0.0792
  879BOLB   C3C21091   6.168  14.623  35.598 -0.1897  0.2833 -0.2904
  879BOLB   C4C21092   6.162  14.982  35.487 -0.0497  0.0937  0.1811
  879BOLB   C1D21093   5.451  13.881  36.481  0.0235  0.2068  0.1429
  879BOLB   C2D21094   5.820  13.950  36.319  0.2350 -0.0138 -0.1358
  879BOLB   C3D21095   6.185  13.968  36.032  0.0568 -0.2663  0.0880
  879BOLB   C4D21096   6.453  14.137  35.640  0.1800  0.3641  0.0937
  880BOLB   NC121097  17.670   4.948  33.324 -0.0080 -0.2779 -0.2989
  880BOLB   PO121098  17.469   4.912  32.988  0.2254  0.3908  0.0958
  880BOLB   GL121099  17.585   4.537  32.897  0.2580  0.1390 -0.0483
  880BOLB   GL221100  17.757   4.426  32.626  0.0143  0.3194 -0.0490
  880BOLB   C1A21101  17.738   4.252  33.173  0.0725  0.3367 -0.2125
  880BOLB   C2A21102  17.809   3.866  33.476 -0.1245  0.0997  0.0035
  880BOLB   C3A21103  17.827   3.432  33.557 -0.0941  0.1881  0.0170
  880BOLB   C4A21104  18.020   3.016  33.605 -0.2496 -0.3909  0.0812
  880BOLB   C1B21105  17.722   3.975  32.708 -0.2325 -0.2847  0.1637
  880BOLB   C2B21106  17.815   3.590  32.965 -0.2403  0.1382  0.0899
  880BOLB   C3B21107  17.908   3.155  33.136 -0.0520  0.0049  0.2116
  880BOLB   C4B21108  17.793   2.740  33.152 -0.0357  0.0075 -0.1651
  880BOLB   NC221109  18.457   0.148  33.964 -0.0862 -0.1483  0.0199
  880BOLB   PO221110  18.245   0.583  33.954  0.0175  0.0286 -0.1266
  880BOLB   GL321111  18.120   0.989  33.984  0.0066  0.0661  0.2247
  880BOLB   GL421112  18.043   1.018  34.312 -0.0537 -0.1091  0.4004
  880BOLB   C1C21113  18.320   1.462  34.047 -0.3106  0.0254  0.2081
  880BOLB   C2C21114  18.330   1.755  33.826 -0.0885 -0.0453  0.1917
  880BOLB   C3C21115  18.206   2.115  33.827 -0.2010  0.3129  0.0590
  880BOLB   C4C21116  18.205   2.630  33.753  0.0530  0.2814  0.2839
  880BOLB   C1D21117  17.823   1.406  34.293 -0.2844  0.0275 -0.0672
  880BOLB   C2D21118  17.815   1.801  34.188 -0.1186 -0.0084  0.0170
  880BOLB   C3D21119  17.765   2.210  34.010 -0.0914  0.1356 -0.0312
  880BOLB   C4D21120  17.743   2.526  33.699  0.0166  0.0501  0.2429
  881BOLB   NC121121  11.187   8.976  24.298 -0.2684 -0.1992  0.0627
  881BOLB   PO121122  10.789   8.788  24.256  0.1242  0.2016 -0.2140
  881BOLB   GL121123  10.450   8.572  24.095  0.0070 -0.0224 -0.1524
  881BOLB   GL221124  10.134   8.664  24.303  0.1724 -0.2934  0.0209
  881BOLB   C1A21125  10.162   8.288  23.911  0.0610  0.2689  0.2949
  881BOLB   C2A21126   9.974   7.886  23.641  0.0416  0.1372  0.3697
  881BOLB   C3A21127   9.863   7.531  23.652 -0.0861  0.3812 -0.2497
  881BOLB   C4A21128   9.694   7.137  23.510  0.0337 -0.0932  0.1894
  881BOLB   C1B21129   9.778   8.368  24.316 -0.1542  0.0451  0.1370
  881BOLB   C2B21130   9.373   8.048  24.344  0.0152  0.2575  0.2996
  881BOLB   C3B21131   8.969   8.143  24.227  0.1539  0.1251  0.2892
  881BOLB   C4B21132   8.887   8.369  23.859  0.2188  0.1068  0.7909
  881BOLB   NC221133   7.484   5.936  22.673  0.0019  0.1866  0.1174
  881BOLB   PO221134   7.694   5.818  23.041 -0.0833 -0.3582  0.2267
  881BOLB   GL321135   8.122   5.910  23.125 -0.2309 -0.3536  0.3393
  881BOLB   GL421136   8.390   6.080  22.816 -0.1229  0.2622 -0.1490
  881BOLB   C1C21137   8.539   6.157  23.291  0.0187 -0.0378  0.1830
  881BOLB   C2C21138   8.705   6.318  23.614 -0.0187  0.0992 -0.3387
  881BOLB   C3C21139   9.077   6.629  23.779 -0.0176  0.1659 -0.0056
  881BOLB   C4C21140   9.185   7.064  23.441 -0.0227 -0.0369 -0.0596
  881BOLB   C1D21141   8.830   5.944  22.750 -0.1187  0.3000  0.0622
  881BOLB   C2D21142   9.221   6.048  22.865  0.2214  0.0234  0.1654
  881BOLB   C3D21143   9.640   6.247  23.091 -0.0347 -0.4855 -0.0258
  881BOLB   C4D21144   9.945   6.408  22.958 -0.0578 -0.2422 -0.1484
  882BOLB   NC121145  17.393   5.551  35.067 -0.0807  0.2148  0.0009
  882BOLB   PO121146  16.941   5.488  35.166  0.2280 -0.0168  0.0174
  882BOLB   GL121147  17.004   5.169  35.440  0.2234 -0.2573 -0.1005
  882BOLB   GL221148  16.757   4.908  35.264 -0.0410  0.0339  0.0015
  882BOLB   C1A21149  17.177   4.677  35.604 -0.1774 -0.0540 -0.1407
  882BOLB   C2A21150  17.133   4.335  35.835  0.0645  0.1279  0.2348
  882BOLB   C3A21151  16.824   4.012  35.943  0.0948  0.0155  0.2181
  882BOLB   C4A21152  16.706   3.657  36.073  0.2176 -0.1189 -0.1580
  882BOLB   C1B21153  16.802   4.453  35.244 -0.2829  0.0257 -0.1603
  882BOLB   C2B21154  17.027   4.175  35.351 -0.3144  0.1458 -0.2233
  882BOLB   C3B21155  17.011   3.791  35.505 -0.0877  0.3331  0.3207
  882BOLB   C4B21156  17.170   3.484  35.669  0.2061  0.0032  0.0550
  882BOLB   NC221157  17.389   2.411  38.062  0.3086  0.0428  0.3285
  882BOLB   PO221158  16.971   2.239  37.979  0.1281  0.4353  0.0875
  882BOLB   GL321159  16.976   2.555  37.710  0.1368 -0.0266 -0.0181
  882BOLB   GL421160  16.864   2.804  37.848  0.0435  0.0222  0.0055
  882BOLB   C1C21161  17.173   2.797  37.404  0.2256 -0.0704 -0.2088
  882BOLB   C2C21162  16.985   2.962  37.052 -0.2175 -0.0230  0.1763
  882BOLB   C3C21163  17.085   3.306  36.811 -0.0363 -0.0420  0.0311
  882BOLB   C4C21164  16.857   3.439  36.431 -0.3284 -0.1666  0.0019
  882BOLB   C1D21165  16.883   3.190  37.684 -0.1668 -0.2168 -0.2091
  882BOLB   C2D21166  16.946   3.585  37.882 -0.1419  0.1689 -0.1748
  882BOLB   C3D21167  17.016   3.984  38.032 -0.1654 -0.1614  0.1962
  882BOLB   C4D21168  17.148   4.517  38.026 -0.1352  0.2164 -0.0568
  883BOLB   NC121169  22.979   9.019  27.577 -0.3471  0.4066 -0.2570
  883BOLB   PO121170  23.142   8.749  27.975  0.0275 -0.0201 -0.1146
  883BOLB   GL121171  23.473   8.852  27.759 -0.0324  0.2041  0.1453
  883BOLB   GL221172  23.509   9.141  27.492  0.1744 -0.0821 -0.0113
  883BOLB   C1A21173  23.949   8.846  27.641 -0.1752  0.2352 -0.0836
  883BOLB   C2A21174  24.354   8.895  27.726  0.0005  0.0740  0.3184
  883BOLB   C3A21175  24.811   9.133  27.681 -0.2351 -0.0147  0.1171
  883BOLB   C4A21176  25.041   9.462  27.589 -0.1762  0.2076  0.3857
  883BOLB   C1B21177  23.892   9.092  27.201  0.0759  0.2410 -0.0185
  883BOLB   C2B21178  24.382   8.941  27.152  0.3116 -0.3709 -0.1186
  883BOLB   C3B21179  24.687   8.759  27.242 -0.5332  0.1066 -0.2939
  883BOLB   C4B21180  24.703   8.450  27.566  0.2666  0.1370  0.1471
  883BOLB   NC221181   0.809  10.554  27.585  0.1436 -0.1156  0.2039
  883BOLB   PO221182   0.354  10.388  27.396  0.1779  0.4795  0.1175
  883BOLB   GL321183  26.908  10.456  27.294 -0.2542 -0.1006 -0.0559
  883BOLB   GL421184  26.726  10.404  27.573  0.1206  0.2045  0.0786
  883BOLB   C1C21185  26.628  10.092  27.215 -0.3578 -0.1344 -0.1967
  883BOLB   C2C21186  26.197   9.884  27.305 -0.0289  0.0130 -0.0448
  883BOLB   C3C21187  25.819   9.744  27.497 -0.1086  0.0395  0.0184
  883BOLB   C4C21188  25.401   9.775  27.719 -0.0988 -0.0365  0.0743
  883BOLB   C1D21189  26.342  10.671  27.675  0.1888  0.1317 -0.1017
  883BOLB   C2D21190  26.318  11.054  27.974 -0.0686 -0.2846  0.2348
  883BOLB   C3D21191  26.078  11.229  28.324 -0.0115 -0.1338 -0.0405
  883BOLB   C4D21192  25.804  11.428  28.635  0.0126 -0.2738 -0.0221
  884BOLB   NC121193  11.691  11.422  38.408  0.2544  0.1502 -0.1439
  884BOLB   PO121194  11.311  11.286  38.547 -0.0827 -0.0216 -0.2629
  884BOLB   GL121195  10.960  11.174  38.785 -0.0049 -0.2167  0.0967
  884BOLB   GL221196  10.809  10.930  38.885 -0.1615  0.0559 -0.2146
  884BOLB   C1A21197  10.705  11.362  39.125 -0.3053  0.4003  0.2453
  884BOLB   C2A21198  10.373  11.223  39.332 -0.0478  0.0114 -0.2352
  884BOLB   C3A21199  10.233  10.966  39.568 -0.0269  0.1273  0.0395
  884BOLB   C4A21200  10.018  10.921  39.948 -0.1334  0.0712 -0.0271
  884BOLB   C1B21201  10.781  10.873  39.224 -0.1106  0.3766  0.0173
  884BOLB   C2B21202  10.660  10.610  39.528 -0.1363 -0.2619 -0.0275
  884BOLB   C3B21203  10.553  10.488  39.937 -0.1041 -0.1102  0.2488
  884BOLB   C4B21204  10.516  10.890  40.054 -0.2009 -0.1463 -0.3501
  884BOLB   NC221205   8.041  10.740  41.782 -0.2813  0.1135 -0.1846
  884BOLB   PO221206   8.491  10.635  41.741  0.3806 -0.0356 -0.1729
  884BOLB   GL321207   8.798  10.718  41.448 -0.2355  0.1355 -0.1197
  884BOLB   GL421208   9.177  10.630  41.620 -0.0929 -0.0164 -0.1549
  884BOLB   C1C21209   9.021  10.665  41.157 -0.0231 -0.3133  0.0677
  884BOLB   C2C21210   9.309  10.826  40.923 -0.1861 -0.0336 -0.2410
  884BOLB   C3C21211   9.575  10.763  40.546 -0.1125 -0.0393 -0.2058
  884BOLB   C4C21212   9.817  10.790  40.235  0.4728 -0.0869 -0.4796
  884BOLB   C1D21213   9.597  10.804  41.401  0.3317 -0.1951 -0.1637
  884BOLB   C2D21214   9.927  10.968  41.082 -0.0798 -0.0067 -0.1859
  884BOLB   C3D21215  10.365  11.014  40.946  0.0158 -0.0613 -0.1987
  884BOLB   C4D21216  10.683  10.867  40.576 -0.0754  0.0804  0.0769
  885BOLB   NC121217  15.459  13.250  19.653  0.4014 -0.0925  0.0204
  885BOLB   PO121218  15.486  12.923  19.224 -0.3834  0.1997  0.0812
  885BOLB   GL121219  15.298  12.683  18.880 -0.2038 -0.0780  0.1429
  885BOLB   GL221220  15.517  12.453  18.623  0.3125 -0.2196  0.1909
  885BOLB   C1A21221  14.895  12.557  18.971  0.0497 -0.0498 -0.0260
  885BOLB   C2A21222  14.497  12.461  18.859  0.0395 -0.1734  0.1028
  885BOLB   C3A21223  14.146  12.386  18.706  0.0469 -0.1819  0.1704
  885BOLB   C4A21224  13.784  12.259  18.522  0.3488  0.1483  0.2162
  885BOLB   C1B21225  15.442  12.716  18.165 -0.3767  0.0016  0.0097
  885BOLB   C2B21226  15.250  12.825  17.720 -0.0015 -0.1358  0.2372
  885BOLB   C3B21227  15.203  12.807  17.282 -0.2025  0.5937 -0.2074
  885BOLB   C4B21228  14.833  12.932  17.060  0.0622  0.0037  0.1145
  885BOLB   NC221229  11.937  11.202  16.411  0.2640  0.0292 -0.2292
  885BOLB   PO221230  12.527  11.381  16.559 -0.0788  0.0980 -0.1438
  885BOLB   GL321231  12.610  11.710  16.803 -0.0433  0.0268  0.0048
  885BOLB   GL421232  12.977  11.783  16.781 -0.0026 -0.1685 -0.2480
  885BOLB   C1C21233  12.639  11.905  17.152  0.0534 -0.1063 -0.2324
  885BOLB   C2C21234  12.875  11.974  17.513 -0.4203 -0.0319 -0.1051
  885BOLB   C3C21235  13.112  12.140  17.877  0.0808  0.1493 -0.0393
  885BOLB   C4C21236  13.420  12.055  18.257 -0.2156 -0.0100  0.0095
  885BOLB   C1D21237  12.944  11.537  17.055 -0.3035 -0.1628 -0.0732
  885BOLB   C2D21238  12.911  11.449  17.425 -0.2281 -0.2287  0.0488
  885BOLB   C3D21239  13.049  11.198  17.765 -0.3543 -0.1403 -0.2055
  885BOLB   C4D21240  13.145  10.889  18.010  0.0569  0.0922 -0.1349
  886BOLB   NC121241   8.824  11.931  27.132  0.0840 -0.1989  0.0035
  886BOLB   PO121242   8.403  11.718  27.047 -0.1110  0.3796  0.1507
  886BOLB   GL121243   7.962  11.681  26.848 -0.0327  0.0871 -0.3293
  886BOLB   GL221244   7.761  11.539  27.215  0.2733  0.2360 -0.0140
  886BOLB   C1A21245   7.801  11.222  26.827 -0.0956  0.1392  0.0495
  886BOLB   C2A21246   7.485  10.949  26.911  0.3083 -0.0848  0.0722
  886BOLB   C3A21247   7.039  10.844  26.745  0.3118 -0.1150  0.0269
  886BOLB   C4A21248   6.724  10.883  26.552  0.0247  0.0105 -0.0296
  886BOLB   C1B21249   7.385  11.388  27.298 -0.2299  0.3581  0.0001
  886BOLB   C2B21250   7.058  11.049  27.231  0.2669  0.0207 -0.0564
  886BOLB   C3B21251   6.649  11.010  27.167 -0.0820  0.2909 -0.1279
  886BOLB   C4B21252   6.277  10.869  27.384  0.0981 -0.1104 -0.0491
  886BOLB   NC221253   4.801  10.273  25.584 -0.1102 -0.0857 -0.1600
  886BOLB   PO221254   4.880  10.440  25.146 -0.1514 -0.0599 -0.2740
  886BOLB   GL321255   5.131  10.704  25.375  0.2947  0.1542 -0.4968
  886BOLB   GL421256   5.270  10.921  25.224  0.1037  0.2626  0.2058
  886BOLB   C1C21257   5.367  10.743  25.749 -0.3536  0.0202 -0.1202
  886BOLB   C2C21258   5.688  10.896  25.899 -0.1779  0.1641 -0.1588
  886BOLB   C3C21259   6.020  10.830  26.051  0.3915 -0.1366  0.1047
  886BOLB   C4C21260   6.427  11.013  26.228  0.1820 -0.0711  0.0813
  886BOLB   C1D21261   5.546  11.124  25.434  0.2394  0.0102  0.2488
  886BOLB   C2D21262   6.022  11.203  25.543 -0.2029 -0.0856 -0.0663
  886BOLB   C3D21263   6.513  11.254  25.590  0.0747 -0.1325 -0.0645
  886BOLB   C4D21264   6.832  11.132  25.964  0.1326  0.1202 -0.0859
  887BOLB   NC121265  24.337  17.035  39.134 -0.3595  0.0093 -0.1267
  887BOLB   PO121266  24.171  16.824  38.806 -0.2562  0.0927  0.1938
  887BOLB   GL121267  23.833  16.790  38.606  0.0531 -0.2228 -0.0442
  887BOLB   GL221268  23.919  16.762  38.279 -0.0252 -0.0849  0.0907
  887BOLB   C1A21269  23.374  16.790  38.507 -0.1007 -0.1099  0.0028
  887BOLB   C2A21270  23.209  17.065  38.158 -0.2221 -0.0802 -0.1129
  887BOLB   C3A21271  23.032  17.205  37.806 -0.1714 -0.1327 -0.1776
  887BOLB   C4A21272  22.633  17.226  37.606  0.1420  0.2411  0.1353
  887BOLB   C1B21273  23.664  16.782  38.042 -0.0913  0.2137  0.2679
  887BOLB   C2B21274  23.282  16.786  37.688  0.2789  0.1962  0.2046
  887BOLB   C3B21275  22.985  16.779  37.417  0.1382 -0.1144 -0.2626
  887BOLB   C4B21276  22.713  16.721  37.008 -0.1875  0.0765 -0.0338
  887BOLB   NC221277  23.280  18.622  39.084  0.2142 -0.0153  0.2317
  887BOLB   PO221278  22.948  18.291  39.303  0.2563  0.0212  0.2427
  887BOLB   GL321279  22.901  18.107  38.997  0.2090 -0.1303 -0.1206
  887BOLB   GL421280  22.644  18.299  38.922 -0.1061  0.3513  0.1907
  887BOLB   C1C21281  22.874  17.760  38.760  0.0222  0.1903  0.1848
  887BOLB   C2C21282  22.458  17.702  38.546  0.0882 -0.1915  0.2458
  887BOLB   C3C21283  22.316  17.816  38.085 -0.0624 -0.1394  0.1062
  887BOLB   C4C21284  22.281  17.553  37.650  0.3223 -0.0392 -0.0079
  887BOLB   C1D21285  22.364  18.414  38.518 -0.1410 -0.0372  0.1763
  887BOLB   C2D21286  22.126  18.256  38.197 -0.1518  0.3631  0.0751
  887BOLB   C3D21287  21.787  18.123  37.927 -0.0293 -0.1889  0.5233
  887BOLB   C4D21288  21.486  18.040  37.690  0.1358  0.1643  0.3589
  888BOLB   NC121289  16.597   8.002  21.293 -0.0879 -0.3341 -0.0029
  888BOLB   PO121290  16.687   7.638  21.362 -0.2855  0.0622 -0.2227
  888BOLB   GL121291  16.618   7.252  21.080 -0.0739  0.0275  0.1174
  888BOLB   GL221292  16.383   7.423  20.883  0.2383 -0.1099  0.0550
  888BOLB   C1A21293  16.518   6.841  20.704 -0.0969 -0.0974  0.2375
  888BOLB   C2A21294  16.365   6.376  20.516  0.0625 -0.0407 -0.0910
  888BOLB   C3A21295  16.694   6.066  20.212 -0.0713 -0.0019 -0.3405
  888BOLB   C4A21296  16.836   5.738  20.065 -0.3769  0.0928 -0.1239
  888BOLB   C1B21297  16.677   7.325  20.548  0.0981 -0.0646 -0.2742
  888BOLB   C2B21298  16.764   7.165  20.136  0.0270  0.1103  0.1100
  888BOLB   C3B21299  16.983   6.836  19.888  0.2170 -0.1715  0.1356
  888BOLB   C4B21300  16.910   6.694  19.457  0.0303 -0.1242  0.2239
  888BOLB   NC221301  18.141   4.493  17.955  0.0744  0.0239 -0.2014
  888BOLB   PO221302  17.802   4.389  18.203  0.0038 -0.0440 -0.0734
  888BOLB   GL321303  17.709   4.617  18.548 -0.0580  0.2433 -0.1108
  888BOLB   GL421304  17.316   4.636  18.578  0.2014  0.2963  0.1721
  888BOLB   C1C21305  17.751   4.957  18.873 -0.2138 -0.2672  0.3940
  888BOLB   C2C21306  17.479   5.277  19.099  0.1598 -0.0197  0.2009
  888BOLB   C3C21307  17.336   5.426  19.469  0.0943  0.1037 -0.0225
  888BOLB   C4C21308  17.126   5.739  19.696  0.4514  0.1151 -0.2285
  888BOLB   C1D21309  17.205   4.891  18.986 -0.2301  0.1868  0.1059
  888BOLB   C2D21310  17.025   4.976  19.479  0.2366 -0.0766 -0.0942
  888BOLB   C3D21311  17.052   5.247  19.900  0.2787 -0.1032 -0.1295
  888BOLB   C4D21312  17.196   5.019  20.303  0.0043 -0.3306  0.3337
  889BOLB   NC121313  23.028  13.100  28.430  0.3755  0.0175  0.4388
  889BOLB   PO121314  23.395  13.201  28.262 -0.0781 -0.3917 -0.2880
  889BOLB   GL121315  23.642  13.197  28.034 -0.1327 -0.1056 -0.1521
  889BOLB   GL221316  23.517  13.280  27.710  0.3241  0.0235  0.1413
  889BOLB   C1A21317  24.007  13.406  27.858  0.3726 -0.1020  0.2891
  889BOLB   C2A21318  24.341  13.742  27.847 -0.3064 -0.4816 -0.0514
  889BOLB   C3A21319  24.692  14.028  27.969  0.4814 -0.1874 -0.2505
  889BOLB   C4A21320  25.104  13.999  28.138  0.2598 -0.0925  0.3178
  889BOLB   C1B21321  23.766  12.991  27.529  0.0391 -0.2742  0.1571
  889BOLB   C2B21322  24.116  12.703  27.511 -0.0838 -0.0320 -0.1419
  889BOLB   C3B21323  24.586  12.694  27.491  0.0218 -0.0816 -0.2344
  889BOLB   C4B21324  24.830  12.918  27.715 -0.3484 -0.2070 -0.2766
  889BOLB   NC221325   0.238  14.135  28.558 -0.0373  0.0894  0.1295
  889BOLB   PO221326   0.117  13.780  28.794 -0.2161 -0.0347 -0.3292
  889BOLB   GL321327  26.865  13.831  28.539 -0.0970  0.3574 -0.2040
  889BOLB   GL421328  26.832  13.563  28.480  0.0122 -0.1096 -0.1390
  889BOLB   C1C21329  26.483  14.038  28.790  0.4453  0.2289  0.0794
  889BOLB   C2C21330  26.077  13.872  28.770  0.0015  0.1241  0.3962
  889BOLB   C3C21331  25.691  13.916  28.596 -0.1727  0.1131 -0.1268
  889BOLB   C4C21332  25.368  13.793  28.388  0.0971  0.1577  0.0688
  889BOLB   C1D21333  26.447  13.551  28.655 -0.1336 -0.2414 -0.0552
  889BOLB   C2D21334  26.055  13.382  28.794 -0.1599  0.0644  0.1803
  889BOLB   C3D21335  25.643  13.357  28.651 -0.1642  0.0021 -0.1392
  889BOLB   C4D21336  25.244  13.193  28.858 -0.0076 -0.1346 -0.2157
  890BOLB   NC121337  11.163  15.718  22.705 -0.1126 -0.0966 -0.1574
  890BOLB   PO121338  10.976  16.121  22.989 -0.3186 -0.1948 -0.2421
  890BOLB   GL121339  10.793  16.046  22.612  0.1935  0.0808 -0.2730
  890BOLB   GL221340  11.033  16.133  22.274  0.1581 -0.0495  0.0693
  890BOLB   C1A21341  10.522  16.327  22.475  0.2230  0.0208 -0.1484
  890BOLB   C2A21342  10.206  16.496  22.267  0.1845  0.1050  0.0008
  890BOLB   C3A21343   9.815  16.707  22.058 -0.1142  0.0890  0.1635
  890BOLB   C4A21344   9.619  16.899  21.689 -0.1031  0.1084  0.1469
  890BOLB   C1B21345  10.830  16.472  22.091  0.0600 -0.0822 -0.3298
  890BOLB   C2B21346  10.835  16.371  21.647 -0.1395 -0.3259 -0.0373
  890BOLB   C3B21347  10.790  16.046  21.328 -0.1538  0.2696  0.2396
  890BOLB   C4B21348  10.446  15.915  21.127 -0.0733  0.1479 -0.1232
  890BOLB   NC221349   8.625  18.783  20.227  0.1544  0.1931  0.1944
  890BOLB   PO221350   8.557  18.719  20.592  0.0138  0.2713 -0.0232
  890BOLB   GL321351   8.646  18.506  20.957 -0.0255  0.2900  0.1504
  890BOLB   GL421352   8.571  18.479  21.331  0.3075  0.0480  0.0556
  890BOLB   C1C21353   8.861  18.081  21.070 -0.4729 -0.0456  0.0855
  890BOLB   C2C21354   9.147  17.771  21.115 -0.1157 -0.2335  0.1619
  890BOLB   C3C21355   9.579  17.477  21.190 -0.0191 -0.3311  0.1557
  890BOLB   C4C21356   9.730  17.185  21.456  0.0939  0.0382  0.0984
  890BOLB   C1D21357   8.604  18.385  21.829  0.0505 -0.0832 -0.2176
  890BOLB   C2D21358   8.335  18.038  21.959  0.4118 -0.2863 -0.0059
  890BOLB   C3D21359   8.323  17.623  21.760  0.1832 -0.1250 -0.0250
  890BOLB   C4D21360   8.199  17.229  21.817  0.0079  0.0567 -0.0868
  891BOLB   NC121361  18.372  13.293  39.202 -0.1763 -0.5877 -0.1018
  891BOLB   PO121362  18.343  12.879  39.110  0.2583  0.0415 -0.1555
  891BOLB   GL121363  18.504  12.676  39.523  0.3285 -0.0023  0.1014
  891BOLB   GL221364  18.287  12.375  39.716 -0.0249  0.0281  0.1151
  891BOLB   C1A21365  18.585  12.777  40.005 -0.1539 -0.0075 -0.0670
  891BOLB   C2A21366  18.839  12.910  40.320 -0.2537 -0.0512 -0.2816
  891BOLB   C3A21367  18.872  13.056  40.745 -0.2247  0.1219 -0.2761
  891BOLB   C4A21368  19.019  13.288  41.006 -0.0265  0.4005  0.0671
  891BOLB   C1B21369  18.181  12.459  40.059  0.3195  0.1859  0.3747
  891BOLB   C2B21370  18.190  12.213  40.392  0.1677  0.1502 -0.0773
  891BOLB   C3B21371  18.373  11.934  40.878 -0.0880 -0.0752  0.1182
  891BOLB   C4B21372  18.217  11.497  40.961 -0.0333 -0.0755  0.0328
  891BOLB   NC221373  19.071  12.577  43.494 -0.2072  0.1605 -0.1482
  891BOLB   PO221374  18.892  12.904  43.390 -0.0425 -0.0210 -0.1655
  891BOLB   GL321375  18.845  13.175  43.118 -0.2520  0.0446  0.3613
  891BOLB   GL421376  18.722  13.546  43.002 -0.4531 -0.0660 -0.0355
  891BOLB   C1C21377  18.828  13.158  42.645 -0.0561  0.2567  0.0677
  891BOLB   C2C21378  19.090  13.335  42.312  0.1421 -0.2510  0.2407
  891BOLB   C3C21379  19.172  13.207  41.931  0.2221  0.2701  0.0964
  891BOLB   C4C21380  19.284  13.301  41.409  0.0957  0.1265 -0.0433
  891BOLB   C1D21381  18.769  13.680  42.569 -0.0218  0.1103  0.3507
  891BOLB   C2D21382  18.635  13.406  42.186 -0.0498 -0.2132 -0.1869
  891BOLB   C3D21383  18.570  13.338  41.658 -0.1463 -0.1237 -0.0576
  891BOLB   C4D21384  18.536  13.169  41.210  0.1181  0.0678  0.0385
  892BOLB   NC121385  13.613  24.381  37.203 -0.0195 -0.2067  0.0277
  892BOLB   PO121386  13.510  23.956  37.267  0.2059  0.2471 -0.1095
  892BOLB   GL121387  13.515  23.502  36.975 -0.2554 -0.2778  0.0704
  892BOLB   GL221388  13.516  23.293  37.084  0.0315 -0.0860  0.0356
  892BOLB   C1A21389  13.683  23.217  36.621 -0.4377 -0.0934 -0.1684
  892BOLB   C2A21390  13.648  22.806  36.563 -0.0605  0.0688 -0.1606
  892BOLB   C3A21391  13.717  22.345  36.598 -0.2521  0.1072 -0.1403
  892BOLB   C4A21392  13.718  21.865  36.597  0.0061  0.0706 -0.0220
  892BOLB   C1B21393  13.222  22.878  37.153  0.0140  0.1955  0.4911
  892BOLB   C2B21394  12.865  22.642  36.969 -0.1955 -0.3021 -0.1676
  892BOLB   C3B21395  12.590  22.340  36.666 -0.0801  0.2919 -0.0082
  892BOLB   C4B21396  12.578  21.986  36.305  0.2730 -0.1382 -0.0977
  892BOLB   NC221397  12.817  22.955  37.635  0.1054 -0.2304  0.0434
  892BOLB   PO221398  12.535  22.798  37.912 -0.2685 -0.0179 -0.1293
  892BOLB   GL321399  12.825  22.501  37.766  0.2833  0.2709  0.2178
  892BOLB   GL421400  13.044  22.579  37.917  0.1062 -0.1803  0.1876
  892BOLB   C1C21401  12.699  22.210  37.408  0.2282 -0.0576  0.0327
  892BOLB   C2C21402  12.874  22.073  37.028 -0.2094  0.1496  0.1998
  892BOLB   C3C21403  13.112  21.672  37.002  0.0158 -0.4005 -0.1917
  892BOLB   C4C21404  13.403  21.615  36.736  0.3176  0.2078 -0.0037
  892BOLB   C1D21405  13.234  22.466  37.480  0.3403  0.2843 -0.2666
  892BOLB   C2D21406  13.257  22.132  37.338  0.0662  0.3114  0.1270
  892BOLB   C3D21407  13.657  21.922  37.122 -0.2125 -0.1923  0.0949
  892BOLB   C4D21408  14.099  22.064  36.932 -0.3697 -0.3359  0.0407
  893BOLB   NC121409  15.682  10.245  20.115  0.0878 -0.0859  0.1529
  893BOLB   PO121410  15.512   9.926  19.785 -0.1662 -0.3399 -0.0400
  893BOLB   GL121411  15.257   9.909  19.410 -0.1108  0.5448  0.1164
  893BOLB   GL221412  15.499   9.704  19.145 -0.1569 -0.3998  0.1271
  893BOLB   C1A21413  14.805  10.048  19.342 -0.1608  0.1438  0.0073
  893BOLB   C2A21414  14.531  10.232  18.934 -0.1173  0.3263  0.1030
  893BOLB   C3A21415  14.195  10.279  18.668  0.1011 -0.0221  0.1215
  893BOLB   C4A21416  13.802  10.235  18.528 -0.1579  0.0327 -0.1771
  893BOLB   C1B21417  15.418   9.559  18.739 -0.1363 -0.2399 -0.2155
  893BOLB   C2B21418  15.427   9.330  18.271 -0.1045 -0.0435  0.0819
  893BOLB   C3B21419  15.625   9.404  17.948  0.0515  0.1734 -0.5014
  893BOLB   C4B21420  15.590   9.679  17.603  0.0973 -0.2590 -0.0593
  893BOLB   NC221421  12.668   9.507  16.458 -0.0151  0.0576  0.1429
  893BOLB   PO221422  12.628   9.954  16.437 -0.2962 -0.1521  0.3869
  893BOLB   GL321423  13.006   9.895  16.706 -0.0002  0.2048  0.2774
  893BOLB   GL421424  12.960  10.035  17.035 -0.0675 -0.0461 -0.2142
  893BOLB   C1C21425  13.380  10.079  16.777  0.1340  0.0353  0.3206
  893BOLB   C2C21426  13.493  10.109  17.246  0.0589 -0.3540  0.2044
  893BOLB   C3C21427  13.425  10.032  17.713 -0.2673  0.0356 -0.0458
  893BOLB   C4C21428  13.646  10.093  18.181  0.0303  0.2306  0.0308
  893BOLB   C1D21429  13.017  10.201  17.405  0.0393 -0.1697  0.0818
  893BOLB   C2D21430  12.849  10.364  17.813 -0.1951  0.0094 -0.3589
  893BOLB   C3D21431  12.780  10.513  18.193 -0.2389 -0.0051  0.1416
  893BOLB   C4D21432  12.866  10.829  18.487 -0.2768  0.1710  0.3956
  894BOLB   NC121433   7.833  15.828  28.153 -0.0217  0.0074  0.0806
  894BOLB   PO121434   7.735  15.992  27.703  0.0651 -0.0453  0.4301
  894BOLB   GL121435   7.395  15.740  27.424 -0.0668  0.1651 -0.1492
  894BOLB   GL221436   7.516  15.450  27.192  0.1015  0.0320 -0.1534
  894BOLB   C1A21437   6.973  15.700  27.474 -0.1572  0.1103  0.0115
  894BOLB   C2A21438   6.599  15.881  27.460  0.2166  0.2364  0.0601
  894BOLB   C3A21439   6.561  16.334  27.680  0.0790 -0.1404  0.1360
  894BOLB   C4A21440   6.162  16.443  27.911 -0.0939 -0.0731  0.0755
  894BOLB   C1B21441   7.088  15.309  27.009 -0.1189  0.0031 -0.3494
  894BOLB   C2B21442   6.680  15.162  26.852 -0.1507 -0.1404 -0.3057
  894BOLB   C3B21443   6.425  14.932  27.073 -0.2173  0.1494 -0.1234
  894BOLB   C4B21444   6.297  14.648  27.315 -0.0409  0.1432 -0.1304
  894BOLB   NC221445   4.228  17.833  27.681  0.3018  0.3897 -0.0615
  894BOLB   PO221446   4.340  17.703  27.308 -0.1266 -0.5341  0.1140
  894BOLB   GL321447   4.746  17.667  27.460 -0.1310 -0.1570 -0.1447
  894BOLB   GL421448   4.867  17.931  27.423 -0.0260 -0.1108  0.2125
  894BOLB   C1C21449   5.284  17.739  27.597 -0.2968  0.0251 -0.1246
  894BOLB   C2C21450   5.578  17.463  27.881 -0.3326  0.2160 -0.2715
  894BOLB   C3C21451   5.627  17.125  27.994  0.2610  0.1339  0.1093
  894BOLB   C4C21452   5.747  16.658  27.940 -0.0086 -0.2304 -0.3431
  894BOLB   C1D21453   4.956  17.828  26.971  0.1565  0.1460  0.4622
  894BOLB   C2D21454   5.018  17.611  26.560 -0.2130  0.0211 -0.3317
  894BOLB   C3D21455   5.230  17.629  26.104 -0.1406  0.2143 -0.2784
  894BOLB   C4D21456   5.398  18.041  26.224  0.2654  0.1099  0.0938
  895BOLB   NC121457  10.826   7.347  34.424  0.0993 -0.0517 -0.1314
  895BOLB   PO121458  10.467   7.627  34.372  0.0560  0.0799  0.1219
  895BOLB   GL121459  10.209   7.262  34.537  0.0258 -0.1147 -0.0586
  895BOLB   GL221460  10.392   6.967  34.601 -0.5243  0.0297 -0.0270
  895BOLB   C1A21461  10.030   7.096  34.918  0.2598  0.1211  0.0413
  895BOLB   C2A21462   9.753   6.870  34.974  0.0798 -0.0922  0.2983
  895BOLB   C3A21463   9.610   6.542  35.279  0.0765 -0.0587  0.0566
  895BOLB   C4A21464   9.740   6.320  35.626 -0.1252  0.1941 -0.0844
  895BOLB   C1B21465  10.018   6.787  34.588 -0.2095 -0.0014  0.2959
  895BOLB   C2B21466   9.666   6.705  34.474 -0.4056 -0.2045 -0.0552
  895BOLB   C3B21467   9.472   6.482  34.250  0.0499  0.3056 -0.0380
  895BOLB   C4B21468   9.517   6.071  34.213  0.3376 -0.1162  0.0276
  895BOLB   NC221469   9.763   3.569  35.881 -0.1177 -0.1956  0.1347
  895BOLB   PO221470   9.541   3.885  36.090  0.2660 -0.2675  0.2310
  895BOLB   GL321471   9.542   4.304  35.970  0.1602  0.4890  0.0561
  895BOLB   GL421472   9.722   4.200  35.658  0.0404  0.0275  0.2380
  895BOLB   C1C21473   9.651   4.810  36.106  0.0936  0.0429  0.0956
  895BOLB   C2C21474   9.582   5.296  36.035 -0.0463  0.1082  0.1057
  895BOLB   C3C21475   9.722   5.581  35.908 -0.6531 -0.1462 -0.0611
  895BOLB   C4C21476   9.690   5.873  35.688 -0.0799  0.0258 -0.1696
  895BOLB   C1D21477   9.786   4.599  35.598 -0.1831  0.0276  0.1717
  895BOLB   C2D21478   9.669   4.833  35.157 -0.2283 -0.4277  0.0238
  895BOLB   C3D21479   9.334   4.822  34.806 -0.1836  0.0453 -0.1418
  895BOLB   C4D21480   9.248   4.409  34.598 -0.1963  0.1029 -0.1838
  896BOLB   NC121481   7.970  16.531  33.183 -0.1985 -0.0605  0.0864
  896BOLB   PO121482   7.877  16.942  33.466 -0.0075  0.1849 -0.3074
  896BOLB   GL121483   7.427  17.052  33.313 -0.0044  0.3331 -0.0266
  896BOLB   GL221484   7.545  17.367  33.453 -0.0229  0.2907 -0.2182
  896BOLB   C1A21485   6.980  17.083  33.350  0.0600  0.0869 -0.0649
  896BOLB   C2A21486   6.629  16.926  33.588  0.0681 -0.0012  0.0430
  896BOLB   C3A21487   6.141  16.833  33.695  0.1752 -0.2378 -0.1636
  896BOLB   C4A21488   5.807  16.567  33.614 -0.1725 -0.2486  0.0725
  896BOLB   C1B21489   7.110  17.588  33.549  0.1729  0.0998  0.1557
  896BOLB   C2B21490   6.672  17.487  33.391 -0.5150  0.1778  0.2106
  896BOLB   C3B21491   6.331  17.194  33.225 -0.1592  0.0091  0.0955
  896BOLB   C4B21492   6.038  17.432  32.987 -0.1435  0.1448  0.2743
  896BOLB   NC221493   3.644  16.545  33.890  0.0982 -0.1059  0.2131
  896BOLB   PO221494   3.569  16.168  33.703 -0.0160 -0.0639  0.2356
  896BOLB   GL321495   4.011  16.316  33.426  0.3442 -0.0575 -0.2594
  896BOLB   GL421496   4.014  16.451  33.039  0.2065  0.0537  0.1273
  896BOLB   C1C21497   4.377  16.210  33.286  0.2251  0.3340 -0.0903
  896BOLB   C2C21498   4.741  16.346  33.519 -0.0707 -0.0432 -0.1632
  896BOLB   C3C21499   5.154  16.344  33.640 -0.0421 -0.2263  0.0548
  896BOLB   C4C21500   5.434  16.506  33.524  0.0136 -0.0017 -0.1636
  896BOLB   C1D21501   4.205  16.786  32.794  0.0967 -0.1873 -0.1855
  896BOLB   C2D21502   4.667  16.906  32.746 -0.2172 -0.0628 -0.1596
  896BOLB   C3D21503   5.105  16.823  32.719  0.0568 -0.1841 -0.1971
  896BOLB   C4D21504   5.486  16.756  32.492  0.1080 -0.0641 -0.3000
  897BOLB   NC121505   8.215   5.077  37.731 -0.2768  0.1440  0.1756
  897BOLB   PO121506   8.487   5.128  37.448  0.1726 -0.3670  0.2060
  897BOLB   GL121507   8.581   5.284  36.983  0.3683 -0.1771  0.1839
  897BOLB   GL221508   8.852   5.424  36.978 -0.1604  0.1857  0.0491
  897BOLB   C1A21509   8.473   5.753  36.798 -0.2234 -0.0975  0.0909
  897BOLB   C2A21510   8.625   6.085  36.769 -0.0340  0.0876  0.3983
  897BOLB   C3A21511   9.031   6.266  36.669 -0.1179 -0.0477 -0.1023
  897BOLB   C4A21512   9.185   6.634  36.696 -0.2407 -0.3326 -0.0267
  897BOLB   C1B21513   8.966   5.692  36.654  0.2671 -0.0226 -0.0969
  897BOLB   C2B21514   9.135   5.981  36.308  0.5575  0.2489  0.0604
  897BOLB   C3B21515   9.409   6.218  35.993  0.2071  0.2889  0.1692
  897BOLB   C4B21516   9.475   6.700  35.911  0.1928 -0.0073  0.1570
  897BOLB   NC221517   7.882   7.136  38.021  0.1489  0.1693  0.2136
  897BOLB   PO221518   7.500   7.155  37.752  0.1042  0.1819  0.0557
  897BOLB   GL321519   7.691   7.185  37.457 -0.2303  0.0667 -0.0391
  897BOLB   GL421520   7.655   7.063  37.134  0.2307  0.1190  0.2160
  897BOLB   C1C21521   8.099   7.442  37.342 -0.1360  0.2524  0.0092
  897BOLB   C2C21522   8.474   7.492  37.020 -0.0197  0.2450  0.2493
  897BOLB   C3C21523   8.860   7.496  36.819  0.2393  0.2232  0.1571
  897BOLB   C4C21524   8.982   7.046  36.572 -0.2214 -0.1182 -0.1016
  897BOLB   C1D21525   8.151   6.981  37.084  0.2325  0.1661  0.2389
  897BOLB   C2D21526   8.508   6.900  37.034 -0.1630  0.0546 -0.1216
  897BOLB   C3D21527   8.956   6.884  37.065  0.2513 -0.1634 -0.1177
  897BOLB   C4D21528   9.263   7.260  36.974 -0.2546  0.0356 -0.0148
  898BOLB   NC121529  12.414  10.327  21.359 -0.0212  0.0506 -0.1397
  898BOLB   PO121530  12.618   9.993  21.633 -0.1739  0.1913  0.0348
  898BOLB   GL121531  12.374   9.736  21.649 -0.0191  0.0018 -0.1335
  898BOLB   GL221532  12.311   9.417  21.883  0.1596 -0.0429 -0.1728
  898BOLB   C1A21533  12.077   9.417  21.440 -0.1156  0.1783  0.2358
  898BOLB   C2A21534  11.875   9.002  21.283 -0.2161 -0.1265 -0.2626
  898BOLB   C3A21535  11.681   8.652  20.994  0.0939  0.0625  0.1557
  898BOLB   C4A21536  11.532   8.326  20.752  0.0829 -0.1435  0.1350
  898BOLB   C1B21537  12.148   8.986  21.743 -0.2820  0.0885 -0.0759
  898BOLB   C2B21538  11.996   8.522  21.409 -0.4723  0.0480  0.1023
  898BOLB   C3B21539  12.082   8.301  21.069 -0.2056  0.2685 -0.0081
  898BOLB   C4B21540  12.041   8.183  20.620 -0.0397 -0.1481 -0.0011
  898BOLB   NC221541   9.764   6.923  19.916  0.3260  0.3000  0.0359
  898BOLB   PO221542   9.756   7.272  19.620 -0.0292 -0.0547 -0.0583
  898BOLB   GL321543  10.187   7.298  19.748 -0.1785 -0.2772 -0.2456
  898BOLB   GL421544  10.184   7.124  20.019 -0.3611  0.0568  0.2402
  898BOLB   C1C21545  10.470   7.561  19.926 -0.0129 -0.1382 -0.4321
  898BOLB   C2C21546  10.704   7.693  20.208 -0.0494 -0.0231  0.0750
  898BOLB   C3C21547  10.849   7.770  20.667 -0.2775  0.0153  0.2169
  898BOLB   C4C21548  11.161   8.098  20.881  0.0370  0.0277  0.2665
  898BOLB   C1D21549  10.493   7.329  20.432 -0.0011  0.0719 -0.1030
  898BOLB   C2D21550  10.744   7.302  20.778  0.2079 -0.1607  0.2832
  898BOLB   C3D21551  11.156   7.377  20.806  0.1876 -0.2262 -0.0676
  898BOLB   C4D21552  11.374   7.564  21.076 -0.2088 -0.1699 -0.2467
  899BOLB   NC121553  13.215   5.055  27.207 -0.1593 -0.2345 -0.0201
  899BOLB   PO121554  12.967   5.356  27.599 -0.2042 -0.0691 -0.0635
  899BOLB   GL121555  12.558   5.051  27.457  0.1533 -0.0649  0.0955
  899BOLB   GL221556  12.735   4.773  27.365  0.0777  0.1308 -0.1987
  899BOLB   C1A21557  12.235   4.791  27.268 -0.2692 -0.0610  0.3922
  899BOLB   C2A21558  11.975   4.625  27.355  0.2962 -0.1301 -0.1619
  899BOLB   C3A21559  11.588   4.570  27.282  0.0884 -0.1119  0.1643
  899BOLB   C4A21560  11.206   4.325  27.227  0.0131 -0.1757  0.0277
  899BOLB   C1B21561  12.474   4.369  27.344  0.1650  0.0131  0.0617
  899BOLB   C2B21562  12.078   4.107  27.251 -0.2175 -0.3197 -0.0174
  899BOLB   C3B21563  11.763   4.167  26.931 -0.1744 -0.0801  0.2013
  899BOLB   C4B21564  11.404   4.285  26.782 -0.4373 -0.0674 -0.1213
  899BOLB   NC221565  10.582   1.701  27.551 -0.3783  0.1640 -0.1750
  899BOLB   PO221566  10.500   2.060  27.584 -0.3577 -0.0227 -0.0626
  899BOLB   GL321567  10.577   2.263  27.190 -0.0641  0.1065  0.2310
  899BOLB   GL421568  10.917   2.373  27.314  0.3900  0.2644 -0.0022
  899BOLB   C1C21569  10.603   2.748  27.182  0.1014  0.2089 -0.0988
  899BOLB   C2C21570  10.594   3.142  27.265  0.3493 -0.0673 -0.0041
  899BOLB   C3C21571  10.864   3.580  27.299 -0.2720 -0.0093 -0.2784
  899BOLB   C4C21572  10.924   3.987  27.419  0.3016 -0.3381 -0.0996
  899BOLB   C1D21573  11.162   2.698  27.257  0.0320  0.1894 -0.0942
  899BOLB   C2D21574  11.323   3.011  27.449 -0.2723 -0.2411  0.1359
  899BOLB   C3D21575  11.284   3.548  27.559 -0.2127  0.0680 -0.4000
  899BOLB   C4D21576  11.262   3.905  27.803  0.0065  0.1261 -0.0125
  900BOLB   NC121577   9.565  10.557  25.851  0.0019  0.2615 -0.0196
  900BOLB   PO121578   9.212  10.444  26.054  0.0137  0.4957  0.1997
  900BOLB   GL121579   8.744  10.361  25.888 -0.1194 -0.2585  0.3000
  900BOLB   GL221580   8.926  10.590  25.657  0.1622  0.1057  0.1380
  900BOLB   C1A21581   8.442  10.533  25.872 -0.1632  0.1533 -0.4170
  900BOLB   C2A21582   8.095  10.501  25.591 -0.0351  0.1794  0.1069
  900BOLB   C3A21583   7.722  10.546  25.742 -0.0847  0.1172  0.0498
  900BOLB   C4A21584   7.247  10.531  25.744  0.2154 -0.0467 -0.1244
  900BOLB   C1B21585   8.580  10.548  25.391  0.1685  0.0274  0.2001
  900BOLB   C2B21586   8.219  10.617  25.103 -0.1899  0.0441 -0.3141
  900BOLB   C3B21587   7.781  10.628  25.253 -0.2350 -0.0392 -0.1225
  900BOLB   C4B21588   7.419  10.849  25.359 -0.0087  0.3309  0.2692
  900BOLB   NC221589   4.964   9.294  25.161 -0.1092 -0.3265  0.2602
  900BOLB   PO221590   5.232   9.607  24.874  0.0395 -0.1629  0.2125
  900BOLB   GL321591   5.334   9.664  25.178 -0.0467  0.0907  0.2911
  900BOLB   GL421592   5.287   9.661  25.526 -0.3834 -0.0172  0.2645
  900BOLB   C1C21593   5.708  10.015  25.238  0.0358  0.2176 -0.1216
  900BOLB   C2C21594   6.127  10.307  25.157 -0.0328 -0.3367  0.0167
  900BOLB   C3C21595   6.478  10.447  25.364 -0.0502 -0.2651  0.3508
  900BOLB   C4C21596   6.939  10.318  25.462  0.2557 -0.0206 -0.0366
  900BOLB   C1D21597   5.618   9.687  25.808  0.1126 -0.1491 -0.1616
  900BOLB   C2D21598   5.767   9.806  26.163 -0.1522  0.0139 -0.2049
  900BOLB   C3D21599   5.905  10.010  26.552  0.5230 -0.1194  0.1152
  900BOLB   C4D21600   5.961  10.389  26.773 -0.0024  0.1585  0.0470
  901BOLB   NC121601  23.004  13.411  31.489  0.2685  0.0303  0.2801
  901BOLB   PO121602  23.364  13.055  31.473  0.1144  0.0041  0.2225
  901BOLB   GL121603  23.748  13.120  31.592 -0.0719 -0.2688 -0.2342
  901BOLB   GL221604  23.965  12.838  31.512 -0.0782 -0.0417 -0.0220
  901BOLB   C1A21605  24.163  13.242  31.715 -0.2370  0.2949  0.0380
  901BOLB   C2A21606  24.651  13.219  31.806 -0.0561 -0.2985 -0.2074
  901BOLB   C3A21607  24.935  13.334  31.494  0.2323 -0.1808  0.2422
  901BOLB   C4A21608  25.259  13.188  31.157  0.0511 -0.1844  0.0674
  901BOLB   C1B21609  23.964  13.076  31.107 -0.1599 -0.0377  0.0115
  901BOLB   C2B21610  24.333  13.246  30.750  0.2308 -0.2196  0.1479
  901BOLB   C3B21611  24.353  13.496  30.356 -0.0262 -0.2994  0.1910
  901BOLB   C4B21612  24.754  13.776  30.355 -0.1011 -0.1707  0.1209
  901BOLB   NC221613   0.653  12.883  31.559 -0.0487  0.1399 -0.0830
  901BOLB   PO221614   0.796  12.598  31.713  0.0649 -0.0656 -0.4022
  901BOLB   GL321615   0.316  12.666  31.862 -0.2017 -0.1773  0.0185
  901BOLB   GL421616   0.317  12.798  32.212 -0.0732  0.4624 -0.0458
  901BOLB   C1C21617  26.878  12.642  31.791  0.3009  0.0924 -0.3600
  901BOLB   C2C21618  26.423  12.616  31.524  0.1382 -0.2703  0.0352
  901BOLB   C3C21619  26.080  12.850  31.280  0.0146 -0.4267 -0.0260
  901BOLB   C4C21620  25.640  12.999  31.300 -0.0296 -0.0810  0.0251
  901BOLB   C1D21621   0.064  13.055  31.996 -0.1187 -0.0503  0.2208
  901BOLB   C2D21622  26.733  13.166  31.846  0.2975 -0.1244 -0.2375
  901BOLB   C3D21623  26.386  13.121  31.617 -0.2761  0.1948  0.0123
  901BOLB   C4D21624  25.955  13.029  31.688 -0.1992 -0.0218 -0.1793
  902BOLB   NC121625  21.193   7.906  22.773  0.1942 -0.2252 -0.0702
  902BOLB   PO121626  21.001   7.802  22.370 -0.0958 -0.1229 -0.2370
  902BOLB   GL121627  21.288   7.911  22.028  0.5542 -0.0324 -0.0347
  902BOLB   GL221628  20.986   7.979  21.905 -0.1420 -0.1610  0.0671
  902BOLB   C1A21629  21.458   7.508  21.720 -0.0795  0.0674  0.0084
  902BOLB   C2A21630  21.695   7.140  21.676  0.3238  0.0487  0.2349
  902BOLB   C3A21631  22.153   6.922  21.715  0.2782 -0.1698  0.1626
  902BOLB   C4A21632  22.443   6.949  21.401 -0.0984 -0.1381 -0.3301
  902BOLB   C1B21633  20.916   7.635  21.698  0.1421  0.0236  0.1005
  902BOLB   C2B21634  20.877   7.290  21.399 -0.3716  0.0566 -0.0516
  902BOLB   C3B21635  20.587   7.239  21.064  0.0020  0.1336  0.1121
  902BOLB   C4B21636  20.262   7.400  20.998 -0.0530  0.1834  0.3137
  902BOLB   NC221637  23.720   6.544  19.887 -0.0685 -0.0816  0.2687
  902BOLB   PO221638  23.890   6.680  19.440 -0.1975  0.2618  0.2235
  902BOLB   GL321639  23.470   6.783  19.539 -0.1272  0.0393  0.1582
  902BOLB   GL421640  23.601   7.025  19.716 -0.0114 -0.2075  0.1600
  902BOLB   C1C21641  23.171   6.838  19.750 -0.0654 -0.2040  0.2414
  902BOLB   C2C21642  22.940   6.799  20.166  0.0171  0.1703 -0.2451
  902BOLB   C3C21643  22.802   6.856  20.577 -0.0018 -0.0411  0.0936
  902BOLB   C4C21644  22.520   7.000  20.945 -0.1978  0.1930 -0.0780
  902BOLB   C1D21645  23.279   7.338  19.962 -0.0025 -0.1847 -0.1325
  902BOLB   C2D21646  22.934   7.571  20.127 -0.1912  0.0391  0.1829
  902BOLB   C3D21647  22.540   7.724  19.986 -0.1412 -0.0869 -0.0794
  902BOLB   C4D21648  22.010   7.529  19.794 -0.0866 -0.0733 -0.1593
  903BOLB   NC121649  18.056   8.875  38.687  0.0907  0.1924  0.0181
  903BOLB   PO121650  18.398   9.218  38.816  0.1864  0.0045 -0.2166
  903BOLB   GL121651  18.482   9.083  39.196 -0.0794  0.0473  0.1238
  903BOLB   GL221652  18.353   9.318  39.435 -0.3555 -0.0762  0.0030
  903BOLB   C1A21653  18.625   8.928  39.499 -0.1047 -0.0133  0.0888
  903BOLB   C2A21654  18.783   8.759  39.993  0.2255  0.2467  0.1267
  903BOLB   C3A21655  18.787   8.548  40.404 -0.0779  0.1212  0.1483
  903BOLB   C4A21656  18.647   8.645  40.851 -0.1379  0.0244  0.1047
  903BOLB   C1B21657  18.039   9.262  39.799 -0.0297  0.1496  0.0464
  903BOLB   C2B21658  18.135   9.320  40.226 -0.0283 -0.3295  0.2120
  903BOLB   C3B21659  18.222   9.226  40.716 -0.0283  0.2296  0.3375
  903BOLB   C4B21660  18.205   8.805  40.991  0.0512  0.2331  0.0202
  903BOLB   NC221661  17.953   7.059  42.860 -0.2192 -0.2526 -0.3242
  903BOLB   PO221662  18.380   7.026  42.951 -0.0667 -0.1566 -0.2433
  903BOLB   GL321663  18.327   7.309  42.541 -0.0363 -0.0625  0.0402
  903BOLB   GL421664  18.138   7.567  42.697 -0.1359 -0.1754 -0.2630
  903BOLB   C1C21665  18.365   7.526  42.130 -0.2987  0.1421  0.0879
  903BOLB   C2C21666  18.387   7.911  41.921  0.1051  0.2988 -0.1088
  903BOLB   C3C21667  18.329   8.099  41.493 -0.1146  0.0571  0.0109
  903BOLB   C4C21668  18.414   8.326  41.125 -0.2514  0.2620  0.3119
  903BOLB   C1D21669  17.928   8.007  42.767  0.0569 -0.1585  0.1803
  903BOLB   C2D21670  18.092   8.048  42.293 -0.0630  0.2858  0.1099
  903BOLB   C3D21671  18.076   8.318  41.903 -0.1962  0.2813 -0.2758
  903BOLB   C4D21672  17.888   8.383  41.528 -0.0783 -0.0439  0.2072
  904BOLB   NC121673  14.147   9.037  38.663 -0.1584  0.0433  0.1457
  904BOLB   PO121674  14.170   8.533  38.934 -0.0676  0.0201  0.1385
  904BOLB   GL121675  14.148   8.094  39.217 -0.2356  0.2666  0.1584
  904BOLB   GL221676  13.777   8.109  39.313 -0.0849 -0.1874  0.0545
  904BOLB   C1A21677  14.505   7.933  39.514 -0.0701 -0.0251  0.2635
  904BOLB   C2A21678  14.829   7.771  39.866  0.0554  0.0416  0.0999
  904BOLB   C3A21679  15.001   7.728  40.333  0.0881  0.0306  0.2209
  904BOLB   C4A21680  15.322   7.638  40.707 -0.0513  0.0796 -0.2105
  904BOLB   C1B21681  13.947   8.019  39.695 -0.2154  0.2341  0.0515
  904BOLB   C2B21682  13.930   8.224  40.257  0.1838  0.0497  0.1178
  904BOLB   C3B21683  14.246   8.274  40.605  0.2032  0.1366 -0.1136
  904BOLB   C4B21684  14.351   7.996  40.912 -0.3290  0.1461 -0.3742
  904BOLB   NC221685  14.664   6.695  42.673 -0.0337  0.0138  0.0847
  904BOLB   PO221686  14.780   6.933  43.041  0.3607  0.0213  0.1119
  904BOLB   GL321687  14.836   7.225  42.633 -0.0115  0.1605 -0.3019
  904BOLB   GL421688  14.717   7.541  42.665 -0.2056 -0.0701  0.3540
  904BOLB   C1C21689  15.028   7.567  42.254 -0.1128 -0.0184 -0.2133
  904BOLB   C2C21690  15.226   7.838  41.903 -0.0095  0.1071  0.3345
  904BOLB   C3C21691  15.460   7.829  41.484  0.0907  0.1515 -0.0183
  904BOLB   C4C21692  15.400   7.534  41.217 -0.1734 -0.1319  0.1393
  904BOLB   C1D21693  14.893   7.903  42.699  0.0174 -0.0547  0.3395
  904BOLB   C2D21694  15.145   8.262  42.508 -0.1761 -0.0643 -0.0551
  904BOLB   C3D21695  15.303   8.333  42.150 -0.0495  0.0215  0.0412
  904BOLB   C4D21696  15.433   8.698  41.788 -0.0621  0.0171 -0.2761
  905BOLB   NC121697   7.264  23.164  30.416  0.4853  0.1079  0.0662
  905BOLB   PO121698   6.959  22.902  30.651  0.0973  0.2063  0.1683
  905BOLB   GL121699   7.196  22.573  30.730 -0.2261  0.4049  0.0272
  905BOLB   GL221700   7.224  22.275  30.473 -0.4179  0.1975  0.4057
  905BOLB   C1A21701   7.572  22.407  30.779 -0.0432 -0.1063 -0.2560
  905BOLB   C2A21702   7.919  22.175  30.954 -0.1098  0.2050  0.1749
  905BOLB   C3A21703   8.333  22.004  30.974 -0.0299 -0.0576 -0.0506
  905BOLB   C4A21704   8.620  21.753  31.195 -0.0269  0.0074  0.1777
  905BOLB   C1B21705   7.402  22.346  30.149 -0.0693  0.2545  0.2773
  905BOLB   C2B21706   7.587  22.118  29.819 -0.0140  0.0778 -0.1999
  905BOLB   C3B21707   7.706  21.865  29.523 -0.1350 -0.0121  0.0830
  905BOLB   C4B21708   8.173  21.696  29.437 -0.6905 -0.2152  0.0553
  905BOLB   NC221709  10.066  19.732  31.826  0.5103 -0.0837  0.0685
  905BOLB   PO221710  10.406  19.801  31.616 -0.0342  0.2204 -0.0252
  905BOLB   GL321711  10.184  20.169  31.588 -0.4467 -0.0495  0.1957
  905BOLB   GL421712   9.931  20.161  31.737  0.2962 -0.1500  0.1030
  905BOLB   C1C21713   9.937  20.540  31.457  0.0568 -0.1964  0.0454
  905BOLB   C2C21714   9.763  21.057  31.398 -0.0299 -0.1036 -0.2432
  905BOLB   C3C21715   9.281  21.344  31.377 -0.0088  0.1201 -0.0767
  905BOLB   C4C21716   9.014  21.513  31.066  0.1050  0.3784  0.1704
  905BOLB   C1D21717   9.671  20.584  31.854 -0.2395  0.0394  0.0560
  905BOLB   C2D21718   9.468  21.082  31.839 -0.3235  0.1118  0.0118
  905BOLB   C3D21719   9.401  21.565  31.877  0.1720 -0.4709  0.6137
  905BOLB   C4D21720   9.467  21.918  31.753  0.0491  0.0676  0.3218
  906BOLB   NC121721  16.045  20.428  33.338  0.1162 -0.1256 -0.0414
  906BOLB   PO121722  16.328  20.272  33.629  0.2067 -0.0182  0.0794
  906BOLB   GL121723  16.688  20.558  33.447 -0.1242 -0.0501  0.1549
  906BOLB   GL221724  16.576  20.671  33.170 -0.0186  0.2821  0.2695
  906BOLB   C1A21725  16.914  20.911  33.463 -0.1392 -0.0062  0.0870
  906BOLB   C2A21726  17.133  21.169  33.687 -0.0216 -0.2627 -0.2256
  906BOLB   C3A21727  17.292  21.587  33.658  0.3668 -0.1349 -0.0436
  906BOLB   C4A21728  17.429  21.940  33.830  0.1952 -0.0195  0.0461
  906BOLB   C1B21729  16.413  20.933  33.615  0.0839  0.2502 -0.1879
  906BOLB   C2B21730  16.413  21.336  33.965  0.1948  0.1213  0.2264
  906BOLB   C3B21731  16.246  21.591  34.281 -0.0465 -0.1222 -0.1270
  906BOLB   C4B21732  16.171  21.930  34.607 -0.4302 -0.0660  0.2994
  906BOLB   NC221733  17.875  24.305  34.188  0.1332 -0.0383 -0.0772
  906BOLB   PO221734  18.099  24.074  34.554  0.0218 -0.3097 -0.1911
  906BOLB   GL321735  18.019  23.863  34.110  0.0599  0.1467  0.3192
  906BOLB   GL421736  18.295  23.685  33.970  0.0564 -0.2978  0.0311
  906BOLB   C1C21737  17.803  23.461  33.937  0.0333  0.0971 -0.2409
  906BOLB   C2C21738  17.645  23.058  33.921  0.1021 -0.3086 -0.3042
  906BOLB   C3C21739  17.504  22.692  34.146  0.1635  0.0890 -0.1297
  906BOLB   C4C21740  17.454  22.280  34.143 -0.2256 -0.1214 -0.3368
  906BOLB   C1D21741  18.300  23.262  33.915  0.0435  0.0952  0.0202
  906BOLB   C2D21742  18.423  22.916  34.254 -0.0578 -0.3968 -0.3933
  906BOLB   C3D21743  18.484  22.471  34.322  0.0833  0.1412 -0.0090
  906BOLB   C4D21744  18.531  22.012  34.394 -0.2086 -0.3982 -0.0003
  907BOLB   NC121745   9.865  15.035  25.023 -0.4077 -0.0358 -0.2184
  907BOLB   PO121746   9.886  15.123  24.661  0.1583  0.3257 -0.2525
  907BOLB   GL121747   9.485  15.216  24.477  0.0764  0.0891 -0.3983
  907BOLB   GL221748   9.212  15.597  24.444  0.0919  0.2480  0.1556
  907BOLB   C1A21749   8.958  15.220  24.272  0.3030  0.0509  0.1645
  907BOLB   C2A21750   8.594  15.349  24.086 -0.0607 -0.1758  0.1755
  907BOLB   C3A21751   8.236  15.392  23.877 -0.0379  0.3405 -0.0648
  907BOLB   C4A21752   7.959  15.366  23.566  0.2665 -0.0840  0.3934
  907BOLB   C1B21753   8.976  15.799  24.073 -0.0742  0.2867 -0.1589
  907BOLB   C2B21754   8.774  16.161  24.070  0.3018 -0.0494  0.2515
  907BOLB   C3B21755   8.473  16.295  23.846  0.0715 -0.0890 -0.1611
  907BOLB   C4B21756   7.932  16.336  23.724  0.0757  0.1418 -0.1223
  907BOLB   NC221757   6.190  15.410  22.366  0.1905  0.0571  0.2547
  907BOLB   PO221758   6.487  15.703  22.156 -0.1159  0.0047 -0.0359
  907BOLB   GL321759   6.530  15.700  22.587 -0.0824  0.0223 -0.1883
  907BOLB   GL421760   6.345  15.515  22.822 -0.3848 -0.1110  0.0455
  907BOLB   C1C21761   6.888  15.769  22.682 -0.0091  0.3822 -0.0950
  907BOLB   C2C21762   7.359  15.807  22.558 -0.2614 -0.0838 -0.0696
  907BOLB   C3C21763   7.561  15.733  22.895  0.0669 -0.1282 -0.2118
  907BOLB   C4C21764   7.605  15.566  23.363  0.0269 -0.3396  0.2076
  907BOLB   C1D21765   6.751  15.440  22.984 -0.0007  0.0314  0.3042
  907BOLB   C2D21766   7.139  15.573  23.203  0.0815  0.0555  0.1364
  907BOLB   C3D21767   7.248  15.452  23.713  0.1375  0.1015 -0.0487
  907BOLB   C4D21768   7.583  15.426  23.848  0.0535 -0.2766  0.3038
  908BOLB   NC121769  20.634   6.337  34.416  0.1295 -0.0267  0.2513
  908BOLB   PO121770  20.446   6.449  34.910 -0.0341 -0.3381 -0.1803
  908BOLB   GL121771  20.578   6.004  34.928 -0.2562  0.0783  0.0411
  908BOLB   GL221772  20.823   6.051  34.910 -0.3327  0.0845  0.0230
  908BOLB   C1A21773  20.547   5.722  35.087 -0.0164 -0.1596  0.0057
  908BOLB   C2A21774  20.916   5.383  35.101  0.1189  0.0798 -0.2283
  908BOLB   C3A21775  21.246   5.248  35.166  0.1192  0.3299  0.0769
  908BOLB   C4A21776  21.420   4.811  35.197 -0.2069  0.0109  0.0680
  908BOLB   C1B21777  21.238   6.019  35.103  0.0256 -0.0857 -0.1984
  908BOLB   C2B21778  21.467   5.863  35.483  0.2517 -0.0199 -0.0037
  908BOLB   C3B21779  21.455   5.634  35.861  0.0506  0.1178  0.0742
  908BOLB   C4B21780  21.589   5.242  36.148 -0.0313  0.2853  0.0819
  908BOLB   NC221781  23.170   3.646  35.258  0.0895 -0.0426 -0.1284
  908BOLB   PO221782  23.440   3.662  35.696  0.1346  0.2922 -0.0395
  908BOLB   GL321783  23.281   4.028  35.611 -0.2467 -0.0907  0.1986
  908BOLB   GL421784  23.295   4.245  35.215 -0.1478 -0.2664 -0.2377
  908BOLB   C1C21785  22.860   4.175  35.490 -0.0639 -0.3322  0.0924
  908BOLB   C2C21786  22.573   4.429  35.424 -0.2848 -0.0186 -0.3400
  908BOLB   C3C21787  22.117   4.572  35.567  0.5441  0.0638  0.2970
  908BOLB   C4C21788  21.811   4.794  35.380  0.0851 -0.2979  0.0476
  908BOLB   C1D21789  23.006   4.659  35.278  0.0548 -0.2005  0.0242
  908BOLB   C2D21790  22.845   5.095  35.365 -0.0377  0.0477 -0.1232
  908BOLB   C3D21791  22.518   5.450  35.204  0.0164 -0.1824  0.0590
  908BOLB   C4D21792  22.201   5.636  34.932 -0.1924 -0.0138  0.1572
  909BOLB   NC121793   7.871  14.884  26.515  0.3295  0.2768  0.1092
  909BOLB   PO121794   8.100  14.513  26.288  0.1154 -0.1597 -0.0472
  909BOLB   GL121795   8.003  14.524  25.831  0.0604 -0.0552  0.0091
  909BOLB   GL221796   7.821  14.742  25.972  0.2757  0.1195  0.2131
  909BOLB   C1A21797   7.760  14.459  25.487  0.0124  0.0648 -0.2851
  909BOLB   C2A21798   7.389  14.488  25.246 -0.0772  0.0795 -0.1872
  909BOLB   C3A21799   6.993  14.563  25.281 -0.1642  0.1165  0.4447
  909BOLB   C4A21800   6.494  14.581  25.224 -0.1331 -0.0658 -0.0848
  909BOLB   C1B21801   7.421  14.779  25.672  0.2425  0.2485 -0.0325
  909BOLB   C2B21802   7.055  15.029  25.622 -0.3309  0.1419  0.1270
  909BOLB   C3B21803   6.723  14.820  25.669  0.0663 -0.0916 -0.0423
  909BOLB   C4B21804   6.539  14.712  25.988  0.3502 -0.0632  0.0536
  909BOLB   NC221805   4.489  14.332  24.249  0.0663 -0.1236 -0.1125
  909BOLB   PO221806   4.368  14.278  24.723  0.1273  0.1371  0.2919
  909BOLB   GL321807   4.645  14.284  25.023 -0.1533  0.0267  0.1425
  909BOLB   GL421808   4.584  14.541  25.196  0.1431 -0.2162 -0.1476
  909BOLB   C1C21809   4.821  14.120  25.373  0.0119 -0.4703  0.2133
  909BOLB   C2C21810   5.206  14.232  25.612  0.3297  0.1474  0.5375
  909BOLB   C3C21811   5.706  14.135  25.592  0.1054 -0.3080  0.0545
  909BOLB   C4C21812   5.971  14.428  25.323  0.3168 -0.0545 -0.0587
  909BOLB   C1D21813   4.907  14.659  25.565 -0.3536  0.1136 -0.1112
  909BOLB   C2D21814   5.226  14.997  25.745 -0.1718  0.0754  0.2989
  909BOLB   C3D21815   5.634  15.014  25.931 -0.0391 -0.1379  0.0959
  909BOLB   C4D21816   6.015  15.040  26.077  0.0389 -0.1276  0.2297
  910BOLB   NC121817  22.992  10.427  24.072 -0.2888 -0.2933  0.3498
  910BOLB   PO121818  22.784  10.817  23.809  0.1266 -0.0402 -0.2481
  910BOLB   GL121819  23.215  10.938  23.806  0.1033  0.2922  0.3167
  910BOLB   GL221820  23.387  10.892  24.139 -0.0192 -0.1436 -0.4316
  910BOLB   C1A21821  23.636  10.937  23.689  0.2168  0.0142  0.1810
  910BOLB   C2A21822  24.052  10.701  23.835 -0.1009 -0.2024 -0.0784
  910BOLB   C3A21823  24.365  10.682  24.161  0.3653 -0.1196 -0.0656
  910BOLB   C4A21824  24.798  10.810  24.229 -0.0241  0.1959 -0.0473
  910BOLB   C1B21825  23.798  11.004  24.202 -0.3752 -0.2611 -0.0422
  910BOLB   C2B21826  24.235  11.119  24.348 -0.2424  0.0368  0.1790
  910BOLB   C3B21827  24.593  11.293  24.383  0.1700 -0.2273 -0.0259
  910BOLB   C4B21828  25.011  11.278  24.338  0.3303 -0.0633 -0.0240
  910BOLB   NC221829  26.667  11.277  23.355  0.1920  0.0662 -0.1199
  910BOLB   PO221830  26.938  11.359  23.724 -0.2054  0.2211 -0.1015
  910BOLB   GL321831  26.671  11.051  24.006 -0.1623  0.2594 -0.2912
  910BOLB   GL421832  26.557  11.119  24.295  0.0799  0.0259 -0.0454
  910BOLB   C1C21833  26.444  10.687  24.020  0.0795  0.1904 -0.3321
  910BOLB   C2C21834  26.071  10.497  24.103 -0.3859  0.1076  0.2949
  910BOLB   C3C21835  25.594  10.427  24.311  0.0019  0.1233  0.0363
  910BOLB   C4C21836  25.242  10.772  24.296 -0.1593  0.2275  0.2393
  910BOLB   C1D21837  26.227  10.858  24.488 -0.1781 -0.2066  0.1876
  910BOLB   C2D21838  25.872  10.705  24.624 -0.0890 -0.2097  0.1204
  910BOLB   C3D21839  25.484  10.608  24.894  0.0359 -0.0472 -0.0445
  910BOLB   C4D21840  25.157  10.901  25.046  0.0162 -0.2374 -0.1236
  911BOLB   NC121841  21.929   9.761  22.507  0.0970  0.1386  0.3764
  911BOLB   PO121842  21.724   9.377  22.336 -0.5165  0.0238  0.1635
  911BOLB   GL121843  22.003   9.169  22.050 -0.2606 -0.0279  0.2969
  911BOLB   GL221844  22.295   8.963  22.082  0.0857  0.0206 -0.1455
  911BOLB   C1A21845  22.087   9.024  21.622  0.0470 -0.0730 -0.0182
  911BOLB   C2A21846  22.128   8.680  21.349 -0.3486  0.0792 -0.0159
  911BOLB   C3A21847  22.204   8.437  20.936  0.0939  0.0530 -0.0009
  911BOLB   C4A21848  22.365   8.354  20.522  0.2044 -0.1927 -0.1059
  911BOLB   C1B21849  22.515   8.717  21.779 -0.1887 -0.0914  0.3670
  911BOLB   C2B21850  22.640   8.337  21.548 -0.0477  0.1431  0.0870
  911BOLB   C3B21851  22.658   8.220  21.116 -0.1287 -0.1937  0.2098
  911BOLB   C4B21852  22.854   8.224  20.706 -0.1597 -0.2172  0.1669
  911BOLB   NC221853  23.605   7.026  18.681 -0.1212  0.1582 -0.0309
  911BOLB   PO221854  23.380   6.744  18.786  0.0371  0.2155 -0.3497
  911BOLB   GL321855  23.236   7.163  18.933  0.0611  0.0797  0.2776
  911BOLB   GL421856  23.004   7.385  18.854 -0.2626  0.1056 -0.0725
  911BOLB   C1C21857  23.280   7.391  19.402  0.1096  0.0019 -0.0935
  911BOLB   C2C21858  23.283   7.786  19.668  0.1194 -0.3296  0.0512
  911BOLB   C3C21859  22.883   8.076  19.813 -0.0660 -0.1323 -0.0641
  911BOLB   C4C21860  22.590   8.160  20.194 -0.1039  0.1659 -0.0099
  911BOLB   C1D21861  22.688   7.431  19.268 -0.1921  0.1328 -0.1773
  911BOLB   C2D21862  22.426   7.881  19.532 -0.1336 -0.0822  0.3776
  911BOLB   C3D21863  22.151   8.014  19.820  0.0300  0.0478  0.1783
  911BOLB   C4D21864  21.997   8.373  20.118 -0.1725 -0.0421 -0.2962
  912BOLB   NC121865  19.307   7.709  21.477 -0.2617 -0.2188  0.2376
  912BOLB   PO121866  19.117   7.343  21.491  0.1339 -0.0062  0.4311
  912BOLB   GL121867  19.333   7.054  21.246  0.0978 -0.0202 -0.0267
  912BOLB   GL221868  19.635   6.971  21.229  0.1129  0.3589 -0.1346
  912BOLB   C1A21869  19.226   6.692  21.060 -0.0638  0.2193 -0.0072
  912BOLB   C2A21870  19.523   6.461  20.860 -0.1849  0.3169  0.0133
  912BOLB   C3A21871  19.929   6.445  20.646  0.0913 -0.1178 -0.2263
  912BOLB   C4A21872  20.306   6.454  20.379  0.1694  0.1594 -0.1045
  912BOLB   C1B21873  19.765   7.126  20.769  0.1256  0.3885 -0.0741
  912BOLB   C2B21874  20.104   6.909  20.500  0.2536 -0.2666  0.1479
  912BOLB   C3B21875  20.020   6.712  19.912 -0.2300  0.1648 -0.2169
  912BOLB   C4B21876  19.964   6.666  19.457  0.2739  0.0208 -0.3823
  912BOLB   NC221877  20.901   4.428  18.796  0.0316  0.0456 -0.1224
  912BOLB   PO221878  20.938   4.783  18.994 -0.0014 -0.5426  0.0777
  912BOLB   GL321879  21.063   5.127  19.288  0.0170 -0.4037  0.2649
  912BOLB   GL421880  21.120   5.013  19.494  0.0837 -0.0945 -0.0976
  912BOLB   C1C21881  21.240   5.477  19.574  0.3137 -0.2609  0.1946
  912BOLB   C2C21882  21.071   5.506  19.981  0.2324  0.0249  0.4640
  912BOLB   C3C21883  20.895   5.797  20.297 -0.3550  0.0668 -0.0378
  912BOLB   C4C21884  20.741   6.205  20.395 -0.0739 -0.0780  0.0293
  912BOLB   C1D21885  20.769   5.188  19.721 -0.0567 -0.0576  0.0800
  912BOLB   C2D21886  20.542   5.512  19.829 -0.2046 -0.1616  0.2098
  912BOLB   C3D21887  20.281   5.909  19.895 -0.2287  0.1027  0.0450
  912BOLB   C4D21888  20.292   6.002  20.412 -0.1202 -0.0970 -0.2555
  913BOLB   NC121889  13.959  16.350  38.893 -0.1273 -0.1223  0.2480
  913BOLB   PO121890  13.567  16.239  39.064  0.2719  0.1468  0.3271
  913BOLB   GL121891  13.822  16.096  39.311 -0.0687 -0.0398 -0.2776
  913BOLB   GL221892  14.106  16.281  39.421 -0.0228 -0.0207  0.0949
  913BOLB   C1A21893  13.746  16.132  39.795  0.0992 -0.1601  0.1931
  913BOLB   C2A21894  13.524  16.345  39.970  0.3295  0.2063 -0.1833
  913BOLB   C3A21895  13.752  16.441  40.343  0.1419  0.2398 -0.0493
  913BOLB   C4A21896  13.809  16.281  40.687  0.0413 -0.0242 -0.0623
  913BOLB   C1B21897  13.737  16.644  39.515 -0.2192  0.0764  0.1579
  913BOLB   C2B21898  13.605  16.807  39.860  0.1255  0.0702  0.2115
  913BOLB   C3B21899  13.550  17.051  40.219  0.1024 -0.2837  0.0128
  913BOLB   C4B21900  13.344  17.347  40.397 -0.3037 -0.1128  0.1620
  913BOLB   NC221901  14.060  17.562  43.181  0.1259 -0.2933 -0.0100
  913BOLB   PO221902  14.298  17.664  42.804  0.0946 -0.3784  0.0381
  913BOLB   GL321903  14.533  17.414  42.500  0.2796  0.2239 -0.2187
  913BOLB   GL421904  14.769  17.306  42.713 -0.0337  0.0685 -0.0095
  913BOLB   C1C21905  14.455  17.215  42.098 -0.3051 -0.1097 -0.0933
  913BOLB   C2C21906  14.274  17.072  41.678  0.0346  0.0725  0.1349
  913BOLB   C3C21907  14.184  16.938  41.318  0.0905  0.1062 -0.2216
  913BOLB   C4C21908  14.056  16.595  40.960 -0.1941  0.0545 -0.1337
  913BOLB   C1D21909  14.957  17.097  42.456 -0.0768 -0.0160  0.0482
  913BOLB   C2D21910  14.795  16.877  41.980  0.2486  0.2319  0.0212
  913BOLB   C3D21911  14.607  16.688  41.558  0.0075  0.2134 -0.0932
  913BOLB   C4D21912  14.551  16.530  41.055  0.0411 -0.1946 -0.2385
  914BOLB   NC121913  12.243  10.024  22.816  0.1001 -0.2241  0.3133
  914BOLB   PO121914  12.100   9.873  22.533 -0.1016  0.2002  0.1100
  914BOLB   GL121915  11.967   9.703  22.084 -0.1878 -0.1794 -0.0860
  914BOLB   GL221916  11.552   9.650  22.079  0.0116  0.2578 -0.0703
  914BOLB   C1A21917  11.761   9.340  21.792  0.2590 -0.2436 -0.2182
  914BOLB   C2A21918  11.459   9.203  21.505  0.0382  0.1263  0.3385
  914BOLB   C3A21919  11.209   8.856  21.445 -0.0205 -0.5548 -0.1185
  914BOLB   C4A21920  10.945   8.407  21.557 -0.1724 -0.0505  0.4132
  914BOLB   C1B21921  11.328   9.348  22.009 -0.0819 -0.2208 -0.7829
  914BOLB   C2B21922  11.066   9.108  21.878 -0.0554  0.1988  0.0573
  914BOLB   C3B21923  10.766   8.853  21.672 -0.0853  0.0829  0.1495
  914BOLB   C4B21924  10.484   8.557  21.775 -0.3667 -0.1668  0.1234
  914BOLB   NC221925   9.450   7.711  20.119  0.1850 -0.0039 -0.1537
  914BOLB   PO221926   9.250   7.499  20.430 -0.4487  0.2029 -0.3292
  914BOLB   GL321927   9.634   7.656  20.664 -0.1001 -0.1760  0.0890
  914BOLB   GL421928   9.769   7.900  20.475  0.0979 -0.0247 -0.1203
  914BOLB   C1C21929   9.843   7.630  21.040  0.1801 -0.1435 -0.1018
  914BOLB   C2C21930  10.126   7.677  21.301 -0.1800 -0.0661 -0.0676
  914BOLB   C3C21931  10.308   8.028  21.542  0.3088 -0.0025  0.1055
  914BOLB   C4C21932  10.690   8.134  21.623  0.0935 -0.0770  0.1671
  914BOLB   C1D21933  10.119   7.615  20.592 -0.1467 -0.1294 -0.0660
  914BOLB   C2D21934  10.419   7.737  20.789 -0.0494  0.2582 -0.0223
  914BOLB   C3D21935  10.661   7.733  21.094  0.2192  0.0437 -0.2709
  914BOLB   C4D21936  11.033   7.833  21.300  0.4008  0.3879  0.0342
  915BOLB   NC121937   8.803  16.934  26.172 -0.1270  0.0131 -0.3261
  915BOLB   PO121938   8.815  16.996  26.701 -0.0543 -0.1289 -0.0270
  915BOLB   GL121939   8.471  17.238  26.501 -0.2718 -0.1423 -0.0851
  915BOLB   GL221940   8.272  17.261  26.706 -0.0409 -0.0862 -0.0232
  915BOLB   C1A21941   8.311  17.332  26.171  0.0819  0.2033 -0.3151
  915BOLB   C2A21942   7.921  17.186  25.948  0.1856 -0.0308 -0.0486
  915BOLB   C3A21943   7.538  17.285  25.753 -0.0945  0.1047  0.4611
  915BOLB   C4A21944   7.091  17.349  25.651 -0.0396  0.1762 -0.3221
  915BOLB   C1B21945   7.913  17.472  26.474  0.0361  0.1439  0.2477
  915BOLB   C2B21946   7.520  17.641  26.485  0.2275 -0.0376  0.0802
  915BOLB   C3B21947   7.133  17.766  26.480  0.1540 -0.1554  0.0780
  915BOLB   C4B21948   7.062  18.201  26.559 -0.0079  0.4021  0.0820
  915BOLB   NC221949   5.595  18.472  24.145  0.0092  0.1058 -0.0361
  915BOLB   PO221950   5.434  18.750  24.449  0.2817 -0.2935 -0.2156
  915BOLB   GL321951   5.712  18.483  24.737 -0.0829 -0.2047  0.0342
  915BOLB   GL421952   5.942  18.583  24.876 -0.0292  0.3444 -0.0663
  915BOLB   C1C21953   5.891  18.052  25.007  0.0310  0.2510  0.0107
  915BOLB   C2C21954   6.186  17.697  25.120 -0.1284 -0.3398  0.1925
  915BOLB   C3C21955   6.406  17.496  25.352 -0.0958  0.2363 -0.0079
  915BOLB   C4C21956   6.751  17.306  25.587  0.2205 -0.1789 -0.0890
  915BOLB   C1D21957   6.301  18.321  24.697  0.1289  0.0076  0.1923
  915BOLB   C2D21958   6.510  17.841  24.708  0.0928 -0.0321  0.1372
  915BOLB   C3D21959   6.869  17.757  24.826 -0.1523  0.0469 -0.0139
  915BOLB   C4D21960   6.989  17.680  25.207 -0.0687 -0.1690  0.0141
  916BOLB   NC121961  19.864  16.887  36.657 -0.1181  0.0994  0.2015
  916BOLB   PO121962  19.557  17.193  36.559 -0.2094  0.5007  0.0436
  916BOLB   GL121963  19.510  17.299  37.008  0.0108  0.2739 -0.3170
  916BOLB   GL221964  19.184  17.422  37.185 -0.1324 -0.2622  0.0761
  916BOLB   C1A21965  19.722  17.600  37.195 -0.2411  0.0005 -0.0693
  916BOLB   C2A21966  19.856  17.834  37.567  0.0878  0.0133  0.0436
  916BOLB   C3A21967  19.957  18.064  37.895 -0.0308 -0.1047 -0.2196
  916BOLB   C4A21968  19.842  18.365  38.171 -0.1862 -0.0570  0.0504
  916BOLB   C1B21969  19.229  17.791  37.273 -0.3540 -0.1290 -0.2260
  916BOLB   C2B21970  19.281  18.010  37.595 -0.0940 -0.3856 -0.1726
  916BOLB   C3B21971  19.394  18.248  37.955  0.0875  0.0196 -0.0046
  916BOLB   C4B21972  19.423  18.730  37.947  0.2493  0.0366  0.0370
  916BOLB   NC221973  21.493  20.396  38.581 -0.2603  0.0389  0.0783
  916BOLB   PO221974  21.189  20.173  38.760 -0.2303 -0.2748 -0.5263
  916BOLB   GL321975  20.888  19.941  38.539  0.0452  0.0914 -0.2440
  916BOLB   GL421976  21.062  19.734  38.366 -0.0372  0.1511  0.1599
  916BOLB   C1C21977  20.485  19.729  38.471  0.1626 -0.1950 -0.4194
  916BOLB   C2C21978  20.239  19.437  38.582  0.2485 -0.1949 -0.2195
  916BOLB   C3C21979  20.188  18.966  38.416 -0.1810 -0.0902  0.2012
  916BOLB   C4C21980  19.952  18.635  38.393 -0.1809  0.1192  0.1601
  916BOLB   C1D21981  21.527  19.514  38.176 -0.1077 -0.1617  0.0678
  916BOLB   C2D21982  21.681  19.526  37.772  0.1318  0.0207  0.1257
  916BOLB   C3D21983  21.673  19.220  37.333 -0.1544 -0.0070  0.3958
  916BOLB   C4D21984  21.664  19.014  36.883  0.1208  0.0582 -0.0671
  917BOLB   NC121985  13.415  11.776  39.037  0.0264 -0.0702  0.5238
  917BOLB   PO121986  13.420  11.460  39.348 -0.1170  0.3102  0.0708
  917BOLB   GL121987  13.192  11.450  39.760 -0.1231 -0.3767  0.0619
  917BOLB   GL221988  13.270  11.089  39.716 -0.3716 -0.1671 -0.1415
  917BOLB   C1A21989  13.066  11.440  40.177  0.0196 -0.0840  0.3695
  917BOLB   C2A21990  13.147  11.500  40.655 -0.1030  0.0433 -0.1891
  917BOLB   C3A21991  13.126  11.458  41.072 -0.0366 -0.2186 -0.1987
  917BOLB   C4A21992  12.850  11.463  41.410 -0.1885 -0.2375 -0.0324
  917BOLB   C1B21993  13.051  10.925  40.096 -0.3028  0.0260 -0.1546
  917BOLB   C2B21994  13.143  10.994  40.592  0.3843  0.2700  0.0368
  917BOLB   C3B21995  13.373  11.098  40.889  0.1722 -0.1195 -0.2576
  917BOLB   C4B21996  13.498  11.011  41.361 -0.0862  0.1473  0.3180
  917BOLB   NC221997  12.064  11.919  43.460 -0.2516 -0.0256 -0.0593
  917BOLB   PO221998  11.680  11.925  43.482 -0.1653 -0.0656 -0.0472
  917BOLB   GL321999  11.658  11.942  43.069 -0.0528 -0.0040  0.3790
  917BOLB   GL422000  11.929  11.804  42.970  0.0025  0.0934 -0.3159
  917BOLB   C1C22001  11.716  11.949  42.528  0.2335  0.1677 -0.1032
  917BOLB   C2C22002  11.884  11.742  42.169  0.0817  0.1818 -0.2910
  917BOLB   C3C22003  12.136  11.896  41.781 -0.2975  0.2479 -0.0393
  917BOLB   C4C22004  12.597  11.804  41.655  0.1285  0.1888  0.1872
  917BOLB   C1D22005  12.119  11.571  42.665  0.0398 -0.0003 -0.0125
  917BOLB   C2D22006  12.343  11.640  42.234 -0.1187 -0.1216  0.0316
  917BOLB   C3D22007  12.764  11.495  42.211 -0.1574 -0.1839 -0.3226
  917BOLB   C4D22008  13.160  11.562  42.439  0.1984  0.1709  0.0629
  918BOLB   NC122009  25.259   6.423  22.283  0.0324  0.3219  0.0669
  918BOLB   PO122010  25.571   6.594  22.045  0.1103  0.2173  0.3552
  918BOLB   GL122011  25.287   6.961  22.046 -0.1386 -0.0657 -0.0350
  918BOLB   GL222012  25.055   6.919  22.241  0.3255 -0.0324 -0.0320
  918BOLB   C1A22013  25.020   7.283  21.960 -0.0365 -0.2133 -0.3440
  918BOLB   C2A22014  24.574   7.378  22.242 -0.1512  0.1171  0.0528
  918BOLB   C3A22015  24.177   7.653  22.255 -0.0017 -0.0648 -0.0628
  918BOLB   C4A22016  24.125   8.077  22.093 -0.1262  0.1002 -0.1077
  918BOLB   C1B22017  24.617   6.875  22.290 -0.1986  0.2052 -0.0085
  918BOLB   C2B22018  24.299   6.654  22.468  0.3195  0.1673  0.2848
  918BOLB   C3B22019  24.081   6.606  22.783  0.0001 -0.0616 -0.0743
  918BOLB   C4B22020  23.764   6.745  22.912  0.1892 -0.1426 -0.6313
  918BOLB   NC222021  26.133   8.295  21.429 -0.1136  0.0605 -0.0832
  918BOLB   PO222022  26.098   8.835  21.353  0.3362  0.1210 -0.0396
  918BOLB   GL322023  25.726   8.936  21.498 -0.0347 -0.0261  0.3399
  918BOLB   GL422024  25.674   9.325  21.585 -0.0358 -0.0272 -0.0123
  918BOLB   C1C22025  25.274   8.721  21.391 -0.0658  0.1652  0.1065
  918BOLB   C2C22026  24.814   8.506  21.169 -0.0231 -0.0806 -0.0435
  918BOLB   C3C22027  24.460   8.558  21.509 -0.0532 -0.2962 -0.0963
  918BOLB   C4C22028  24.101   8.427  21.832 -0.0204 -0.2744  0.1094
  918BOLB   C1D22029  25.332   9.498  21.597 -0.1463 -0.1767 -0.0775
  918BOLB   C2D22030  25.132   9.846  21.807  0.2436 -0.0128 -0.1794
  918BOLB   C3D22031  24.814  10.066  22.022 -0.2698  0.2076 -0.0359
  918BOLB   C4D22032  24.897  10.070  22.513  0.0328  0.0160  0.1454
  919BOLB   NC122033  22.483  17.202  18.213  0.1641  0.1356  0.0460
  919BOLB   PO122034  22.384  16.802  18.029 -0.0508 -0.0451  0.0452
  919BOLB   GL122035  22.063  16.480  18.058  0.1299  0.0787  0.1401
  919BOLB   GL222036  21.713  16.451  18.097 -0.2282  0.1697  0.4779
  919BOLB   C1A22037  21.988  16.058  18.247  0.0695 -0.1209  0.0642
  919BOLB   C2A22038  21.751  15.774  18.444 -0.2044 -0.1694  0.1774
  919BOLB   C3A22039  21.701  15.309  18.493  0.2022  0.1047 -0.3150
  919BOLB   C4A22040  21.550  14.826  18.471  0.0015  0.2194  0.0631
  919BOLB   C1B22041  21.461  16.036  18.076 -0.0117  0.0071 -0.2691
  919BOLB   C2B22042  21.398  15.636  18.132 -0.0282  0.0444  0.0922
  919BOLB   C3B22043  21.171  15.301  18.362 -0.2153  0.0809 -0.0907
  919BOLB   C4B22044  21.062  14.966  18.491  0.1040 -0.1679  0.4539
  919BOLB   NC222045  22.043  14.930  15.967  0.1136 -0.1540  0.0216
  919BOLB   PO222046  21.625  14.691  16.099  0.0705  0.0242 -0.1846
  919BOLB   GL322047  21.566  14.399  16.471 -0.4623  0.2206 -0.0072
  919BOLB   GL422048  21.744  14.108  16.406  0.0157  0.0141  0.0362
  919BOLB   C1C22049  21.437  14.251  16.965 -0.1067 -0.0721 -0.0366
  919BOLB   C2C22050  21.387  14.082  17.438 -0.0875 -0.3772 -0.0262
  919BOLB   C3C22051  21.481  14.259  17.926 -0.3480  0.3595 -0.0514
  919BOLB   C4C22052  21.432  14.536  18.288  0.2176  0.0087  0.1755
  919BOLB   C1D22053  21.838  14.009  16.763 -0.3328  0.4128  0.0611
  919BOLB   C2D22054  21.806  14.024  17.208 -0.2561 -0.0528  0.4845
  919BOLB   C3D22055  21.804  13.938  17.668 -0.1303 -0.1151 -0.1472
  919BOLB   C4D22056  21.697  13.786  18.126  0.2074  0.0559  0.0848
  920BOLB   NC122057   7.625  15.957  32.051 -0.4191 -0.0587 -0.1194
  920BOLB   PO122058   7.940  16.191  32.254  0.1932  0.0057  0.0749
  920BOLB   GL122059   7.529  16.395  32.344 -0.2983  0.2051 -0.5160
  920BOLB   GL222060   7.196  16.094  32.448  0.2579  0.1505  0.0098
  920BOLB   C1A22061   7.187  16.606  32.454 -0.4642  0.0155 -0.2509
  920BOLB   C2A22062   6.834  16.899  32.373 -0.2577  0.0022  0.0629
  920BOLB   C3A22063   6.456  17.087  32.191 -0.1915 -0.2961 -0.2217
  920BOLB   C4A22064   6.205  17.501  32.415  0.2124 -0.2606 -0.3039
  920BOLB   C1B22065   6.800  15.965  32.570  0.0384  0.0243 -0.2034
  920BOLB   C2B22066   6.442  16.047  32.669  0.1102 -0.0361 -0.3941
  920BOLB   C3B22067   6.155  15.867  33.007  0.2126  0.2394  0.1193
  920BOLB   C4B22068   5.849  15.663  33.254 -0.0963  0.0663  0.2602
  920BOLB   NC222069   3.950  18.906  33.717 -0.0104 -0.0818 -0.2954
  920BOLB   PO222070   4.262  18.685  33.526  0.3589  0.0439 -0.0565
  920BOLB   GL322071   4.518  18.326  33.547 -0.0792 -0.0808 -0.2943
  920BOLB   GL422072   4.782  18.472  33.689 -0.2053 -0.0340  0.0149
  920BOLB   C1C22073   4.865  18.051  33.351 -0.3183  0.2445  0.3127
  920BOLB   C2C22074   5.194  17.764  33.112 -0.1961 -0.0154 -0.0423
  920BOLB   C3C22075   5.430  17.668  32.693  0.3264  0.2237 -0.3774
  920BOLB   C4C22076   5.770  17.577  32.547  0.1906 -0.1726  0.0066
  920BOLB   C1D22077   5.207  18.085  33.763 -0.0052 -0.0570  0.2965
  920BOLB   C2D22078   5.623  17.824  33.752 -0.2760  0.0378 -0.0411
  920BOLB   C3D22079   6.090  17.756  33.968 -0.1935 -0.0499 -0.0911
  920BOLB   C4D22080   6.266  17.965  34.333  0.1191  0.0967 -0.0157
  921BOLB   NC122081  22.998   8.920  33.188 -0.2413  0.0459 -0.1408
  921BOLB   PO122082  22.860   8.951  32.778 -0.1412 -0.0972 -0.3598
  921BOLB   GL122083  23.362   8.990  32.870  0.1860  0.0947  0.1363
  921BOLB   GL222084  23.551   8.833  33.228  0.1029 -0.2405  0.2689
  921BOLB   C1A22085  23.844   8.880  32.857  0.1254  0.1562  0.1260
  921BOLB   C2A22086  24.276   8.828  32.864 -0.0596 -0.0666 -0.0035
  921BOLB   C3A22087  24.613   8.579  32.964  0.0486 -0.0995  0.1681
  921BOLB   C4A22088  24.989   8.279  33.002  0.0647  0.5141  0.2017
  921BOLB   C1B22089  23.890   8.549  33.297  0.0972 -0.4580  0.1580
  921BOLB   C2B22090  24.163   8.264  33.363 -0.1936  0.0878 -0.3975
  921BOLB   C3B22091  24.346   8.046  33.626 -0.0163  0.1809 -0.1481
  921BOLB   C4B22092  24.597   7.896  33.765 -0.4669 -0.0044 -0.1913
  921BOLB   NC222093  26.850   7.574  32.901 -0.3244  0.1097 -0.2827
  921BOLB   PO222094  26.589   7.445  33.237  0.0052 -0.1976 -0.0969
  921BOLB   GL322095  26.402   7.402  32.731 -0.2679  0.3858 -0.0196
  921BOLB   GL422096  26.598   7.551  32.480  0.0955 -0.3094  0.2455
  921BOLB   C1C22097  26.195   7.830  32.644 -0.1591 -0.2031  0.2321
  921BOLB   C2C22098  25.663   7.881  32.629  0.0940 -0.1222 -0.1234
  921BOLB   C3C22099  25.276   7.669  32.736  0.0901  0.0124  0.2017
  921BOLB   C4C22100  25.011   7.791  32.953 -0.0270 -0.1284 -0.0022
  921BOLB   C1D22101  26.256   7.668  32.145 -0.1591 -0.0557  0.2396
  921BOLB   C2D22102  25.903   8.023  32.193 -0.0814  0.1611  0.0523
  921BOLB   C3D22103  25.567   8.408  32.243 -0.0297  0.3328 -0.0586
  921BOLB   C4D22104  25.174   8.574  32.183  0.2061  0.3178 -0.1742
  922BOLB   NC122105   5.953  16.765  38.287  0.1976 -0.2935  0.0482
  922BOLB   PO122106   5.831  16.664  37.820 -0.0450  0.0428  0.1345
  922BOLB   GL122107   6.151  16.670  37.452 -0.1347  0.0437 -0.2023
  922BOLB   GL222108   5.985  16.776  37.108  0.0350 -0.0863  0.2133
  922BOLB   C1A22109   6.611  16.765  37.248 -0.0891 -0.0317  0.0803
  922BOLB   C2A22110   7.052  16.852  36.891  0.0515 -0.1055  0.1390
  922BOLB   C3A22111   7.235  17.021  36.619 -0.0695 -0.2589 -0.0282
  922BOLB   C4A22112   7.338  17.418  36.504  0.1126  0.2495  0.2131
  922BOLB   C1B22113   6.400  16.748  36.770  0.3026  0.0024 -0.1361
  922BOLB   C2B22114   6.653  16.658  36.424  0.0723  0.1736 -0.2127
  922BOLB   C3B22115   7.069  16.549  36.338  0.0609 -0.0674 -0.0306
  922BOLB   C4B22116   7.489  16.532  36.577  0.3646  0.0476 -0.0203
  922BOLB   NC222117   5.794  18.794  36.779  0.2668 -0.1184  0.0123
  922BOLB   PO222118   5.582  18.346  36.808 -0.0865  0.1192  0.1980
  922BOLB   GL322119   6.072  18.388  36.738 -0.0595 -0.2473  0.0055
  922BOLB   GL422120   6.147  18.234  36.390  0.0258 -0.0556 -0.4947
  922BOLB   C1C22121   6.551  18.318  36.766 -0.1561  0.1919  0.0903
  922BOLB   C2C22122   6.979  18.481  36.521  0.2715  0.0722  0.2698
  922BOLB   C3C22123   7.247  18.266  36.234 -0.1745 -0.0702  0.1497
  922BOLB   C4C22124   7.370  17.732  36.271  0.1829 -0.2111 -0.1891
  922BOLB   C1D22125   6.226  17.759  36.317  0.2027  0.0951 -0.1563
  922BOLB   C2D22126   6.380  17.609  35.924  0.0860  0.1660  0.1793
  922BOLB   C3D22127   6.695  17.594  35.647 -0.1591 -0.0167 -0.1406
  922BOLB   C4D22128   7.099  17.690  35.428  0.1153 -0.0462  0.4198
  923BOLB   NC122129  23.028   9.421  30.630 -0.1489 -0.3636 -0.0688
  923BOLB   PO122130  23.307   9.152  30.459  0.1197  0.0659 -0.0202
  923BOLB   GL122131  23.659   9.067  30.622 -0.0191 -0.3256  0.3719
  923BOLB   GL222132  23.835   9.151  30.901  0.2703  0.1369  0.1387
  923BOLB   C1A22133  23.926   8.803  30.515  0.1883 -0.3457  0.0101
  923BOLB   C2A22134  24.214   8.549  30.378  0.1697 -0.2428 -0.0844
  923BOLB   C3A22135  24.519   8.237  30.278 -0.2512  0.1434 -0.0128
  923BOLB   C4A22136  24.715   7.880  30.270 -0.0618 -0.4124  0.0068
  923BOLB   C1B22137  24.239   8.888  30.926  0.2989 -0.1486  0.1707
  923BOLB   C2B22138  24.426   8.533  30.856  0.1202 -0.4067 -0.0552
  923BOLB   C3B22139  24.630   8.256  30.929 -0.1565  0.2229  0.1262
  923BOLB   C4B22140  24.878   7.893  30.961  0.0812  0.1812  0.0602
  923BOLB   NC222141  26.689   6.919  31.682 -0.3646  0.2788 -0.2811
  923BOLB   PO222142  26.842   7.205  31.387 -0.0138  0.2068  0.0444
  923BOLB   GL322143  26.479   7.415  31.478 -0.2662  0.2948 -0.2547
  923BOLB   GL422144  26.489   7.426  31.734  0.0889  0.0785 -0.1873
  923BOLB   C1C22145  26.078   7.353  31.327  0.1246 -0.4626  0.4982
  923BOLB   C2C22146  25.770   7.406  30.921 -0.0533  0.0534 -0.0394
  923BOLB   C3C22147  25.300   7.439  30.749 -0.0253 -0.1731 -0.4900
  923BOLB   C4C22148  25.014   7.599  30.361 -0.1912 -0.1239 -0.2519
  923BOLB   C1D22149  25.970   7.662  31.727 -0.1046 -0.1688 -0.2256
  923BOLB   C2D22150  25.566   7.911  31.879  0.3032 -0.0303  0.1956
  923BOLB   C3D22151  25.202   8.066  32.137 -0.1247  0.0254  0.1077
  923BOLB   C4D22152  24.838   8.165  31.928 -0.0158 -0.1575  0.1519
  924BOLB   NC122153  14.165   9.568  38.574 -0.0436 -0.0774 -0.1606
  924BOLB   PO122154  13.973   9.373  39.013  0.1813  0.1815  0.1887
  924BOLB   GL122155  13.695   9.208  39.403  0.4079 -0.0857  0.2793
  924BOLB   GL222156  13.374   8.991  39.308 -0.3839 -0.1952  0.2201
  924BOLB   C1A22157  13.598   9.234  39.865  0.1325  0.1717  0.4112
  924BOLB   C2A22158  13.508   9.212  40.256 -0.3439 -0.1090 -0.1905
  924BOLB   C3A22159  13.317   8.983  40.466  0.1365 -0.3003  0.2227
  924BOLB   C4A22160  12.949   8.931  40.718 -0.1517  0.0179  0.0055
  924BOLB   C1B22161  13.086   8.659  39.585  0.1020 -0.3901  0.4020
  924BOLB   C2B22162  13.028   8.386  39.868 -0.0241 -0.0883 -0.1508
  924BOLB   C3B22163  12.678   8.147  40.149  0.0360  0.0860  0.1879
  924BOLB   C4B22164  12.440   8.095  40.506 -0.1662 -0.1876 -0.4946
  924BOLB   NC222165  11.584   8.372  42.037  0.3300 -0.2969  0.1243
  924BOLB   PO222166  11.342   8.083  41.937  0.1357 -0.1456 -0.0706
  924BOLB   GL322167  11.420   8.383  41.534 -0.1212 -0.2093  0.0881
  924BOLB   GL422168  11.200   8.509  41.306  0.2108  0.0085 -0.0607
  924BOLB   C1C22169  11.589   8.793  41.337  0.1070 -0.0685  0.1282
  924BOLB   C2C22170  11.788   9.008  41.102  0.0586 -0.1003  0.0782
  924BOLB   C3C22171  12.082   9.033  40.781 -0.0840 -0.0374 -0.0357
  924BOLB   C4C22172  12.429   9.126  40.531  0.0830  0.0603  0.1318
  924BOLB   C1D22173  11.529   8.541  40.927  0.1368  0.0261  0.0689
  924BOLB   C2D22174  11.729   8.646  40.622 -0.0567 -0.2731 -0.1518
  924BOLB   C3D22175  12.081   8.706  40.334 -0.1543  0.0831 -0.2862
  924BOLB   C4D22176  12.256   9.061  40.015 -0.0376  0.1717 -0.2536
  925BOLB   NC122177  21.809   7.684  24.450  0.0244  0.0533  0.1096
  925BOLB   PO122178  21.768   7.455  24.140  0.1102 -0.2423  0.1940
  925BOLB   GL122179  22.074   7.040  23.982  0.0998  0.0151  0.3448
  925BOLB   GL222180  22.286   6.774  24.193  0.3396  0.0346  0.4441
  925BOLB   C1A22181  22.244   6.789  23.592  0.0173 -0.1700 -0.0953
  925BOLB   C2A22182  22.432   6.553  23.405 -0.0324  0.1064 -0.0383
  925BOLB   C3A22183  22.533   6.366  23.199  0.0805  0.0579 -0.0526
  925BOLB   C4A22184  22.490   6.034  22.888 -0.0434  0.1660  0.2211
  925BOLB   C1B22185  22.213   6.366  24.079 -0.0191  0.0798  0.0499
  925BOLB   C2B22186  22.015   5.911  24.066 -0.0959  0.0328  0.3085
  925BOLB   C3B22187  21.864   5.452  24.032  0.3355 -0.1775 -0.2970
  925BOLB   C4B22188  21.997   5.068  24.039  0.0396  0.0372 -0.0071
  925BOLB   NC222189  23.339   4.599  21.961 -0.2148  0.1954 -0.2337
  925BOLB   PO222190  23.242   4.511  21.461  0.3322  0.0085 -0.3258
  925BOLB   GL322191  22.944   4.683  21.662  0.0980  0.0509  0.1459
  925BOLB   GL422192  22.989   4.955  21.786  0.2160  0.2869 -0.1389
  925BOLB   C1C22193  22.492   4.794  21.654  0.1454  0.2718 -0.0340
  925BOLB   C2C22194  22.292   4.997  21.965 -0.1496 -0.0392  0.4044
  925BOLB   C3C22195  22.283   5.391  22.286 -0.3103 -0.0649 -0.2304
  925BOLB   C4C22196  22.330   5.601  22.671 -0.1909  0.0293  0.3444
  925BOLB   C1D22197  22.811   5.118  22.180  0.2651 -0.0224  0.2330
  925BOLB   C2D22198  22.546   4.965  22.466  0.0545  0.2068 -0.1274
  925BOLB   C3D22199  22.109   4.725  22.441  0.0450 -0.1894  0.0778
  925BOLB   C4D22200  21.633   4.715  22.532 -0.3951 -0.1136 -0.0336
  926BOLB   NC122201   4.093  11.004  27.145  0.1715 -0.3365 -0.0520
  926BOLB   PO122202   4.147  10.532  27.223  0.1145  0.3356 -0.0911
  926BOLB   GL122203   4.632  10.520  27.133  0.1494 -0.2619  0.0983
  926BOLB   GL222204   4.756  10.407  27.438  0.0645  0.0543 -0.2051
  926BOLB   C1A22205   5.033  10.488  27.085 -0.2317 -0.0998 -0.1533
  926BOLB   C2A22206   5.138  10.748  26.951 -0.0659 -0.0829  0.0199
  926BOLB   C3A22207   5.547  10.848  26.945  0.3273 -0.2855  0.1988
  926BOLB   C4A22208   5.798  10.763  27.084 -0.1255  0.1341 -0.1541
  926BOLB   C1B22209   5.074  10.662  27.719 -0.1165  0.2230 -0.2447
  926BOLB   C2B22210   5.417  10.849  27.847  0.0176  0.1619 -0.0183
  926BOLB   C3B22211   5.801  11.113  27.924 -0.2483 -0.0387  0.0463
  926BOLB   C4B22212   6.176  11.138  27.949 -0.0068  0.5254  0.4853
  926BOLB   NC222213   7.689  10.909  27.951 -0.0884  0.1227 -0.3810
  926BOLB   PO222214   7.786  10.596  27.628  0.2145  0.2241 -0.0524
  926BOLB   GL322215   7.426  10.633  27.401 -0.1414  0.1585 -0.0888
  926BOLB   GL422216   7.615  10.517  27.146  0.0096 -0.1912 -0.2133
  926BOLB   C1C22217   7.009  10.536  27.271  0.0614 -0.2687  0.0272
  926BOLB   C2C22218   6.677  10.431  27.472 -0.1729  0.0056  0.1735
  926BOLB   C3C22219   6.289  10.242  27.503  0.0354 -0.1610 -0.0795
  926BOLB   C4C22220   5.988  10.410  27.299  0.1168  0.3899  0.0977
  926BOLB   C1D22221   7.324  10.440  26.895  0.1360  0.2946  0.2096
  926BOLB   C2D22222   7.042  10.324  26.594  0.0355 -0.0416  0.3175
  926BOLB   C3D22223   6.539  10.358  26.613  0.3057 -0.2522  0.0947
  926BOLB   C4D22224   6.263  10.552  26.373  0.1592 -0.2244  0.0142
  927BOLB   NC122225  22.706  16.667  41.252 -0.2199  0.1188  0.0419
  927BOLB   PO122226  22.584  16.321  41.386  0.0645  0.0228 -0.0733
  927BOLB   GL122227  22.276  16.145  41.144  0.0000  0.1841 -0.3093
  927BOLB   GL222228  22.448  15.890  41.009 -0.0139  0.3794 -0.0275
  927BOLB   C1A22229  22.073  15.982  40.754  0.3465 -0.2691  0.0751
  927BOLB   C2A22230  21.919  15.854  40.401  0.0753  0.0634 -0.1774
  927BOLB   C3A22231  21.723  15.704  40.021 -0.0058 -0.3546 -0.1808
  927BOLB   C4A22232  21.674  15.461  39.707  0.2043  0.0558 -0.0253
  927BOLB   C1B22233  22.008  15.624  41.052 -0.1416  0.1594  0.1378
  927BOLB   C2B22234  21.655  15.519  40.727 -0.4031 -0.3137 -0.0750
  927BOLB   C3B22235  21.378  15.169  40.593 -0.0294  0.0961 -0.1401
  927BOLB   C4B22236  21.253  14.790  40.304  0.0590  0.0209  0.0137
  927BOLB   NC222237  23.651  15.046  40.558  0.1234  0.0430  0.2001
  927BOLB   PO222238  23.656  14.526  40.719  0.1250  0.0083 -0.1480
  927BOLB   GL322239  23.303  14.715  40.409 -0.0163  0.1093  0.0187
  927BOLB   GL422240  23.253  15.076  40.225  0.0756  0.2529  0.0096
  927BOLB   C1C22241  22.861  14.507  40.183  0.2961  0.2776 -0.2307
  927BOLB   C2C22242  22.399  14.464  40.123 -0.0356 -0.1896  0.0089
  927BOLB   C3C22243  22.058  14.822  40.048 -0.0236  0.0736  0.2325
  927BOLB   C4C22244  21.834  15.046  39.808  0.2230 -0.1232  0.0511
  927BOLB   C1D22245  23.082  14.909  39.870  0.0179 -0.1081  0.2298
  927BOLB   C2D22246  22.933  14.665  39.516  0.0150  0.2259  0.2868
  927BOLB   C3D22247  23.088  14.455  39.293 -0.2517 -0.1693 -0.0308
  927BOLB   C4D22248  23.054  14.081  38.942 -0.3146  0.1444 -0.1648
  928BOLB   NC122249  12.861  15.402  21.991  0.0710  0.0932 -0.1424
  928BOLB   PO122250  12.853  15.641  21.494 -0.2481 -0.2354  0.1102
  928BOLB   GL122251  12.734  15.498  21.131 -0.3242  0.1137  0.0585
  928BOLB   GL222252  12.842  15.431  20.817 -0.2709  0.0045  0.2922
  928BOLB   C1A22253  12.314  15.660  21.063 -0.0951 -0.0962  0.1762
  928BOLB   C2A22254  12.012  15.720  20.789 -0.0199 -0.1980  0.1450
  928BOLB   C3A22255  11.593  15.862  20.581  0.0384  0.2988  0.0543
  928BOLB   C4A22256  11.261  15.783  20.270  0.1086  0.2900 -0.2882
  928BOLB   C1B22257  12.675  15.737  20.519 -0.2866 -0.0165  0.2987
  928BOLB   C2B22258  12.412  16.027  20.329  0.3200 -0.0345 -0.1347
  928BOLB   C3B22259  12.213  16.396  20.025 -0.1259 -0.0365  0.2033
  928BOLB   C4B22260  12.113  16.512  19.613 -0.0987 -0.2484  0.2471
  928BOLB   NC222261   9.275  16.026  18.503  0.0450  0.2746  0.2721
  928BOLB   PO222262   9.643  16.188  18.320 -0.0070 -0.0446 -0.1131
  928BOLB   GL322263   9.848  16.118  18.733 -0.5268 -0.1318 -0.3120
  928BOLB   GL422264   9.867  15.719  18.800 -0.0006 -0.1502  0.1131
  928BOLB   C1C22265  10.179  16.158  18.973 -0.0013 -0.1214  0.0043
  928BOLB   C2C22266  10.523  16.008  19.210 -0.0503  0.1097 -0.1255
  928BOLB   C3C22267  10.813  15.765  19.502 -0.2071  0.1667 -0.0691
  928BOLB   C4C22268  11.135  15.831  19.845 -0.2073  0.0147  0.0330
  928BOLB   C1D22269   9.582  15.814  19.081  0.0581  0.2539 -0.3294
  928BOLB   C2D22270   9.757  15.782  19.424  0.1338 -0.2241  0.0325
  928BOLB   C3D22271   9.901  15.766  19.808  0.4486  0.0322 -0.3053
  928BOLB   C4D22272   9.849  15.815  20.313 -0.1609  0.0283 -0.0049
  929BOLB   NC122273  16.750  14.619  39.226 -0.1927  0.0859  0.1498
  929BOLB   PO122274  16.737  14.649  39.608 -0.1147 -0.2207  0.0582
  929BOLB   GL122275  16.673  14.733  40.017 -0.0587 -0.1621 -0.0595
  929BOLB   GL222276  16.580  14.463  40.284 -0.1737  0.0511 -0.3066
  929BOLB   C1A22277  16.566  15.236  40.268 -0.1500  0.0069  0.0824
  929BOLB   C2A22278  16.608  15.559  40.519  0.1350  0.0479  0.2539
  929BOLB   C3A22279  16.816  15.798  40.848  0.0311 -0.0777 -0.2459
  929BOLB   C4A22280  16.913  15.963  41.255  0.3328 -0.2597  0.3842
  929BOLB   C1B22281  16.650  14.261  40.657 -0.0371  0.3766 -0.2768
  929BOLB   C2B22282  16.500  13.906  40.943 -0.1795  0.0439 -0.0274
  929BOLB   C3B22283  16.563  13.493  40.906 -0.1566  0.2532 -0.1074
  929BOLB   C4B22284  16.485  13.169  40.819  0.0839 -0.2471  0.3693
  929BOLB   NC222285  16.951  15.906  44.006 -0.0209  0.0291 -0.0151
  929BOLB   PO222286  17.105  15.705  43.636  0.3234  0.2914  0.1711
  929BOLB   GL322287  17.373  15.759  43.230  0.0812  0.0480 -0.1868
  929BOLB   GL422288  17.244  16.061  42.986 -0.0001 -0.0237  0.0683
  929BOLB   C1C22289  17.506  15.637  42.780  0.1316 -0.4192 -0.0918
  929BOLB   C2C22290  17.314  15.895  42.399  0.3103  0.0486  0.1457
  929BOLB   C3C22291  17.140  16.110  42.090  0.0731  0.1630 -0.0411
  929BOLB   C4C22292  16.954  16.108  41.610 -0.2313 -0.0247 -0.0517
  929BOLB   C1D22293  16.890  16.200  42.527 -0.2364 -0.1195  0.0705
  929BOLB   C2D22294  16.581  16.233  42.295  0.2141  0.0227  0.3436
  929BOLB   C3D22295  16.540  16.038  41.910 -0.0857  0.2134 -0.2034
  929BOLB   C4D22296  16.487  16.071  41.501 -0.5113  0.2671 -0.3159
  930BOLB   NC122297  15.273  17.984  43.101 -0.2645 -0.1330  0.0402
  930BOLB   PO122298  15.083  17.595  43.184  0.2189 -0.1949 -0.1803
  930BOLB   GL122299  15.176  17.506  42.673 -0.2951 -0.0732  0.0777
  930BOLB   GL222300  15.331  17.818  42.601 -0.0482 -0.0994  0.1948
  930BOLB   C1A22301  15.381  17.359  42.357  0.0568  0.1348  0.3510
  930BOLB   C2A22302  15.552  17.274  41.843 -0.1096  0.0362 -0.4199
  930BOLB   C3A22303  15.321  16.951  41.697 -0.2516 -0.0671 -0.2433
  930BOLB   C4A22304  15.136  16.520  41.683  0.3111 -0.1615  0.2492
  930BOLB   C1B22305  15.698  17.742  42.404  0.0091 -0.2439 -0.0083
  930BOLB   C2B22306  16.040  17.580  42.075  0.5431  0.0423  0.0520
  930BOLB   C3B22307  15.939  17.449  41.580 -0.0739 -0.1814  0.0070
  930BOLB   C4B22308  15.896  17.216  41.166  0.1407  0.0081  0.0680
  930BOLB   NC222309  16.060  15.661  44.110  0.0588 -0.1663  0.0283
  930BOLB   PO222310  16.087  15.544  43.648 -0.4003  0.0412 -0.1119
  930BOLB   GL322311  16.144  15.331  43.219 -0.2314  0.1908 -0.1117
  930BOLB   GL422312  16.143  15.017  43.022  0.4004 -0.1839 -0.2216
  930BOLB   C1C22313  15.976  15.459  42.871 -0.2237 -0.0965  0.2292
  930BOLB   C2C22314  15.843  15.740  42.520  0.0862  0.1059  0.0519
  930BOLB   C3C22315  15.518  16.048  42.334  0.1333 -0.1532 -0.0217
  930BOLB   C4C22316  15.236  16.350  42.099  0.0520  0.1729  0.4930
  930BOLB   C1D22317  15.908  14.997  42.620 -0.0622  0.1801 -0.0411
  930BOLB   C2D22318  16.117  14.724  42.300  0.1292 -0.2964  0.0937
  930BOLB   C3D22319  16.108  14.489  41.998 -0.4590 -0.1129  0.1410
  930BOLB   C4D22320  16.279  14.166  41.734  0.0414  0.1255  0.2842
  931BOLB   NC122321  16.640  14.125  27.787 -0.1320  0.0430 -0.0459
  931BOLB   PO122322  16.241  14.292  27.506  0.3076 -0.3855 -0.3192
  931BOLB   GL122323  16.512  14.411  27.077 -0.0315  0.0894  0.0847
  931BOLB   GL222324  16.296  14.383  26.743 -0.4019 -0.0862  0.3335
  931BOLB   C1A22325  16.725  14.177  26.717 -0.0218 -0.1920 -0.2130
  931BOLB   C2A22326  16.925  13.901  26.436  0.1566  0.2710 -0.2666
  931BOLB   C3A22327  16.926  13.658  25.998 -0.1095 -0.1848  0.0983
  931BOLB   C4A22328  16.852  13.343  25.688 -0.1090 -0.0072  0.1527
  931BOLB   C1B22329  16.548  14.304  26.322  0.0758  0.0444 -0.0788
  931BOLB   C2B22330  16.665  14.085  25.990 -0.2983 -0.2634 -0.2071
  931BOLB   C3B22331  17.102  14.120  25.879  0.0595 -0.0735  0.0073
  931BOLB   C4B22332  17.316  14.192  25.616 -0.2087  0.2907 -0.1639
  931BOLB   NC222333  18.049  12.515  23.350 -0.0458  0.1901 -0.2027
  931BOLB   PO222334  17.649  12.406  23.565  0.1906 -0.0922  0.0622
  931BOLB   GL322335  17.450  12.487  23.969  0.2577  0.0284 -0.0474
  931BOLB   GL422336  17.104  12.319  24.020 -0.3641  0.3534 -0.0125
  931BOLB   C1C22337  17.209  12.780  24.142 -0.0316  0.1722 -0.1864
  931BOLB   C2C22338  16.945  13.005  24.357  0.0733 -0.0539  0.2291
  931BOLB   C3C22339  16.804  13.139  24.809  0.2899 -0.1469 -0.0631
  931BOLB   C4C22340  16.719  13.166  25.258  0.1371  0.1131  0.1360
  931BOLB   C1D22341  17.004  12.106  24.369  0.0669 -0.2679 -0.0505
  931BOLB   C2D22342  17.015  12.086  24.796 -0.4102 -0.1014  0.0551
  931BOLB   C3D22343  16.905  12.339  25.123 -0.0505 -0.2909  0.1349
  931BOLB   C4D22344  16.983  12.726  25.288 -0.2168 -0.0498 -0.2610
  932BOLB   NC122345  22.358   9.733  35.267  0.2519 -0.3729 -0.1522
  932BOLB   PO122346  22.706  10.052  35.207 -0.1095 -0.2809  0.0439
  932BOLB   GL122347  23.017  10.127  35.570  0.0102 -0.1537 -0.2142
  932BOLB   GL222348  22.927  10.364  35.871 -0.1990 -0.1459 -0.0967
  932BOLB   C1A22349  23.351  10.012  35.733 -0.1944 -0.2479 -0.1549
  932BOLB   C2A22350  23.701   9.781  35.869 -0.2148  0.1870 -0.0192
  932BOLB   C3A22351  24.112   9.557  35.921  0.0634 -0.0167 -0.0899
  932BOLB   C4A22352  24.560   9.437  36.103  0.1269  0.0790  0.2725
  932BOLB   C1B22353  23.350  10.394  36.105 -0.2038  0.0602 -0.1358
  932BOLB   C2B22354  23.499  10.254  36.513 -0.0255  0.1255  0.0164
  932BOLB   C3B22355  23.505   9.959  36.744  0.4957  0.1215 -0.1247
  932BOLB   C4B22356  23.877   9.882  36.943 -0.1391  0.3457 -0.2092
  932BOLB   NC222357  26.648   8.655  37.749  0.2040 -0.0753  0.3626
  932BOLB   PO222358  26.388   8.559  37.368  0.0015  0.3053  0.0346
  932BOLB   GL322359  25.955   8.740  37.219 -0.1515 -0.2230  0.0586
  932BOLB   GL422360  25.920   9.071  37.194 -0.0073  0.3344  0.0042
  932BOLB   C1C22361  25.568   8.692  37.052 -0.1515 -0.0574  0.1093
  932BOLB   C2C22362  25.362   9.096  36.895 -0.1864  0.2195 -0.1465
  932BOLB   C3C22363  25.112   9.357  36.735  0.1919  0.1775  0.1645
  932BOLB   C4C22364  24.713   9.348  36.539  0.0469 -0.0778  0.1491
  932BOLB   C1D22365  25.565   9.282  37.278  0.2502  0.0480  0.0437
  932BOLB   C2D22366  25.377   9.699  37.325 -0.2910 -0.0333 -0.2570
  932BOLB   C3D22367  24.982   9.928  37.428 -0.2395  0.0289 -0.2576
  932BOLB   C4D22368  24.649   9.698  37.656  0.1312  0.1454 -0.0568
  933BOLB   NC122369  12.063  15.506  38.092  0.2156 -0.2020  0.0661
  933BOLB   PO122370  12.298  15.402  38.477  0.0081  0.0950 -0.1761
  933BOLB   GL122371  12.171  15.522  38.884 -0.2520 -0.0039  0.5470
  933BOLB   GL222372  12.316  15.747  38.944  0.2062 -0.0374  0.1170
  933BOLB   C1A22373  11.796  15.628  39.121 -0.0092 -0.3792  0.1471
  933BOLB   C2A22374  11.501  15.966  39.037 -0.0941 -0.1864  0.3173
  933BOLB   C3A22375  11.339  16.339  39.149  0.0688 -0.0118 -0.1037
  933BOLB   C4A22376  11.228  16.597  39.436  0.1254 -0.1767 -0.0486
  933BOLB   C1B22377  12.191  15.938  39.383 -0.2741 -0.2201 -0.3582
  933BOLB   C2B22378  11.734  16.147  39.392  0.0912  0.0666  0.1695
  933BOLB   C3B22379  11.676  16.568  39.571 -0.1522  0.1795 -0.1234
  933BOLB   C4B22380  12.054  16.725  39.844 -0.2207 -0.0832  0.0007
  933BOLB   NC222381  10.819  17.638  41.500 -0.4191 -0.0538 -0.1423
  933BOLB   PO222382  10.549  17.911  41.405  0.0729 -0.3023 -0.1219
  933BOLB   GL322383  10.711  17.905  40.911  0.2115  0.1587 -0.1551
  933BOLB   GL422384  10.782  17.507  40.968  0.2011  0.2295  0.3684
  933BOLB   C1C22385  10.715  17.868  40.475 -0.0751  0.2020  0.1064
  933BOLB   C2C22386  10.932  17.653  40.178 -0.0562 -0.2361  0.3815
  933BOLB   C3C22387  11.165  17.234  40.146  0.0890  0.2722  0.1769
  933BOLB   C4C22388  11.147  16.811  39.876  0.0050  0.3218 -0.0650
  933BOLB   C1D22389  11.095  17.563  40.640 -0.2382 -0.1254  0.1488
  933BOLB   C2D22390  11.500  17.384  40.584  0.1334 -0.0813  0.0523
  933BOLB   C3D22391  11.835  17.069  40.301 -0.0793 -0.0003 -0.2185
  933BOLB   C4D22392  11.617  16.892  39.970  0.2178  0.0157  0.4007
  934BOLB   NC122393  19.715  18.728  32.926 -0.1345 -0.1539 -0.0342
  934BOLB   PO122394  19.451  19.118  32.834  0.2109  0.2070  0.2284
  934BOLB   GL122395  19.758  19.316  33.069 -0.1553 -0.2417 -0.0534
  934BOLB   GL222396  20.031  19.051  33.119 -0.0571 -0.1371  0.0287
  934BOLB   C1A22397  19.938  19.702  33.158  0.0260 -0.0179  0.0880
  934BOLB   C2A22398  20.295  19.777  33.244  0.0939 -0.2064  0.0630
  934BOLB   C3A22399  20.563  20.046  33.290 -0.1915  0.2130 -0.1668
  934BOLB   C4A22400  20.732  20.475  33.331  0.1658 -0.0021 -0.2999
  934BOLB   C1B22401  20.419  19.283  33.137 -0.0802  0.1302  0.2690
  934BOLB   C2B22402  20.765  19.522  33.105 -0.1917  0.0048  0.1617
  934BOLB   C3B22403  21.010  19.891  33.329 -0.0835  0.0289  0.0215
  934BOLB   C4B22404  21.137  20.256  33.563  0.0868  0.0345 -0.3115
  934BOLB   NC222405  21.535  22.710  34.275  0.2117  0.0001  0.2904
  934BOLB   PO222406  21.325  22.848  33.932  0.0109 -0.0370  0.1640
  934BOLB   GL322407  21.311  22.460  33.821 -0.1292 -0.1145 -0.4389
  934BOLB   GL422408  20.960  22.334  33.992  0.0519 -0.2030  0.1104
  934BOLB   C1C22409  21.296  22.041  33.706 -0.3529  0.0503 -0.0641
  934BOLB   C2C22410  21.222  21.652  33.403 -0.0765  0.2373 -0.0679
  934BOLB   C3C22411  21.037  21.190  33.318  0.2200 -0.0346  0.0705
  934BOLB   C4C22412  21.049  20.730  33.453  0.2580 -0.0973  0.1444
  934BOLB   C1D22413  20.886  21.886  33.872  0.1417  0.0283  0.2643
  934BOLB   C2D22414  20.849  21.414  33.703 -0.0758  0.2413  0.1325
  934BOLB   C3D22415  20.757  21.037  33.776  0.2526 -0.0983 -0.1286
  934BOLB   C4D22416  20.583  20.631  33.788 -0.2381 -0.1603  0.0217
  935BOLB   NC122417  17.819   6.522  22.328 -0.0436 -0.0812  0.0672
  935BOLB   PO122418  17.448   6.349  22.555 -0.0779 -0.1408 -0.1984
  935BOLB   GL122419  17.598   6.007  22.443 -0.1849 -0.1078  0.1575
  935BOLB   GL222420  17.915   6.041  22.257 -0.0157 -0.2534  0.1624
  935BOLB   C1A22421  17.562   5.601  22.302  0.0937  0.0197 -0.2835
  935BOLB   C2A22422  17.569   5.289  22.092 -0.2332 -0.2759 -0.0059
  935BOLB   C3A22423  17.652   5.179  21.660 -0.5347 -0.2847 -0.0177
  935BOLB   C4A22424  17.807   5.064  21.292  0.2813  0.3512  0.1750
  935BOLB   C1B22425  17.847   5.634  21.916 -0.2703 -0.0364  0.0454
  935BOLB   C2B22426  18.008   5.458  21.475 -0.0708 -0.2137  0.1206
  935BOLB   C3B22427  18.369   5.212  21.380  0.0777 -0.0506 -0.2513
  935BOLB   C4B22428  18.743   4.973  21.450  0.0297 -0.1114  0.1368
  935BOLB   NC222429  18.070   3.359  19.594  0.2745 -0.1210  0.1845
  935BOLB   PO222430  18.467   3.213  19.837  0.4143 -0.2712 -0.2005
  935BOLB   GL322431  18.494   3.714  19.990 -0.1770 -0.0089 -0.0683
  935BOLB   GL422432  18.764   3.773  20.101  0.1099 -0.1036  0.0081
  935BOLB   C1C22433  18.243   4.116  20.058  0.0104  0.1882  0.4789
  935BOLB   C2C22434  18.227   4.286  20.381  0.2642  0.2713 -0.0314
  935BOLB   C3C22435  18.147   4.668  20.635  0.3939 -0.0619 -0.0036
  935BOLB   C4C22436  17.863   4.742  20.942  0.0506  0.1660 -0.0691
  935BOLB   C1D22437  18.766   4.210  20.297 -0.0127  0.0579 -0.1158
  935BOLB   C2D22438  19.057   4.420  20.620 -0.1525 -0.0539  0.2159
  935BOLB   C3D22439  19.097   4.760  20.843  0.0213 -0.0695  0.2000
  935BOLB   C4D22440  18.831   4.549  21.202 -0.2173  0.1845 -0.2050
  936BOLB   NC122441   7.492  10.796  30.202 -0.0707 -0.0902 -0.1924
  936BOLB   PO122442   7.775  11.187  30.003 -0.3383 -0.1177  0.0586
  936BOLB   GL122443   7.354  11.175  29.777 -0.2752  0.1338  0.0687
  936BOLB   GL222444   7.350  11.422  29.637 -0.0058 -0.0010 -0.0246
  936BOLB   C1A22445   7.090  10.839  29.549  0.0823  0.1939 -0.0273
  936BOLB   C2A22446   6.719  10.551  29.464 -0.1148 -0.1862 -0.0360
  936BOLB   C3A22447   6.437  10.495  29.064 -0.1176  0.1918  0.0866
  936BOLB   C4A22448   6.094  10.780  28.877  0.0297 -0.0978 -0.0172
  936BOLB   C1B22449   6.902  11.273  29.486 -0.2283 -0.2128 -0.1285
  936BOLB   C2B22450   6.574  11.037  29.594 -0.3223 -0.2508 -0.0189
  936BOLB   C3B22451   6.231  10.796  29.397  0.0091  0.0617  0.1304
  936BOLB   C4B22452   5.753  10.584  29.218 -0.0777 -0.1528  0.0156
  936BOLB   NC222453   7.556  11.615  30.095  0.1317  0.2741  0.2314
  936BOLB   PO222454   7.398  11.226  30.449  0.2180  0.2063  0.2926
  936BOLB   GL322455   7.067  11.191  30.212  0.0231  0.1260  0.3101
  936BOLB   GL422456   7.010  10.865  30.272  0.0637  0.1533 -0.0809
  936BOLB   C1C22457   6.701  11.288  30.139 -0.2626  0.2759 -0.1469
  936BOLB   C2C22458   6.286  11.213  30.016 -0.2893 -0.0187 -0.3068
  936BOLB   C3C22459   5.994  11.242  29.628 -0.3611 -0.2381 -0.0855
  936BOLB   C4C22460   5.793  11.100  29.131 -0.3301 -0.1593 -0.0341
  936BOLB   C1D22461   6.749  10.782  29.989 -0.2516  0.3083 -0.1374
  936BOLB   C2D22462   6.294  10.682  29.942  0.3779 -0.0146  0.2687
  936BOLB   C3D22463   5.793  10.764  29.741 -0.5140  0.0585 -0.1179
  936BOLB   C4D22464   5.537  11.029  29.660 -0.0712  0.0915 -0.0409
  937BOLB   NC122465  10.860  20.085  27.420 -0.2039  0.1265  0.3641
  937BOLB   PO122466  11.172  20.405  27.479 -0.2892 -0.0796 -0.1391
  937BOLB   GL122467  10.854  20.671  27.545 -0.0781  0.0138 -0.1846
  937BOLB   GL222468  10.685  20.625  27.801  0.1901 -0.0844  0.0278
  937BOLB   C1A22469  10.588  21.089  27.546 -0.1986 -0.0748  0.1517
  937BOLB   C2A22470  10.568  21.512  27.610 -0.2517  0.0618  0.2833
  937BOLB   C3A22471  10.613  21.967  27.571 -0.1062  0.1471  0.1349
  937BOLB   C4A22472  10.518  22.465  27.649 -0.0167 -0.5629 -0.2067
  937BOLB   C1B22473  10.260  20.665  27.479  0.3809  0.2351  0.0023
  937BOLB   C2B22474  10.049  20.739  27.191  0.3725  0.2123 -0.2986
  937BOLB   C3B22475   9.750  21.075  27.168  0.1865 -0.4166 -0.0342
  937BOLB   C4B22476   9.489  21.412  27.126 -0.2410  0.1300 -0.0866
  937BOLB   NC222477   9.078  24.372  27.999 -0.1706  0.1750 -0.2297
  937BOLB   PO222478   9.307  24.370  27.539 -0.1181  0.3491 -0.0010
  937BOLB   GL322479   9.403  24.068  27.724 -0.2609 -0.0726 -0.2694
  937BOLB   GL422480   9.736  24.190  27.791 -0.2784  0.0576 -0.0793
  937BOLB   C1C22481   9.595  23.743  27.970  0.0129  0.0219 -0.2134
  937BOLB   C2C22482   9.730  23.287  28.005 -0.0199 -0.0597 -0.1258
  937BOLB   C3C22483   9.915  22.891  28.196  0.0484 -0.0307  0.1227
  937BOLB   C4C22484  10.303  22.741  28.081 -0.1498  0.0250  0.0523
  937BOLB   C1D22485   9.878  23.901  27.576 -0.1870 -0.2950 -0.1610
  937BOLB   C2D22486   9.990  23.506  27.653 -0.2898 -0.2552  0.2982
  937BOLB   C3D22487  10.043  23.051  27.666 -0.1039  0.0524 -0.1602
  937BOLB   C4D22488   9.934  22.574  27.806 -0.1222 -0.1234 -0.2928
  938BOLB   NC122489  12.280  20.323  25.517 -0.0946  0.0824  0.2986
  938BOLB   PO122490  12.595  20.552  25.262 -0.1697  0.1566 -0.0887
  938BOLB   GL122491  12.512  20.897  25.033  0.3786  0.0785  0.1508
  938BOLB   GL222492  12.709  20.904  24.769 -0.1143  0.4095  0.0993
  938BOLB   C1A22493  12.363  21.331  24.906  0.1137  0.2562  0.3342
  938BOLB   C2A22494  12.135  21.529  24.681  0.2030 -0.1180  0.6483
  938BOLB   C3A22495  11.901  21.950  24.568 -0.1099 -0.1793  0.0852
  938BOLB   C4A22496  11.629  22.330  24.407 -0.1236  0.1404  0.2237
  938BOLB   C1B22497  12.635  21.144  24.486  0.2460  0.1958 -0.0504
  938BOLB   C2B22498  12.505  21.559  24.297 -0.2683 -0.2688  0.0253
  938BOLB   C3B22499  12.566  21.720  23.938  0.0590  0.0585 -0.0401
  938BOLB   C4B22500  12.492  21.603  23.520 -0.0456 -0.0279 -0.0154
  938BOLB   NC222501  10.092  23.861  24.470  0.2843 -0.4295 -0.0305
  938BOLB   PO222502   9.973  24.146  24.896  0.3060  0.0292 -0.0473
  938BOLB   GL322503  10.272  23.799  24.901  0.1076  0.2178 -0.2608
  938BOLB   GL422504  10.405  23.906  25.102  0.2359 -0.2446  0.0131
  938BOLB   C1C22505  10.407  23.326  24.990 -0.0955 -0.0250 -0.2307
  938BOLB   C2C22506  10.780  23.019  24.887 -0.5447 -0.1984 -0.3269
  938BOLB   C3C22507  11.064  22.818  24.622 -0.1065  0.0396  0.0197
  938BOLB   C4C22508  11.298  22.572  24.417  0.0713 -0.0552  0.0462
  938BOLB   C1D22509  10.799  23.710  24.896  0.0776 -0.0674 -0.0814
  938BOLB   C2D22510  11.002  23.456  25.052  0.0325  0.0305  0.2622
  938BOLB   C3D22511  11.424  23.408  25.209 -0.2138  0.3886  0.0318
  938BOLB   C4D22512  11.691  23.749  25.271 -0.0460  0.0626 -0.1608
  939BOLB   NC122513  11.084  12.047  22.336 -0.2207  0.0826  0.2012
  939BOLB   PO122514  11.138  12.364  22.000 -0.1023  0.1515 -0.1229
  939BOLB   GL122515  10.965  12.246  21.594  0.0825 -0.1119 -0.2444
  939BOLB   GL222516  11.090  12.000  21.301 -0.2064  0.0656 -0.0192
  939BOLB   C1A22517  10.627  12.034  21.343 -0.0405 -0.0523  0.0987
  939BOLB   C2A22518  10.571  11.585  21.374  0.1886 -0.2494  0.1232
  939BOLB   C3A22519  10.404  11.246  21.436 -0.2806  0.1577  0.0811
  939BOLB   C4A22520  10.020  11.236  21.257 -0.3195  0.1759  0.2823
  939BOLB   C1B22521  10.794  11.825  20.957  0.2541  0.0954 -0.2827
  939BOLB   C2B22522  10.384  11.843  20.816 -0.1863  0.1670 -0.0462
  939BOLB   C3B22523  10.383  12.128  20.534  0.1337 -0.0099  0.0718
  939BOLB   C4B22524  10.431  12.212  20.123  0.0290 -0.2301 -0.0751
  939BOLB   NC222525  10.406  12.035  22.974  0.1725 -0.0331  0.1720
  939BOLB   PO222526  10.318  12.438  22.884  0.1436  0.0197 -0.1855
  939BOLB   GL322527   9.982  12.166  22.696  0.1983  0.3566 -0.2546
  939BOLB   GL422528  10.093  12.259  22.464  0.0400  0.3491 -0.0851
  939BOLB   C1C22529   9.650  11.979  22.428  0.0867  0.0487  0.3554
  939BOLB   C2C22530   9.439  11.755  22.035  0.0305 -0.4036 -0.0065
  939BOLB   C3C22531   9.323  11.617  21.610 -0.2156  0.1395 -0.1682
  939BOLB   C4C22532   9.620  11.493  21.184  0.0827  0.3009 -0.0929
  939BOLB   C1D22533   9.876  12.512  22.077  0.0287  0.0119  0.0625
  939BOLB   C2D22534   9.884  12.564  21.626 -0.1364  0.0987  0.2637
  939BOLB   C3D22535  10.183  12.637  21.259 -0.2261  0.2717 -0.2649
  939BOLB   C4D22536  10.333  12.246  21.053 -0.4092  0.0646 -0.0986
  940BOLB   NC122537  20.776  22.705  25.826 -0.3814  0.0398  0.0075
  940BOLB   PO122538  20.371  22.817  26.069  0.1794  0.1531  0.0667
  940BOLB   GL122539  19.940  22.784  26.058  0.1952  0.2410  0.0728
  940BOLB   GL222540  19.995  22.583  25.757  0.0135 -0.1117  0.2325
  940BOLB   C1A22541  19.508  22.668  25.829 -0.0622  0.0424  0.1677
  940BOLB   C2A22542  19.254  22.263  25.728 -0.0450  0.0888  0.0258
  940BOLB   C3A22543  18.877  22.046  25.761  0.1720  0.1609  0.1114
  940BOLB   C4A22544  18.394  21.813  25.616 -0.1390 -0.0063 -0.3170
  940BOLB   C1B22545  19.787  22.238  25.781  0.1129  0.3229  0.0784
  940BOLB   C2B22546  19.650  21.971  26.072  0.0029  0.1569 -0.0302
  940BOLB   C3B22547  19.264  21.662  26.277  0.0494  0.1410  0.2132
  940BOLB   C4B22548  19.110  21.318  26.476 -0.2599  0.3409 -0.0538
  940BOLB   NC222549  18.848  24.039  24.871 -0.0008 -0.1401  0.1274
  940BOLB   PO222550  18.516  23.703  24.887 -0.0337 -0.2160 -0.1030
  940BOLB   GL322551  18.243  23.294  24.979 -0.0776 -0.3632 -0.0438
  940BOLB   GL422552  17.902  23.301  24.852 -0.0804  0.1717  0.1376
  940BOLB   C1C22553  18.076  22.886  25.064  0.0562 -0.0883  0.3211
  940BOLB   C2C22554  18.049  22.424  24.903  0.0854  0.0941  0.2560
  940BOLB   C3C22555  17.939  22.121  25.044 -0.1795 -0.1829  0.1912
  940BOLB   C4C22556  18.105  21.834  25.308  0.2002  0.1332 -0.0645
  940BOLB   C1D22557  17.589  22.950  25.113 -0.1918  0.2756 -0.2098
  940BOLB   C2D22558  17.265  23.044  25.476 -0.0051 -0.1811  0.0973
  940BOLB   C3D22559  17.071  23.310  25.750 -0.0783 -0.0640  0.0361
  940BOLB   C4D22560  16.973  23.593  26.073 -0.2325 -0.1801 -0.0741
  941BOLB   NC122561  16.905  20.254  26.434 -0.1343 -0.1600 -0.3828
  941BOLB   PO122562  17.179  19.935  26.271  0.0850 -0.1511  0.1437
  941BOLB   GL122563  17.101  20.305  25.986  0.1347 -0.2240  0.4136
  941BOLB   GL222564  17.235  20.519  26.070  0.2680  0.2216 -0.1802
  941BOLB   C1A22565  17.043  20.752  25.675 -0.0760  0.3228 -0.1126
  941BOLB   C2A22566  17.126  21.060  25.553 -0.2858 -0.3588 -0.0110
  941BOLB   C3A22567  17.204  21.519  25.668  0.1931 -0.2687  0.2857
  941BOLB   C4A22568  17.338  21.867  25.640 -0.1224 -0.0356  0.1346
  941BOLB   C1B22569  17.526  20.816  25.767 -0.3867 -0.0130 -0.0175
  941BOLB   C2B22570  17.908  20.843  25.597 -0.0846  0.0274 -0.1855
  941BOLB   C3B22571  18.161  21.104  25.385 -0.2840  0.0984 -0.3158
  941BOLB   C4B22572  18.374  21.407  25.270  0.2894 -0.4267  0.1290
  941BOLB   NC222573  18.939  23.694  25.687 -0.2048  0.0260 -0.1454
  941BOLB   PO222574  18.702  23.935  25.339 -0.2736 -0.0862  0.0009
  941BOLB   GL322575  18.574  23.444  25.460  0.0669 -0.2037  0.0544
  941BOLB   GL422576  18.750  23.219  25.738  0.0720  0.0348  0.2674
  941BOLB   C1C22577  18.171  23.245  25.491  0.0182  0.4029 -0.2022
  941BOLB   C2C22578  17.884  22.949  25.683 -0.0655 -0.1928 -0.2422
  941BOLB   C3C22579  17.802  22.564  25.377 -0.1582 -0.0222  0.0520
  941BOLB   C4C22580  17.560  22.174  25.433 -0.0310  0.5545 -0.2126
  941BOLB   C1D22581  18.437  22.850  25.777 -0.2650 -0.2154  0.0526
  941BOLB   C2D22582  18.151  22.571  25.875 -0.4201 -0.2060  0.0482
  941BOLB   C3D22583  17.738  22.499  25.982 -0.1095 -0.0984 -0.0729
  941BOLB   C4D22584  17.435  22.193  25.987 -0.2435  0.0882 -0.0282
  942BOLB   NC122585  22.247   7.665  27.801  0.0147  0.0683  0.0440
  942BOLB   PO122586  22.366   7.445  28.132 -0.0763  0.1834 -0.0548
  942BOLB   GL122587  22.791   7.237  28.153  0.0650 -0.1924  0.1470
  942BOLB   GL222588  22.843   7.034  27.883  0.1190  0.0995  0.1543
  942BOLB   C1A22589  23.218   7.161  28.149 -0.1610 -0.0144 -0.0892
  942BOLB   C2A22590  23.569   7.005  27.937 -0.2772 -0.0776 -0.3953
  942BOLB   C3A22591  23.812   6.731  27.687  0.1915  0.1499 -0.1568
  942BOLB   C4A22592  24.173   6.537  27.603  0.1089 -0.0070  0.3630
  942BOLB   C1B22593  23.172   6.720  27.913  0.3703  0.4848  0.4639
  942BOLB   C2B22594  23.463   6.468  27.980 -0.0938  0.0215  0.2131
  942BOLB   C3B22595  23.425   6.056  27.967  0.1650 -0.1332  0.4149
  942BOLB   C4B22596  23.499   5.525  27.994 -0.2733 -0.0197  0.0265
  942BOLB   NC222597  26.559   5.716  27.097 -0.1019 -0.1957  0.2741
  942BOLB   PO222598  26.294   5.735  27.351  0.0914 -0.1334 -0.3594
  942BOLB   GL322599  25.985   6.063  27.351  0.5040  0.2822  0.0999
  942BOLB   GL422600  26.259   6.439  27.351  0.1236  0.1337 -0.1381
  942BOLB   C1C22601  25.648   6.237  27.290 -0.3497 -0.0246 -0.1208
  942BOLB   C2C22602  25.193   6.289  27.257 -0.0435  0.0026 -0.2368
  942BOLB   C3C22603  24.786   6.422  27.143  0.0688  0.0443  0.0642
  942BOLB   C4C22604  24.458   6.477  27.333 -0.2218 -0.2322  0.1344
  942BOLB   C1D22605  25.893   6.663  27.139  0.1924 -0.2718  0.1142
  942BOLB   C2D22606  25.655   6.935  27.161  0.0957  0.1791 -0.1135
  942BOLB   C3D22607  25.798   7.221  27.090 -0.0684 -0.0396  0.4200
  942BOLB   C4D22608  25.590   7.498  26.881 -0.2806  0.1180  0.0911
  943BOLB   NC122609   9.299   3.685  24.311 -0.2286  0.2030  0.1221
  943BOLB   PO122610   9.389   3.969  23.960  0.3135 -0.2820  0.1168
  943BOLB   GL122611   9.547   4.342  23.988  0.0082 -0.1648  0.2446
  943BOLB   GL222612   9.756   4.276  24.237  0.3456 -0.1806 -0.0820
  943BOLB   C1A22613   9.818   4.746  23.920  0.4174 -0.0080  0.0447
  943BOLB   C2A22614   9.932   5.134  24.007 -0.0583  0.0232 -0.0851
  943BOLB   C3A22615  10.107   5.280  24.327  0.2461  0.2481 -0.0597
  943BOLB   C4A22616  10.359   5.638  24.333 -0.2942  0.2510  0.2153
  943BOLB   C1B22617  10.057   4.580  24.518 -0.2605  0.0430  0.1961
  943BOLB   C2B22618  10.478   4.391  24.659 -0.2287  0.2212 -0.3124
  943BOLB   C3B22619  10.654   4.075  24.520  0.3630 -0.3370  0.1333
  943BOLB   C4B22620  10.844   3.729  24.297  0.0287 -0.0194 -0.2501
  943BOLB   NC222621  12.389   6.760  25.353  0.0982  0.0763 -0.0747
  943BOLB   PO222622  12.529   6.720  24.944  0.3376  0.0025 -0.3916
  943BOLB   GL322623  12.205   6.451  24.716 -0.1749  0.1928  0.1542
  943BOLB   GL422624  12.300   6.166  24.560 -0.0160 -0.0237 -0.0124
  943BOLB   C1C22625  11.835   6.339  24.492  0.4183  0.1375 -0.1721
  943BOLB   C2C22626  11.401   6.155  24.382 -0.0375 -0.2750  0.2373
  943BOLB   C3C22627  11.054   5.990  24.254 -0.1609  0.0864 -0.0564
  943BOLB   C4C22628  10.663   5.946  24.362  0.2082  0.0242 -0.1195
  943BOLB   C1D22629  11.929   5.759  24.650  0.3228  0.3603 -0.2326
  943BOLB   C2D22630  11.616   5.377  24.687 -0.0689 -0.1473 -0.2770
  943BOLB   C3D22631  11.622   4.959  24.610  0.0276 -0.0919 -0.0439
  943BOLB   C4D22632  11.634   4.456  24.644  0.3510 -0.2118 -0.1292
  944BOLB   NC122633  22.892   9.791  27.146 -0.0949 -0.6111  0.1073
  944BOLB   PO122634  22.919   9.569  26.710 -0.2111  0.2527 -0.2351
  944BOLB   GL122635  23.375   9.485  26.745 -0.1130 -0.3751 -0.1011
  944BOLB   GL222636  23.694   9.592  26.632  0.1589 -0.2587 -0.1043
  944BOLB   C1A22637  23.606   9.129  26.801  0.2363 -0.1107  0.3384
  944BOLB   C2A22638  23.881   8.879  26.655 -0.1966  0.4765  0.3328
  944BOLB   C3A22639  24.323   8.990  26.446  0.4072 -0.1560  0.3231
  944BOLB   C4A22640  24.624   9.080  26.694  0.0398 -0.1882  0.0204
  944BOLB   C1B22641  23.929   9.441  26.305 -0.2469 -0.0441  0.1490
  944BOLB   C2B22642  23.710   9.304  25.887 -0.0206 -0.2605  0.0010
  944BOLB   C3B22643  23.833   9.278  25.592 -0.1404 -0.2355 -0.2205
  944BOLB   C4B22644  23.908   8.988  25.232 -0.3061 -0.0874  0.0322
  944BOLB   NC222645   0.176   8.943  26.894 -0.0408 -0.0632  0.3072
  944BOLB   PO222646   0.150   9.315  26.891 -0.3054 -0.1883  0.3964
  944BOLB   GL322647  26.798   9.240  26.877 -0.3020 -0.1413  0.0197
  944BOLB   GL422648  26.636   9.271  27.196 -0.2183  0.1513  0.0698
  944BOLB   C1C22649  26.359   9.183  26.677 -0.2897  0.1580 -0.1407
  944BOLB   C2C22650  25.926   9.249  26.449 -0.4827 -0.0305 -0.2704
  944BOLB   C3C22651  25.517   9.314  26.475 -0.1911 -0.2560  0.2638
  944BOLB   C4C22652  25.045   9.085  26.482  0.3856  0.1364  0.3190
  944BOLB   C1D22653  26.503   9.556  27.464 -0.0186 -0.0466 -0.0793
  944BOLB   C2D22654  26.104   9.408  27.748  0.1801  0.0031 -0.1364
  944BOLB   C3D22655  25.767   9.408  27.876  0.0814 -0.1895 -0.1190
  944BOLB   C4D22656  25.378   9.128  27.793  0.2192 -0.1454 -0.2970
  945BOLB   NC122657  23.056  14.094  30.269  0.0327  0.3361 -0.2077
  945BOLB   PO122658  23.193  13.699  30.218 -0.1073  0.1004  0.1671
  945BOLB   GL122659  23.491  13.883  30.363 -0.3835  0.2951  0.1569
  945BOLB   GL222660  23.681  13.733  30.409  0.0756  0.1525 -0.0432
  945BOLB   C1A22661  23.758  14.330  30.426  0.0755  0.1139  0.0636
  945BOLB   C2A22662  23.839  14.767  30.420 -0.0580 -0.0105 -0.0774
  945BOLB   C3A22663  24.178  15.077  30.391 -0.0422  0.1099 -0.2157
  945BOLB   C4A22664  24.583  15.148  30.408  0.1438  0.1967 -0.0948
  945BOLB   C1B22665  24.006  13.893  30.377 -0.1896  0.1637 -0.5221
  945BOLB   C2B22666  24.411  14.095  30.265  0.0350 -0.0552 -0.1627
  945BOLB   C3B22667  24.559  14.417  30.028 -0.0127  0.0254  0.1676
  945BOLB   C4B22668  24.878  14.732  30.174 -0.1304  0.1279 -0.0695
  945BOLB   NC222669  26.519  16.678  31.619 -0.0804 -0.0263  0.1529
  945BOLB   PO222670  26.522  16.573  31.149  0.0388  0.0883 -0.0221
  945BOLB   GL322671  26.115  16.344  31.126  0.1357 -0.0685  0.0170
  945BOLB   GL422672  25.929  16.526  31.340  0.0041  0.0319  0.2042
  945BOLB   C1C22673  25.804  16.172  30.881  0.1766 -0.0431 -0.1798
  945BOLB   C2C22674  25.500  15.945  30.797 -0.1104 -0.0838 -0.2984
  945BOLB   C3C22675  25.045  15.753  30.800 -0.1073  0.0044 -0.0900
  945BOLB   C4C22676  24.812  15.378  30.668  0.0800  0.0047  0.1801
  945BOLB   C1D22677  25.459  16.377  31.341  0.0807  0.3825  0.0384
  945BOLB   C2D22678  25.041  16.207  31.370 -0.0297 -0.1362 -0.0257
  945BOLB   C3D22679  24.767  15.975  31.164 -0.1315  0.0520 -0.0149
  945BOLB   C4D22680  24.548  15.789  30.742 -0.0117  0.4057  0.3015
  946BOLB   NC122681  22.750   7.670  29.399 -0.0018 -0.3021 -0.0806
  946BOLB   PO122682  22.381   7.619  29.670  0.2771 -0.1772 -0.1318
  946BOLB   GL122683  22.612   7.214  29.670  0.0491 -0.0739 -0.3541
  946BOLB   GL222684  22.784   7.169  29.364 -0.2544 -0.3099 -0.1262
  946BOLB   C1A22685  22.913   6.822  29.672  0.2811 -0.0617 -0.0092
  946BOLB   C2A22686  23.125   6.434  29.771  0.1051  0.0477  0.1694
  946BOLB   C3A22687  23.357   6.124  29.761  0.0726  0.1805 -0.0762
  946BOLB   C4A22688  23.695   5.984  29.627 -0.0993  0.2649  0.1516
  946BOLB   C1B22689  23.205   7.075  29.250 -0.2107 -0.0099 -0.1920
  946BOLB   C2B22690  23.375   6.741  29.460 -0.1546 -0.1200 -0.2154
  946BOLB   C3B22691  23.651   6.500  29.645  0.2042 -0.3040  0.0698
  946BOLB   C4B22692  23.994   6.394  29.852 -0.3391  0.0510 -0.2254
  946BOLB   NC222693  26.047   5.387  29.108 -0.2750 -0.3010  0.0723
  946BOLB   PO222694  25.748   5.089  29.058 -0.2889  0.0782 -0.1319
  946BOLB   GL322695  25.424   4.884  29.307  0.0765  0.0888  0.1653
  946BOLB   GL422696  25.332   4.655  29.135 -0.0793  0.0101  0.2728
  946BOLB   C1C22697  25.045   5.054  29.482  0.2178 -0.4129 -0.1303
  946BOLB   C2C22698  24.803   5.388  29.582 -0.1217 -0.1150  0.0168
  946BOLB   C3C22699  24.448   5.658  29.488 -0.0140  0.0886  0.0531
  946BOLB   C4C22700  24.009   5.739  29.398  0.1848 -0.2896  0.2062
  946BOLB   C1D22701  24.919   4.843  29.064  0.1834 -0.3141  0.0202
  946BOLB   C2D22702  24.586   4.921  28.905  0.1267  0.1705 -0.3013
  946BOLB   C3D22703  24.114   5.003  29.027 -0.0249  0.1203 -0.4261
  946BOLB   C4D22704  23.790   4.931  29.224 -0.2321  0.0791  0.0677
  947BOLB   NC122705  13.135   9.197  21.717 -0.0317 -0.0408 -0.1127
  947BOLB   PO122706  13.412   9.019  21.359  0.3363  0.1130 -0.1481
  947BOLB   GL122707  13.424   8.792  21.003 -0.0334  0.0998  0.1445
  947BOLB   GL222708  13.410   8.960  20.795 -0.2166  0.3029 -0.0904
  947BOLB   C1A22709  13.151   8.499  20.742 -0.2262 -0.0226 -0.1520
  947BOLB   C2A22710  12.942   8.226  20.447 -0.2595 -0.1326 -0.1178
  947BOLB   C3A22711  12.897   8.167  19.966  0.1018  0.3286 -0.2615
  947BOLB   C4A22712  12.741   7.769  19.936  0.0384  0.0850 -0.1351
  947BOLB   C1B22713  13.222   8.895  20.383  0.1810  0.1629  0.1084
  947BOLB   C2B22714  13.088   8.596  20.016 -0.1177 -0.0671  0.3478
  947BOLB   C3B22715  13.219   8.478  19.650  0.1488  0.3879 -0.2895
  947BOLB   C4B22716  12.984   8.618  19.334 -0.1934  0.2949 -0.1956
  947BOLB   NC222717  10.992   6.671  18.023  0.1580 -0.1182 -0.3133
  947BOLB   PO222718  11.381   6.850  18.172 -0.1467  0.0617  0.0393
  947BOLB   GL322719  11.524   7.120  18.525  0.1866 -0.0745  0.1337
  947BOLB   GL422720  11.691   7.418  18.630  0.0952  0.3375 -0.1903
  947BOLB   C1C22721  11.552   7.102  19.029 -0.0096  0.2572  0.1604
  947BOLB   C2C22722  11.771   7.219  19.339  0.1601  0.0996  0.1848
  947BOLB   C3C22723  12.111   7.416  19.520  0.0805  0.1652  0.0049
  947BOLB   C4C22724  12.492   7.630  19.658 -0.2329  0.0028  0.0754
  947BOLB   C1D22725  11.909   7.852  18.643 -0.0634 -0.1382 -0.2936
  947BOLB   C2D22726  12.174   8.011  18.988 -0.1629 -0.0247 -0.1259
  947BOLB   C3D22727  12.121   7.920  19.439  0.3203 -0.0821 -0.1678
  947BOLB   C4D22728  12.347   8.083  19.872  0.2458  0.0427  0.4528
  948BOLB   NC122729  20.959   7.953  37.036 -0.3140 -0.1552  0.3993
  948BOLB   PO122730  21.405   8.203  36.777 -0.2828  0.2364 -0.1279
  948BOLB   GL122731  21.723   7.983  36.934 -0.4284 -0.2670 -0.0341
  948BOLB   GL222732  21.540   7.767  37.085  0.2354 -0.1933  0.1159
  948BOLB   C1A22733  21.906   7.990  37.389  0.0797  0.0779 -0.0668
  948BOLB   C2A22734  21.906   7.820  37.722 -0.0776 -0.1445  0.1730
  948BOLB   C3A22735  21.895   7.500  37.936  0.1829  0.0048  0.0734
  948BOLB   C4A22736  21.844   7.133  38.013 -0.2339  0.0499  0.2664
  948BOLB   C1B22737  21.821   7.456  37.355 -0.1669  0.0725 -0.0332
  948BOLB   C2B22738  22.156   7.344  37.581 -0.0837  0.0626 -0.0314
  948BOLB   C3B22739  22.406   7.073  37.829 -0.3081 -0.0817  0.0239
  948BOLB   C4B22740  22.331   6.887  38.212 -0.1509 -0.0433  0.0673
  948BOLB   NC222741  23.395   5.822  40.040  0.1135 -0.1924 -0.3391
  948BOLB   PO222742  23.478   5.899  39.615 -0.3845  0.2344  0.2553
  948BOLB   GL322743  23.204   6.114  39.292  0.1966 -0.1192  0.0783
  948BOLB   GL422744  23.057   5.897  39.074 -0.2300 -0.1826  0.1276
  948BOLB   C1C22745  22.815   6.303  39.065  0.1643 -0.2257  0.1657
  948BOLB   C2C22746  22.441   6.319  38.936  0.2004 -0.2095  0.2507
  948BOLB   C3C22747  22.180   6.632  38.622  0.0861 -0.3167  0.1218
  948BOLB   C4C22748  21.910   7.036  38.423  0.1873  0.0178  0.1154
  948BOLB   C1D22749  22.708   5.901  38.811  0.1718  0.0564 -0.1763
  948BOLB   C2D22750  22.660   5.838  38.368 -0.0452  0.1040  0.0864
  948BOLB   C3D22751  22.576   5.664  37.944  0.0160 -0.2675  0.1507
  948BOLB   C4D22752  22.730   5.498  37.534 -0.0541 -0.0542  0.0963
  949BOLB   NC122753   9.815   7.397  32.068  0.2798  0.2131 -0.0497
  949BOLB   PO122754  10.016   7.145  31.877 -0.2823 -0.3567 -0.1398
  949BOLB   GL122755   9.800   6.802  32.006 -0.1475 -0.1045  0.0738
  949BOLB   GL222756   9.758   6.738  32.310 -0.1952  0.0454  0.1757
  949BOLB   C1A22757   9.422   6.514  31.892 -0.6336  0.1844  0.0130
  949BOLB   C2A22758   9.186   6.062  31.871 -0.3098  0.0784 -0.0398
  949BOLB   C3A22759   9.006   5.808  32.109 -0.1591  0.1486  0.2888
  949BOLB   C4A22760   9.048   5.354  32.234  0.0663  0.1141  0.3128
  949BOLB   C1B22761   9.342   6.550  32.365  0.2194 -0.2565 -0.1615
  949BOLB   C2B22762   9.140   6.186  32.392  0.3794 -0.2903 -0.3554
  949BOLB   C3B22763   8.621   6.105  32.370  0.0033 -0.3711 -0.1373
  949BOLB   C4B22764   8.292   5.973  32.196  0.0466  0.1230  0.3259
  949BOLB   NC222765   7.519   4.017  33.763  0.0933 -0.2156 -0.3693
  949BOLB   PO222766   7.842   3.802  33.583  0.3605  0.0421 -0.0420
  949BOLB   GL322767   8.107   3.871  33.280 -0.2099  0.7033 -0.2127
  949BOLB   GL422768   8.352   3.908  33.477 -0.2452  0.0802 -0.1388
  949BOLB   C1C22769   8.381   4.182  33.010  0.0506 -0.0745 -0.1179
  949BOLB   C2C22770   8.436   4.605  32.790 -0.0320 -0.1236  0.5231
  949BOLB   C3C22771   8.617   4.761  32.527  0.2570 -0.2043 -0.0245
  949BOLB   C4C22772   9.023   4.951  32.337  0.0021 -0.1543 -0.0534
  949BOLB   C1D22773   8.711   4.054  33.470  0.0274  0.1709  0.1011
  949BOLB   C2D22774   9.054   4.073  33.194  0.0099 -0.1160  0.0824
  949BOLB   C3D22775   9.337   4.204  32.898 -0.4323  0.1029  0.1351
  949BOLB   C4D22776   9.741   4.351  32.692  0.4119 -0.0422 -0.3510
  950BOLB   NC122777   9.672  19.053  30.603  0.3294 -0.0015 -0.2444
  950BOLB   PO122778   9.363  19.248  30.414 -0.1393 -0.3666  0.1959
  950BOLB   GL122779   9.164  19.649  30.236  0.0402  0.1077 -0.1582
  950BOLB   GL222780   9.096  19.730  30.607 -0.5700 -0.2821  0.1101
  950BOLB   C1A22781   8.718  19.840  30.294 -0.2772  0.2668  0.2366
  950BOLB   C2A22782   8.368  19.741  30.144  0.0971  0.1398  0.0291
  950BOLB   C3A22783   7.967  19.935  30.065  0.0480 -0.0321 -0.1048
  950BOLB   C4A22784   7.670  20.400  29.919  0.1174 -0.2348  0.1016
  950BOLB   C1B22785   8.839  20.094  30.732  0.1297  0.1334  0.0596
  950BOLB   C2B22786   8.513  20.333  30.530 -0.0008  0.0646  0.4098
  950BOLB   C3B22787   8.111  20.478  30.636 -0.2909 -0.2555 -0.3607
  950BOLB   C4B22788   7.915  20.573  30.979 -0.2087 -0.2116 -0.1609
  950BOLB   NC222789   5.932  22.249  28.509 -0.3052  0.0456 -0.0020
  950BOLB   PO222790   6.094  21.823  28.618  0.2714  0.0098  0.0964
  950BOLB   GL322791   6.439  21.499  28.748 -0.4827 -0.2789  0.0351
  950BOLB   GL422792   6.448  21.225  28.642  0.0539 -0.3655 -0.0439
  950BOLB   C1C22793   6.720  21.475  28.986 -0.2748  0.0215 -0.2340
  950BOLB   C2C22794   7.111  21.155  29.030  0.0794  0.1917 -0.1215
  950BOLB   C3C22795   7.263  20.941  29.388 -0.4822  0.3808 -0.1184
  950BOLB   C4C22796   7.486  20.650  29.661 -0.2421  0.2743 -0.0831
  950BOLB   C1D22797   6.687  20.857  28.843 -0.0975 -0.1024 -0.0192
  950BOLB   C2D22798   6.652  20.369  28.642 -0.0205 -0.1436 -0.1445
  950BOLB   C3D22799   6.929  19.985  28.575  0.1489  0.1543 -0.0387
  950BOLB   C4D22800   7.331  19.854  28.692 -0.0968  0.3714  0.0013
  951BOLB   NC122801  21.197  16.451  35.650  0.1913  0.1513  0.3601
  951BOLB   PO122802  21.108  16.506  36.039  0.0595 -0.0957 -0.1108
  951BOLB   GL122803  21.277  16.815  36.364  0.3262  0.0590 -0.4164
  951BOLB   GL222804  21.460  16.725  36.649  0.0497  0.0903  0.0406
  951BOLB   C1A22805  21.325  17.183  36.389  0.0946 -0.4032 -0.1952
  951BOLB   C2A22806  21.612  17.399  36.122  0.3441 -0.0537  0.2746
  951BOLB   C3A22807  21.956  17.462  35.991  0.0148 -0.2206  0.0728
  951BOLB   C4A22808  22.406  17.595  36.078  0.2783 -0.0869  0.1108
  951BOLB   C1B22809  21.718  17.088  36.601 -0.3422  0.0478 -0.2280
  951BOLB   C2B22810  21.590  17.474  36.676 -0.0859 -0.0230 -0.0688
  951BOLB   C3B22811  21.633  17.874  36.876 -0.0553  0.2913 -0.0067
  951BOLB   C4B22812  21.425  18.142  37.137 -0.2026  0.2265 -0.1437
  951BOLB   NC222813  24.784  18.660  36.583  0.2691 -0.0169  0.1599
  951BOLB   PO222814  24.508  18.628  36.895 -0.0191 -0.0935  0.0272
  951BOLB   GL322815  24.342  18.391  36.693 -0.2670 -0.1542 -0.1022
  951BOLB   GL422816  24.517  18.161  36.445 -0.1731 -0.1616 -0.3161
  951BOLB   C1C22817  24.000  18.182  36.631 -0.3726 -0.1193 -0.1139
  951BOLB   C2C22818  23.640  18.124  36.453 -0.0634  0.2909 -0.3178
  951BOLB   C3C22819  23.277  17.817  36.363  0.0711  0.0496  0.7753
  951BOLB   C4C22820  22.883  17.746  36.164 -0.3197  0.1804  0.1998
  951BOLB   C1D22821  24.300  17.946  36.189 -0.0827 -0.2385 -0.4346
  951BOLB   C2D22822  23.960  17.888  35.869  0.2823 -0.0038  0.0543
  951BOLB   C3D22823  23.648  17.668  35.580 -0.0257 -0.3914  0.2080
  951BOLB   C4D22824  23.679  17.543  35.155  0.0402 -0.2323  0.1000
  952BOLB   NC122825  23.960  18.597  26.202  0.4051 -0.0400 -0.0149
  952BOLB   PO122826  23.727  18.636  25.849 -0.0795  0.3825 -0.0573
  952BOLB   GL122827  23.195  18.603  25.817  0.0121  0.0775 -0.0747
  952BOLB   GL222828  23.284  18.283  25.768 -0.2307  0.0099  0.0108
  952BOLB   C1A22829  22.784  18.419  25.745 -0.0169  0.0906  0.1288
  952BOLB   C2A22830  22.388  18.075  25.738  0.0356 -0.1348  0.1922
  952BOLB   C3A22831  22.193  17.722  25.792 -0.1942 -0.0091  0.4552
  952BOLB   C4A22832  21.872  17.466  25.887 -0.0090 -0.0218 -0.2518
  952BOLB   C1B22833  22.925  17.997  25.919  0.0818  0.2059 -0.1948
  952BOLB   C2B22834  22.633  17.698  25.979 -0.0133 -0.0275 -0.0931
  952BOLB   C3B22835  22.399  17.396  26.083 -0.0306  0.0055  0.3684
  952BOLB   C4B22836  22.113  17.054  26.223  0.2213  0.1043  0.0282
  952BOLB   NC222837  22.925  17.893  24.016 -0.1044  0.1362  0.3272
  952BOLB   PO222838  22.961  17.887  24.468  0.1326 -0.1148 -0.7219
  952BOLB   GL322839  22.659  17.507  24.406 -0.0131 -0.1221  0.0510
  952BOLB   GL422840  22.721  17.492  24.044 -0.1668 -0.0496 -0.3426
  952BOLB   C1C22841  22.302  17.350  24.602  0.3844  0.0031  0.1375
  952BOLB   C2C22842  21.996  17.256  24.892 -0.0062  0.1280  0.0243
  952BOLB   C3C22843  21.857  17.159  25.240 -0.0165 -0.0758 -0.1476
  952BOLB   C4C22844  21.661  17.148  25.647  0.3009  0.0961 -0.2276
  952BOLB   C1D22845  22.337  17.086  23.980 -0.3536 -0.0284  0.1434
  952BOLB   C2D22846  22.272  16.827  23.631 -0.0096  0.1452 -0.0484
  952BOLB   C3D22847  22.164  16.477  23.279  0.1228  0.1613 -0.1434
  952BOLB   C4D22848  22.155  16.309  22.837  0.1054 -0.2467  0.1197
  953BOLB   NC122849   9.772  12.310  17.916  0.3419  0.1745 -0.1037
  953BOLB   PO122850   9.979  12.589  17.752  0.0260  0.0729 -0.0083
  953BOLB   GL122851  10.058  12.642  18.146 -0.2593 -0.1657  0.0482
  953BOLB   GL222852  10.253  12.472  18.314 -0.0972  0.2215  0.0937
  953BOLB   C1A22853  10.048  12.815  18.572  0.1925 -0.0035 -0.3479
  953BOLB   C2A22854  10.239  12.715  18.952 -0.2099  0.4209  0.3045
  953BOLB   C3A22855  10.222  12.822  19.374  0.3745 -0.1157  0.3451
  953BOLB   C4A22856  10.116  13.043  19.759  0.0575  0.0516 -0.0658
  953BOLB   C1B22857  10.515  12.440  18.642  0.0137 -0.1389 -0.4634
  953BOLB   C2B22858  10.925  12.570  18.785 -0.1335  0.2009  0.1252
  953BOLB   C3B22859  11.097  12.808  18.971  0.0241 -0.1264  0.0536
  953BOLB   C4B22860  11.386  12.685  19.203  0.3145  0.1669  0.0659
  953BOLB   NC222861   8.774  13.170  18.432 -0.1230 -0.1632  0.0591
  953BOLB   PO222862   8.641  12.929  18.681  0.1641  0.1464 -0.2136
  953BOLB   GL322863   8.758  13.044  19.184  0.0984 -0.4204 -0.1365
  953BOLB   GL422864   8.633  12.868  19.477  0.0049 -0.3646 -0.0526
  953BOLB   C1C22865   9.114  13.203  19.461  0.0432  0.3668 -0.3336
  953BOLB   C2C22866   9.191  13.398  19.842 -0.1844 -0.0342 -0.0559
  953BOLB   C3C22867   9.500  13.306  20.269  0.2630 -0.1336  0.1670
  953BOLB   C4C22868   9.908  13.212  20.035  0.0701  0.3815  0.4171
  953BOLB   C1D22869   8.857  13.051  19.957 -0.0045 -0.0225  0.1289
  953BOLB   C2D22870   9.149  12.934  20.305 -0.1929 -0.0004 -0.0654
  953BOLB   C3D22871   9.320  12.973  20.727  0.0402  0.1798  0.3265
  953BOLB   C4D22872   9.260  12.893  21.169  0.2758  0.2185 -0.2970
  954BOLB   NC122873  20.153  17.872  28.881 -0.0244 -0.0394  0.0916
  954BOLB   PO122874  19.959  17.646  28.649  0.1251  0.0475  0.0896
  954BOLB   GL122875  20.407  17.526  28.441 -0.0146 -0.3565 -0.2626
  954BOLB   GL222876  20.579  17.853  28.414  0.2669 -0.2834 -0.0587
  954BOLB   C1A22877  20.844  17.452  28.273 -0.0813 -0.0103  0.0215
  954BOLB   C2A22878  21.233  17.603  28.260  0.0768 -0.0119  0.2334
  954BOLB   C3A22879  21.766  17.491  27.978 -0.0690 -0.0970  0.2597
  954BOLB   C4A22880  22.118  17.340  27.731  0.1496  0.2024 -0.0715
  954BOLB   C1B22881  20.682  18.121  28.126  0.2988  0.3515  0.0008
  954BOLB   C2B22882  20.951  18.347  27.845  0.1198  0.0407  0.0858
  954BOLB   C3B22883  21.355  18.498  27.768 -0.0463  0.0262  0.0358
  954BOLB   C4B22884  21.745  18.678  27.624  0.1055  0.0310 -0.0077
  954BOLB   NC222885  20.516  16.944  28.090 -0.1921 -0.0732  0.0825
  954BOLB   PO222886  20.172  17.223  28.063 -0.0967 -0.2819 -0.4672
  954BOLB   GL322887  20.433  17.608  27.919  0.0317  0.2296 -0.1178
  954BOLB   GL422888  20.321  17.889  27.816 -0.0893 -0.0964  0.1034
  954BOLB   C1C22889  20.960  17.800  27.855  0.0817  0.2383 -0.1257
  954BOLB   C2C22890  21.400  17.896  27.780  0.0721  0.2953 -0.1659
  954BOLB   C3C22891  21.864  17.854  27.646 -0.1716 -0.1128 -0.1011
  954BOLB   C4C22892  22.306  17.704  27.487 -0.1887 -0.1472 -0.2837
  954BOLB   C1D22893  20.552  18.060  27.571  0.1399 -0.0235  0.0732
  954BOLB   C2D22894  20.797  18.293  27.280  0.0433  0.0536 -0.2754
  954BOLB   C3D22895  21.021  18.663  27.347  0.1896  0.1366 -0.0121
  954BOLB   C4D22896  21.373  18.913  27.350  0.0147  0.2186 -0.2743
  955BOLB   NC122897  23.130   8.901  32.311  0.2091  0.1569 -0.1419
  955BOLB   PO122898  22.997   8.557  32.021 -0.2234 -0.1992 -0.0284
  955BOLB   GL122899  23.320   8.256  32.103  0.1675 -0.1337 -0.1130
  955BOLB   GL222900  23.072   8.066  32.123  0.1658  0.1260 -0.1491
  955BOLB   C1A22901  23.749   8.192  32.147 -0.1568  0.4085 -0.0283
  955BOLB   C2A22902  24.115   8.251  32.281  0.2372 -0.3892 -0.1762
  955BOLB   C3A22903  24.531   8.465  32.342 -0.1618  0.2714 -0.2374
  955BOLB   C4A22904  24.856   8.321  32.507  0.2335 -0.1644 -0.2102
  955BOLB   C1B22905  23.385   7.822  32.321 -0.0512 -0.3803  0.2107
  955BOLB   C2B22906  23.669   7.444  32.445  0.1809  0.4111  0.0016
  955BOLB   C3B22907  23.847   6.953  32.456 -0.0088 -0.2582  0.0011
  955BOLB   C4B22908  23.887   6.631  32.660 -0.1722 -0.0163  0.2129
  955BOLB   NC222909  26.577   7.556  33.743  0.1592 -0.1127 -0.2406
  955BOLB   PO222910  26.764   7.873  33.555 -0.1299 -0.2832  0.1073
  955BOLB   GL322911  26.428   7.996  33.666 -0.0104  0.1897 -0.0202
  955BOLB   GL422912  26.416   8.356  33.715 -0.2715  0.0927 -0.0118
  955BOLB   C1C22913  26.026   7.795  33.506 -0.0599 -0.0815 -0.0947
  955BOLB   C2C22914  25.788   7.972  33.195  0.0469 -0.2178 -0.0380
  955BOLB   C3C22915  25.424   8.039  33.081  0.0238  0.1770 -0.0882
  955BOLB   C4C22916  25.279   8.156  32.641 -0.2887 -0.1013  0.0458
  955BOLB   C1D22917  25.996   8.310  33.714 -0.5207  0.2986 -0.0780
  955BOLB   C2D22918  25.640   8.216  33.664  0.1200 -0.0931  0.0883
  955BOLB   C3D22919  25.143   8.170  33.467  0.0111  0.0504 -0.1739
  955BOLB   C4D22920  24.788   7.954  33.337 -0.1497 -0.2041 -0.2068
  956BOLB   NC122921  13.805   7.694  22.812  0.0906  0.1530 -0.0419
  956BOLB   PO122922  13.672   8.005  22.465  0.3138 -0.0363 -0.2549
  956BOLB   GL122923  13.394   7.752  22.059  0.0252 -0.0836 -0.0777
  956BOLB   GL222924  13.667   7.672  22.006 -0.0509  0.1145 -0.0735
  956BOLB   C1A22925  12.990   7.582  21.791 -0.2116 -0.0631 -0.0340
  956BOLB   C2A22926  12.820   7.270  21.643 -0.0250  0.1038  0.2834
  956BOLB   C3A22927  12.499   7.125  21.514  0.3747 -0.3152  0.2559
  956BOLB   C4A22928  12.090   7.145  21.327  0.3828 -0.3880 -0.0637
  956BOLB   C1B22929  13.414   7.358  21.664  0.0366 -0.0875  0.0510
  956BOLB   C2B22930  13.210   7.123  21.308  0.1507 -0.0839 -0.0955
  956BOLB   C3B22931  12.829   6.933  21.055  0.0009 -0.1208 -0.1424
  956BOLB   C4B22932  12.584   7.069  20.611 -0.5438 -0.0599  0.2086
  956BOLB   NC222933  10.474   5.871  19.423 -0.3070  0.2892 -0.1811
  956BOLB   PO222934  10.865   6.052  19.724 -0.0038  0.3523  0.2899
  956BOLB   GL322935  10.952   6.484  19.855 -0.2703 -0.0140  0.0940
  956BOLB   GL422936  11.051   6.786  19.646  0.0639 -0.3737  0.3059
  956BOLB   C1C22937  11.142   6.744  20.158  0.0332  0.1019 -0.3082
  956BOLB   C2C22938  11.431   7.025  20.473  0.0232  0.0067 -0.3727
  956BOLB   C3C22939  11.573   7.012  20.863 -0.0426 -0.4362 -0.0220
  956BOLB   C4C22940  11.745   7.180  21.019 -0.2517  0.2690  0.1204
  956BOLB   C1D22941  11.504   6.890  19.759  0.0613  0.1643 -0.2944
  956BOLB   C2D22942  11.902   6.797  19.988  0.1961 -0.3576  0.0176
  956BOLB   C3D22943  12.173   6.444  20.004  0.2298  0.2382 -0.0039
  956BOLB   C4D22944  12.355   6.294  20.499  0.0011 -0.0219 -0.0439
  957BOLB   NC122945  20.004  21.862  21.077 -0.0700  0.1474 -0.1499
  957BOLB   PO122946  19.698  21.863  20.773  0.1338  0.0418  0.2606
  957BOLB   GL122947  19.518  21.511  21.029 -0.1948 -0.1688  0.0761
  957BOLB   GL222948  19.278  21.618  21.154 -0.2114 -0.0856  0.0743
  957BOLB   C1A22949  19.517  21.267  21.437 -0.0182 -0.1475 -0.0361
  957BOLB   C2A22950  19.164  21.125  21.718 -0.0709  0.1794  0.2164
  957BOLB   C3A22951  18.842  21.107  21.947 -0.1043 -0.1875 -0.0609
  957BOLB   C4A22952  18.340  20.899  21.902 -0.3020  0.1364  0.1828
  957BOLB   C1B22953  18.886  21.410  21.258 -0.1879  0.2919  0.2278
  957BOLB   C2B22954  18.670  21.075  21.424  0.0416 -0.2173 -0.0302
  957BOLB   C3B22955  18.512  20.723  21.280  0.2603 -0.0384 -0.1430
  957BOLB   C4B22956  18.529  20.307  21.439  0.0887 -0.1297  0.0318
  957BOLB   NC222957  17.766  21.517  19.483 -0.4196 -0.0441 -0.4374
  957BOLB   PO222958  17.853  21.779  19.896 -0.3487 -0.0681 -0.3152
  957BOLB   GL322959  17.720  21.590  20.240 -0.1179 -0.1101 -0.1615
  957BOLB   GL422960  17.536  21.525  20.394  0.0887  0.0775  0.0557
  957BOLB   C1C22961  17.895  21.241  20.484 -0.3436  0.0483  0.3031
  957BOLB   C2C22962  17.933  20.898  20.794  0.3379  0.1924  0.1469
  957BOLB   C3C22963  18.055  20.597  21.199  0.1408 -0.1495  0.4394
  957BOLB   C4C22964  18.133  20.593  21.708 -0.0149  0.0260  0.1369
  957BOLB   C1D22965  17.429  21.233  20.668  0.0984  0.3261  0.0542
  957BOLB   C2D22966  17.479  20.798  20.881 -0.4214  0.0328 -0.0181
  957BOLB   C3D22967  17.525  20.460  21.169 -0.1152 -0.2433  0.0788
  957BOLB   C4D22968  17.428  20.078  21.371  0.1242  0.1535 -0.0228
  958BOLB   NC122969  11.042  15.264  37.054  0.0025 -0.0277 -0.1110
  958BOLB   PO122970  10.598  14.978  37.106  0.0723 -0.2740  0.0090
  958BOLB   GL122971  10.252  15.191  37.212 -0.1321 -0.1197  0.0219
  958BOLB   GL222972  10.126  15.489  37.193 -0.2613 -0.4026 -0.1010
  958BOLB   C1A22973   9.910  15.101  37.543 -0.1734 -0.3223  0.0891
  958BOLB   C2A22974   9.614  15.191  37.836  0.1785 -0.0921  0.0899
  958BOLB   C3A22975   9.205  15.397  38.045  0.0883 -0.3476 -0.1033
  958BOLB   C4A22976   8.986  15.387  38.422 -0.3227 -0.1647  0.1178
  958BOLB   C1B22977   9.672  15.523  37.384 -0.3232 -0.1586 -0.2332
  958BOLB   C2B22978   9.425  15.635  37.599 -0.2925 -0.2315 -0.3407
  958BOLB   C3B22979   9.452  15.974  37.791 -0.2143  0.0151  0.1957
  958BOLB   C4B22980   9.290  16.299  38.034  0.0685  0.2117  0.3378
  958BOLB   NC222981   8.675  15.080  40.775  0.3319  0.1551 -0.0798
  958BOLB   PO222982   8.389  15.364  40.576  0.0955  0.0521  0.1801
  958BOLB   GL322983   8.714  15.209  40.302 -0.0162  0.2470  0.1567
  958BOLB   GL422984   8.794  15.456  40.299  0.0919 -0.2044 -0.0839
  958BOLB   C1C22985   9.055  15.131  40.027  0.0081  0.2054  0.2595
  958BOLB   C2C22986   9.109  15.106  39.532 -0.1220  0.0929  0.2042
  958BOLB   C3C22987   9.219  15.004  39.173  0.0138 -0.2831  0.0643
  958BOLB   C4C22988   9.140  15.061  38.696  0.2040  0.1199 -0.2187
  958BOLB   C1D22989   9.051  15.703  40.069 -0.2748  0.0546 -0.0526
  958BOLB   C2D22990   9.134  15.650  39.608  0.1127  0.1865  0.0213
  958BOLB   C3D22991   9.488  15.549  39.277 -0.1396 -0.0769  0.0606
  958BOLB   C4D22992   9.758  15.774  39.035  0.1691  0.3327 -0.1557
  959BOLB   NC122993  13.081  21.009  26.348  0.2991  0.1900 -0.1039
  959BOLB   PO122994  12.691  21.018  26.579  0.2168 -0.0219  0.0157
  959BOLB   GL122995  12.413  21.253  26.354 -0.0353  0.0003  0.0639
  959BOLB   GL222996  12.425  21.457  26.477  0.0838  0.2537 -0.2025
  959BOLB   C1A22997  12.361  21.629  25.934  0.2667  0.2310  0.2048
  959BOLB   C2A22998  12.390  21.978  25.664  0.0425 -0.1948  0.0963
  959BOLB   C3A22999  12.391  22.381  25.568  0.1172 -0.1477  0.1706
  959BOLB   C4A23000  12.566  22.795  25.461  0.1520  0.1456 -0.0049
  959BOLB   C1B23001  12.374  21.666  26.853 -0.2070 -0.1555 -0.0902
  959BOLB   C2B23002  12.272  22.042  27.127  0.0880  0.3819  0.3193
  959BOLB   C3B23003  12.301  22.414  27.445  0.1817  0.0316  0.2506
  959BOLB   C4B23004  12.416  22.764  27.664 -0.2467 -0.1951  0.1061
  959BOLB   NC223005  10.866  24.837  25.928  0.0597 -0.0634 -0.1580
  959BOLB   PO223006  10.919  24.433  25.763 -0.3009 -0.2634  0.3288
  959BOLB   GL323007  11.271  24.362  25.995  0.0841  0.4424 -0.1211
  959BOLB   GL423008  11.433  24.510  25.864  0.2411  0.0551 -0.0942
  959BOLB   C1C23009  11.598  24.038  26.111  0.0357 -0.0646 -0.2422
  959BOLB   C2C23010  11.743  23.650  25.899 -0.2067 -0.3847 -0.1773
  959BOLB   C3C23011  12.167  23.368  25.957 -0.2119 -0.3240  0.0236
  959BOLB   C4C23012  12.523  23.136  25.803  0.0855  0.2188  0.1220
  959BOLB   C1D23013  11.609  24.211  25.573 -0.3294 -0.0812  0.1228
  959BOLB   C2D23014  12.034  24.003  25.636  0.0469  0.2085 -0.1887
  959BOLB   C3D23015  12.058  23.505  25.463 -0.0052  0.2855 -0.2601
  959BOLB   C4D23016  12.438  23.489  25.345  0.0837 -0.1737 -0.0882
  960BOLB   NC123017  15.890  15.328  39.174  0.0416  0.1026 -0.1051
  960BOLB   PO123018  15.804  15.126  39.538  0.0564  0.0048 -0.0062
  960BOLB   GL123019  15.764  15.234  39.909  0.2391 -0.0236 -0.1545
  960BOLB   GL223020  15.627  15.546  39.908  0.3184  0.2839 -0.4938
  960BOLB   C1A23021  15.998  15.245  40.299 -0.3785  0.1128 -0.0911
  960BOLB   C2A23022  16.100  15.538  40.660 -0.1948  0.2089 -0.2783
  960BOLB   C3A23023  16.058  15.964  40.732 -0.2273 -0.1477 -0.3312
  960BOLB   C4A23024  15.688  16.176  40.918  0.1149 -0.0146  0.0726
  960BOLB   C1B23025  15.734  15.677  40.338 -0.1980 -0.1667  0.1452
  960BOLB   C2B23026  15.586  15.579  40.680  0.1656  0.1920  0.0380
  960BOLB   C3B23027  15.480  15.348  41.061  0.3403  0.2332  0.0195
  960BOLB   C4B23028  15.254  15.100  41.364  0.0327  0.0161 -0.1085
  960BOLB   NC223029  16.076  17.376  43.069 -0.1261 -0.1215 -0.0006
  960BOLB   PO223030  15.562  17.541  43.066 -0.0015 -0.0275 -0.3258
  960BOLB   GL323031  15.683  17.266  42.721 -0.0117 -0.4880 -0.1867
  960BOLB   GL423032  15.634  16.926  42.719 -0.1379  0.1461  0.0532
  960BOLB   C1C23033  15.822  17.233  42.339  0.0160  0.1998  0.3895
  960BOLB   C2C23034  15.851  16.966  42.012 -0.1758  0.2075 -0.0071
  960BOLB   C3C23035  15.821  16.795  41.505 -0.3136 -0.0623  0.0508
  960BOLB   C4C23036  15.472  16.558  41.231 -0.0257 -0.3525  0.0053
  960BOLB   C1D23037  15.383  16.861  42.309 -0.0646  0.3955 -0.0863
  960BOLB   C2D23038  15.036  16.599  42.440 -0.0837  0.0786  0.0083
  960BOLB   C3D23039  14.965  16.085  42.481  0.1407 -0.0531  0.1307
  960BOLB   C4D23040  15.016  15.623  42.583  0.1711 -0.3286 -0.0719
  961BOLB   NC123041   0.711   8.146  26.004  0.0143  0.0735  0.0565
  961BOLB   PO123042   0.248   8.412  26.008  0.0588 -0.3371 -0.2678
  961BOLB   GL123043  26.968   8.780  25.971  0.2199 -0.1464  0.0225
  961BOLB   GL223044  26.623   8.560  25.843 -0.0082  0.0890  0.3476
  961BOLB   C1A23045  26.558   8.948  26.119 -0.1921 -0.3368 -0.2864
  961BOLB   C2A23046  26.172   8.930  25.959  0.4671  0.3044  0.1400
  961BOLB   C3A23047  25.944   9.147  25.626  0.2854  0.1578 -0.1800
  961BOLB   C4A23048  25.840   9.395  25.177  0.4164  0.2025  0.0497
  961BOLB   C1B23049  26.165   8.461  26.063  0.1128 -0.2906 -0.0650
  961BOLB   C2B23050  25.765   8.623  25.974 -0.3084  0.4458  0.1732
  961BOLB   C3B23051  25.536   8.868  25.692  0.1255  0.3353 -0.1351
  961BOLB   C4B23052  25.456   9.246  25.444 -0.3477 -0.0924 -0.2218
  961BOLB   NC223053   0.728   8.886  25.828 -0.0572 -0.0990 -0.0339
  961BOLB   PO223054   0.470   9.361  25.759 -0.3023  0.1005  0.1877
  961BOLB   GL323055   0.070   9.518  25.654 -0.0543  0.1078  0.1473
  961BOLB   GL423056  26.952   9.262  26.010  0.1791 -0.0329 -0.0247
  961BOLB   C1C23057  26.769   9.642  25.699 -0.1724  0.0570 -0.1272
  961BOLB   C2C23058  26.476  10.060  25.524 -0.1933 -0.3403  0.1636
  961BOLB   C3C23059  26.154  10.073  25.335 -0.0882  0.0387 -0.0482
  961BOLB   C4C23060  25.817   9.879  25.185 -0.0553 -0.3130  0.2430
  961BOLB   C1D23061  26.700   9.148  25.703  0.0478  0.0453 -0.1281
  961BOLB   C2D23062  26.421   8.994  25.506 -0.3852  0.0625 -0.2845
  961BOLB   C3D23063  26.287   8.953  25.098 -0.0650  0.1018 -0.0061
  961BOLB   C4D23064  26.080   9.088  24.712 -0.2423 -0.0557  0.0048
  962BOLB   NC123065  20.316   6.278  25.170 -0.2082 -0.0572  0.1160
  962BOLB   PO123066  20.438   5.875  24.903  0.0989  0.2374  0.3918
  962BOLB   GL123067  20.767   5.565  24.648  0.2366  0.2433  0.2725
  962BOLB   GL223068  20.733   5.398  24.923  0.0558  0.1349  0.1798
  962BOLB   C1A23069  21.215   5.351  24.558 -0.0119  0.0033  0.0443
  962BOLB   C2A23070  21.320   4.941  24.696 -0.1148 -0.0630  0.2596
  962BOLB   C3A23071  21.188   4.585  25.128 -0.1374 -0.0449 -0.1660
  962BOLB   C4A23072  21.374   4.139  25.043  0.2591  0.0060  0.1296
  962BOLB   C1B23073  20.798   4.982  24.671  0.0801 -0.1156 -0.0696
  962BOLB   C2B23074  20.975   4.591  24.678  0.1315  0.1796  0.1570
  962BOLB   C3B23075  21.219   4.264  24.475  0.1802  0.0245  0.1833
  962BOLB   C4B23076  21.381   3.986  24.256  0.3725 -0.4220 -0.2000
  962BOLB   NC223077  21.717   1.498  24.675  0.2901 -0.0789  0.0086
  962BOLB   PO223078  21.231   1.643  24.608  0.3949  0.1351 -0.2089
  962BOLB   GL323079  21.105   2.119  24.668 -0.0180  0.1793 -0.0851
  962BOLB   GL423080  20.961   2.249  24.445 -0.0230  0.3124 -0.1554
  962BOLB   C1C23081  21.264   2.426  25.001  0.0141  0.0358  0.0819
  962BOLB   C2C23082  21.171   2.770  25.225 -0.3580  0.0613 -0.1039
  962BOLB   C3C23083  21.133   3.140  25.194  0.0125  0.0038 -0.0486
  962BOLB   C4C23084  21.189   3.628  25.173 -0.0111 -0.0607  0.2117
  962BOLB   C1D23085  20.838   2.598  24.622 -0.1987  0.0432  0.2145
  962BOLB   C2D23086  20.889   3.000  24.804 -0.5026 -0.0347 -0.0484
  962BOLB   C3D23087  20.971   3.465  24.773  0.0629 -0.1092  0.2739
  962BOLB   C4D23088  21.343   3.790  24.700  0.1372  0.2224 -0.0662
  963BOLB   NC123089  11.334  18.994  33.961 -0.1083 -0.0992  0.0774
  963BOLB   PO123090  10.898  18.932  33.992 -0.2274 -0.1348 -0.0327
  963BOLB   GL123091  10.864  19.347  34.116  0.1038 -0.2049 -0.3472
  963BOLB   GL223092  10.750  19.386  34.495 -0.1739 -0.0757  0.1000
  963BOLB   C1A23093  10.697  19.790  34.182 -0.0823 -0.3872 -0.2665
  963BOLB   C2A23094  10.699  20.186  34.439 -0.1035  0.0176  0.0961
  963BOLB   C3A23095  10.751  20.499  34.650  0.0897 -0.1140 -0.2322
  963BOLB   C4A23096  10.740  20.932  34.669 -0.0743 -0.1344  0.0553
  963BOLB   C1B23097  10.631  19.774  34.742  0.0827  0.1645  0.2677
  963BOLB   C2B23098  10.523  20.156  34.971 -0.1479  0.1134 -0.1523
  963BOLB   C3B23099  10.723  20.538  35.228  0.1820  0.0952 -0.1338
  963BOLB   C4B23100  10.948  20.500  35.625 -0.0816  0.2725  0.1332
  963BOLB   NC223101   9.482  22.901  36.302  0.0220  0.3608 -0.2311
  963BOLB   PO223102   9.838  22.937  36.055  0.0506  0.1242 -0.1513
  963BOLB   GL323103   9.803  22.489  36.015 -0.1582 -0.2385  0.0053
  963BOLB   GL423104   9.560  22.410  36.157 -0.0518  0.1702  0.1535
  963BOLB   C1C23105   9.840  22.213  35.717 -0.4567  0.1309  0.0773
  963BOLB   C2C23106  10.144  21.839  35.382 -0.1612 -0.3898  0.2018
  963BOLB   C3C23107  10.233  21.444  35.293 -0.2606  0.0168  0.0908
  963BOLB   C4C23108  10.426  21.190  34.981 -0.1054  0.0071  0.2992
  963BOLB   C1D23109   9.674  21.990  36.211 -0.1413  0.0632  0.2054
  963BOLB   C2D23110   9.883  21.588  36.457 -0.0991 -0.5334  0.0622
  963BOLB   C3D23111  10.053  21.161  36.465 -0.0114 -0.0295  0.2126
  963BOLB   C4D23112  10.309  20.933  36.142 -0.0122  0.0638  0.1005
  964BOLB   NC123113  22.457   8.794  30.048  0.0085  0.0816  0.1598
  964BOLB   PO123114  22.941   8.919  30.067 -0.0610 -0.0111  0.0858
  964BOLB   GL123115  23.411   8.731  30.120 -0.1312 -0.0535 -0.0892
  964BOLB   GL223116  23.658   8.880  29.788 -0.2459 -0.2542 -0.2444
  964BOLB   C1A23117  23.805   8.438  30.025 -0.3638  0.1346 -0.0635
  964BOLB   C2A23118  24.209   8.550  29.843 -0.0228  0.1102  0.2137
  964BOLB   C3A23119  24.666   8.549  29.785 -0.1599 -0.0290 -0.0613
  964BOLB   C4A23120  24.927   8.405  30.059  0.2409 -0.1483  0.0794
  964BOLB   C1B23121  23.992   9.050  29.751 -0.1700  0.2097  0.2247
  964BOLB   C2B23122  24.344   9.112  29.647  0.2110 -0.1315  0.2406
  964BOLB   C3B23123  24.784   9.196  29.455  0.1404 -0.0655  0.0172
  964BOLB   C4B23124  25.081   9.433  29.193  0.1570  0.0220 -0.0387
  964BOLB   NC223125  26.864   7.260  30.846  0.2724  0.1731  0.1800
  964BOLB   PO223126  27.005   7.538  30.633  0.3472  0.2336 -0.1018
  964BOLB   GL323127  26.566   7.586  30.604 -0.2052 -0.2133 -0.2459
  964BOLB   GL423128  26.622   7.725  31.003  0.2417  0.1041  0.2999
  964BOLB   C1C23129  26.070   7.718  30.708 -0.2484  0.1516  0.2255
  964BOLB   C2C23130  25.612   7.830  30.652 -0.0284  0.1322  0.2323
  964BOLB   C3C23131  25.281   7.937  30.600 -0.1412  0.2380 -0.1509
  964BOLB   C4C23132  25.004   8.261  30.455  0.1211  0.1439  0.1179
  964BOLB   C1D23133  26.208   7.815  31.175  0.2348  0.1401 -0.1013
  964BOLB   C2D23134  25.736   7.915  31.303  0.1890 -0.3007  0.2888
  964BOLB   C3D23135  25.338   7.753  31.225  0.1707 -0.4806  0.1675
  964BOLB   C4D23136  25.015   7.479  31.197 -0.0935 -0.3683  0.0383
  965BOLB   NC123137  19.201  19.734  17.661 -0.1408 -0.0521 -0.4124
  965BOLB   PO123138  19.002  19.414  17.541 -0.1906  0.1077  0.0672
  965BOLB   GL123139  18.774  19.396  17.865  0.2402 -0.1494 -0.0257
  965BOLB   GL223140  18.836  19.669  18.043 -0.2366  0.4634 -0.1014
  965BOLB   C1A23141  18.524  19.086  18.100 -0.0221  0.1168 -0.0755
  965BOLB   C2A23142  18.315  18.915  18.383  0.2900 -0.1314 -0.0591
  965BOLB   C3A23143  18.317  18.711  18.866 -0.0568  0.0669  0.0516
  965BOLB   C4A23144  18.455  18.775  19.236 -0.2461  0.1080 -0.0376
  965BOLB   C1B23145  18.524  19.577  18.256  0.4171 -0.0113 -0.1217
  965BOLB   C2B23146  18.460  19.286  18.620 -0.1238  0.0709  0.0911
  965BOLB   C3B23147  18.150  19.180  19.035  0.1356  0.0047  0.3460
  965BOLB   C4B23148  17.890  19.302  19.232 -0.1373 -0.3263  0.0242
  965BOLB   NC223149  19.167  20.010  19.116 -0.0810  0.0748 -0.0802
  965BOLB   PO223150  19.000  20.243  18.892  0.0844  0.2100  0.1664
  965BOLB   GL323151  18.657  19.983  19.018  0.1265  0.1267 -0.3996
  965BOLB   GL423152  18.805  19.811  19.381  0.5360  0.0261  0.0589
  965BOLB   C1C23153  18.290  19.804  19.173  0.0203 -0.1872  0.0844
  965BOLB   C2C23154  18.093  19.577  19.593 -0.0609 -0.2099 -0.0009
  965BOLB   C3C23155  18.130  19.166  19.814  0.0173  0.0329 -0.0167
  965BOLB   C4C23156  18.448  18.889  19.715  0.1440 -0.1481 -0.0387
  965BOLB   C1D23157  18.571  19.857  19.685 -0.2529  0.1000  0.2763
  965BOLB   C2D23158  18.441  19.812  20.075 -0.1144  0.0085 -0.2408
  965BOLB   C3D23159  18.242  19.552  20.382 -0.4756 -0.1170 -0.1882
  965BOLB   C4D23160  18.509  19.292  20.736 -0.0622 -0.1178 -0.0526
  966BOLB   NC123161   9.313  19.383  29.786  0.1737 -0.0225  0.0430
  966BOLB   PO123162   9.418  19.717  29.432  0.2915  0.0616 -0.1769
  966BOLB   GL123163   9.410  19.865  29.867  0.0568 -0.0070  0.1760
  966BOLB   GL223164   9.493  20.171  29.644 -0.0680 -0.3158 -0.0032
  966BOLB   C1A23165   9.232  20.123  30.144 -0.0712  0.0891 -0.1872
  966BOLB   C2A23166   9.002  20.445  30.336  0.0416 -0.2070 -0.1598
  966BOLB   C3A23167   8.770  20.538  29.997  0.0160  0.2886  0.1957
  966BOLB   C4A23168   8.451  20.722  29.762  0.0475  0.0726  0.0139
  966BOLB   C1B23169   9.403  20.597  29.414  0.1831  0.3263 -0.1945
  966BOLB   C2B23170   9.266  21.061  29.346  0.4933  0.0665  0.1676
  966BOLB   C3B23171   9.134  21.458  29.019 -0.4510 -0.2473 -0.3047
  966BOLB   C4B23172   8.840  21.804  29.148  0.0629 -0.1612  0.1567
  966BOLB   NC223173   6.662  22.386  28.764  0.1752 -0.2596 -0.2495
  966BOLB   PO223174   6.484  22.048  28.942  0.1416 -0.2299 -0.0089
  966BOLB   GL323175   6.715  21.908  29.277 -0.3433 -0.3326  0.0415
  966BOLB   GL423176   6.731  21.849  29.631 -0.0348 -0.1765 -0.2867
  966BOLB   C1C23177   7.084  21.681  29.320  0.2819  0.1271  0.0207
  966BOLB   C2C23178   7.447  21.455  29.421  0.1925  0.3024 -0.0385
  966BOLB   C3C23179   7.642  21.132  29.697 -0.2329  0.0380 -0.3630
  966BOLB   C4C23180   7.989  20.829  29.792  0.1727 -0.4157 -0.0687
  966BOLB   C1D23181   7.232  21.725  29.814 -0.0538  0.0559 -0.0067
  966BOLB   C2D23182   7.734  21.605  29.918  0.0764  0.1762  0.1955
  966BOLB   C3D23183   8.073  21.335  29.828 -0.0002 -0.1321 -0.2527
  966BOLB   C4D23184   8.249  21.032  30.158 -0.0786  0.0843 -0.0836
  967BOLB   NC123185  16.990   6.401  36.898 -0.1426 -0.1948  0.0089
  967BOLB   PO123186  17.343   6.230  36.992  0.0601  0.1512 -0.1856
  967BOLB   GL123187  17.522   6.097  37.329  0.1353  0.0733 -0.2138
  967BOLB   GL223188  17.835   6.005  37.300 -0.0117  0.0275  0.1596
  967BOLB   C1A23189  17.337   6.271  37.699  0.1912 -0.1152  0.4169
  967BOLB   C2A23190  17.375   5.965  38.010  0.0099 -0.1312  0.1513
  967BOLB   C3A23191  17.426   5.603  37.990  0.4023 -0.0167  0.1571
  967BOLB   C4A23192  17.264   5.280  38.164 -0.2317 -0.0794  0.0373
  967BOLB   C1B23193  17.799   5.860  37.751  0.0327  0.0263 -0.3138
  967BOLB   C2B23194  17.913   5.724  38.214  0.4771 -0.2574 -0.1994
  967BOLB   C3B23195  17.699   5.364  38.339  0.3729 -0.0023  0.1599
  967BOLB   C4B23196  17.743   5.030  38.109 -0.2761  0.0503  0.0422
  967BOLB   NC223197  17.804   3.792  39.660  0.0723  0.0985 -0.1215
  967BOLB   PO223198  18.060   3.402  39.532  0.0236  0.2481  0.1851
  967BOLB   GL323199  17.702   3.646  39.203  0.0152 -0.1104  0.3042
  967BOLB   GL423200  17.910   3.759  38.928  0.0877  0.1007 -0.1724
  967BOLB   C1C23201  17.255   3.804  39.030  0.4783 -0.0851  0.0369
  967BOLB   C2C23202  17.203   4.242  38.937  0.2920 -0.1594 -0.1509
  967BOLB   C3C23203  17.321   4.472  38.588  0.0161  0.1194 -0.0732
  967BOLB   C4C23204  17.360   4.864  38.394 -0.2049  0.2556  0.0931
  967BOLB   C1D23205  18.138   4.024  39.122  0.0129 -0.1386 -0.1340
  967BOLB   C2D23206  18.211   4.431  39.033 -0.2713 -0.0828 -0.2588
  967BOLB   C3D23207  18.503   4.770  39.054 -0.1605 -0.0148 -0.0902
  967BOLB   C4D23208  18.579   5.200  38.817  0.2385  0.1642  0.2083
  968BOLB   NC123209  15.922   9.567  20.595  0.1030  0.1240  0.1401
  968BOLB   PO123210  15.724   9.250  20.575 -0.2219 -0.1397  0.2570
  968BOLB   GL123211  15.771   8.989  20.173  0.0413 -0.0977  0.2370
  968BOLB   GL223212  15.977   8.705  20.115 -0.3185  0.1654  0.0406
  968BOLB   C1A23213  15.573   8.768  19.795 -0.0465 -0.2038  0.1618
  968BOLB   C2A23214  15.461   8.562  19.397  0.1380  0.1719  0.0068
  968BOLB   C3A23215  15.126   8.497  19.104 -0.0283  0.0590  0.0848
  968BOLB   C4A23216  14.709   8.373  18.892  0.0911 -0.1987 -0.6267
  968BOLB   C1B23217  15.914   8.353  19.907 -0.0071 -0.0017  0.0564
  968BOLB   C2B23218  16.015   8.007  19.666 -0.1518 -0.4216  0.1859
  968BOLB   C3B23219  16.261   7.678  19.523  0.0529  0.1314 -0.2615
  968BOLB   C4B23220  16.430   7.430  19.168 -0.0160  0.0481 -0.1056
  968BOLB   NC223221  13.554   7.640  16.959  0.1028 -0.2852 -0.0705
  968BOLB   PO223222  13.366   7.377  17.085 -0.1464 -0.3955 -0.0580
  968BOLB   GL323223  13.684   7.445  17.355  0.4017  0.0320  0.0945
  968BOLB   GL423224  13.788   7.821  17.362 -0.3659 -0.2832 -0.0275
  968BOLB   C1C23225  13.927   7.483  17.780  0.2083 -0.1519  0.0994
  968BOLB   C2C23226  14.116   7.746  18.092  0.0357  0.1146 -0.2720
  968BOLB   C3C23227  14.361   7.662  18.365  0.3610 -0.0846 -0.0622
  968BOLB   C4C23228  14.635   7.967  18.619 -0.1400 -0.3258  0.4565
  968BOLB   C1D23229  13.751   7.970  17.776 -0.1291  0.3156 -0.0546
  968BOLB   C2D23230  13.703   8.005  18.203  0.2509  0.0534  0.0709
  968BOLB   C3D23231  13.522   8.054  18.591  0.2871  0.1027  0.2225
  968BOLB   C4D23232  13.465   7.942  19.002 -0.0235 -0.2051  0.1758
  969BOLB   NC123233  11.858  21.144  29.602 -0.0298  0.2374  0.1333
  969BOLB   PO123234  12.204  20.862  29.422 -0.1734 -0.1075 -0.0519
  969BOLB   GL123235  12.067  21.260  29.148 -0.1571 -0.0420  0.0365
  969BOLB   GL223236  11.797  21.624  29.157 -0.1478  0.1802  0.3192
  969BOLB   C1A23237  11.920  21.297  28.720  0.2858 -0.1931  0.3248
  969BOLB   C2A23238  11.639  21.560  28.652 -0.4398  0.0265  0.0836
  969BOLB   C3A23239  11.608  22.005  28.540  0.1819 -0.4053  0.1714
  969BOLB   C4A23240  11.381  22.381  28.671 -0.1888 -0.0346 -0.2179
  969BOLB   C1B23241  11.512  21.945  28.988 -0.1064  0.1603 -0.2476
  969BOLB   C2B23242  11.198  22.130  29.109  0.0879  0.1845  0.0745
  969BOLB   C3B23243  11.071  22.438  29.424 -0.1444  0.0241 -0.2496
  969BOLB   C4B23244  10.885  22.526  29.775  0.0226 -0.2955  0.1577
  969BOLB   NC223245   9.946  25.052  28.648 -0.1495  0.1344 -0.0386
  969BOLB   PO223246  10.271  24.716  28.846 -0.0808 -0.1410 -0.0354
  969BOLB   GL323247  10.382  24.386  28.589  0.3286  0.1637 -0.1537
  969BOLB   GL423248  10.511  24.348  28.318 -0.0883 -0.0086  0.2913
  969BOLB   C1C23249  10.737  23.973  28.683 -0.0259  0.0805 -0.1314
  969BOLB   C2C23250  11.033  23.612  28.636  0.0407 -0.1600  0.0002
  969BOLB   C3C23251  11.253  23.196  28.595  0.3182 -0.1250  0.0371
  969BOLB   C4C23252  11.390  22.842  28.707  0.2427  0.4411  0.0040
  969BOLB   C1D23253  10.569  23.853  28.186 -0.3129  0.2049 -0.0417
  969BOLB   C2D23254  10.509  23.524  28.460  0.1209  0.0175 -0.0148
  969BOLB   C3D23255  10.710  23.069  28.443 -0.0371 -0.0218 -0.5079
  969BOLB   C4D23256  10.882  22.768  28.564  0.2485  0.0267  0.1534
  970BOLB   NC123257  22.422  18.769  22.179 -0.1834  0.0417  0.1237
  970BOLB   PO123258  22.195  19.174  22.230 -0.0381 -0.1521  0.0279
  970BOLB   GL123259  21.820  18.950  22.223 -0.3461  0.1063  0.0098
  970BOLB   GL223260  21.823  18.709  21.890  0.0949  0.5040  0.0224
  970BOLB   C1A23261  21.523  19.118  22.556  0.3420 -0.0304  0.1512
  970BOLB   C2A23262  21.288  18.889  22.881  0.1045  0.2762 -0.0030
  970BOLB   C3A23263  21.019  18.665  23.250 -0.2229  0.0263  0.2995
  970BOLB   C4A23264  20.716  18.664  23.526  0.0471  0.2680 -0.0529
  970BOLB   C1B23265  21.861  18.308  21.836  0.0592  0.0848  0.2405
  970BOLB   C2B23266  21.487  17.929  22.036 -0.0657 -0.1124  0.2038
  970BOLB   C3B23267  21.129  17.751  22.020  0.2172 -0.3351  0.1001
  970BOLB   C4B23268  20.651  17.812  22.075 -0.1388  0.3470 -0.2591
  970BOLB   NC223269  21.441  21.292  23.334  0.0235  0.0559 -0.0438
  970BOLB   PO223270  21.445  20.933  23.663 -0.0738 -0.0347 -0.2613
  970BOLB   GL323271  21.172  20.649  23.826  0.2413  0.0253 -0.1238
  970BOLB   GL423272  21.350  20.719  24.181  0.1381  0.2597 -0.0047
  970BOLB   C1C23273  20.982  20.200  23.978  0.1314 -0.3712 -0.1735
  970BOLB   C2C23274  20.835  19.691  23.990  0.1210  0.3975 -0.2400
  970BOLB   C3C23275  20.825  19.329  24.103  0.2791  0.0121  0.1394
  970BOLB   C4C23276  20.621  18.951  23.836  0.1962 -0.1183  0.3583
  970BOLB   C1D23277  21.267  20.288  24.460  0.3487 -0.1813  0.0965
  970BOLB   C2D23278  21.247  19.819  24.749  0.1120  0.0143 -0.0500
  970BOLB   C3D23279  21.532  19.376  24.889  0.0269 -0.1920  0.1573
  970BOLB   C4D23280  21.234  19.004  24.954 -0.0594 -0.0283 -0.5212
  971BOLB   NC123281  20.407  16.146  42.347 -0.1470  0.0016  0.0994
  971BOLB   PO123282  20.016  16.098  42.331 -0.1395 -0.0132 -0.0032
  971BOLB   GL123283  19.789  15.947  42.020  0.1068 -0.4650 -0.2532
  971BOLB   GL223284  19.667  15.763  42.222  0.1054  0.0654  0.1758
  971BOLB   C1A23285  19.765  15.838  41.501 -0.2112  0.0013 -0.1096
  971BOLB   C2A23286  19.503  15.755  41.224  0.0124  0.0820  0.0649
  971BOLB   C3A23287  19.465  15.415  41.017  0.0351  0.1782  0.0848
  971BOLB   C4A23288  19.196  15.485  40.598  0.2237  0.2974 -0.0636
  971BOLB   C1B23289  19.366  15.786  41.811  0.0331 -0.2422  0.0870
  971BOLB   C2B23290  19.304  15.497  41.567 -0.0667  0.3354 -0.1117
  971BOLB   C3B23291  19.021  15.539  41.141  0.1736 -0.0831  0.0809
  971BOLB   C4B23292  18.761  15.530  40.790 -0.2166  0.1633  0.0401
  971BOLB   NC223293  19.972  17.323  42.159  0.0498  0.1286 -0.0573
  971BOLB   PO223294  19.808  16.967  42.022  0.0820 -0.0549 -0.0345
  971BOLB   GL323295  19.794  16.621  41.746  0.1467  0.1694 -0.2079
  971BOLB   GL423296  19.613  16.377  41.812 -0.1508  0.1720 -0.2074
  971BOLB   C1C23297  19.675  16.729  41.308 -0.3849 -0.5430 -0.4325
  971BOLB   C2C23298  19.633  16.463  40.866 -0.1270 -0.1367 -0.0910
  971BOLB   C3C23299  19.450  16.212  40.539 -0.0519 -0.1177  0.2375
  971BOLB   C4C23300  19.181  15.847  40.459 -0.0985 -0.3508 -0.2640
  971BOLB   C1D23301  19.339  16.202  41.507 -0.1230  0.3135 -0.1923
  971BOLB   C2D23302  19.015  16.000  41.383 -0.0094  0.0295 -0.0162
  971BOLB   C3D23303  18.659  15.835  41.254  0.1876 -0.0288  0.1833
  971BOLB   C4D23304  18.342  15.781  40.891  0.1708 -0.0001 -0.1229
  972BOLB   NC123305  11.746  24.769  26.327 -0.2418 -0.2980 -0.1423
  972BOLB   PO123306  11.969  24.867  26.795  0.0421  0.0641  0.1599
  972BOLB   GL123307  12.080  24.462  26.533 -0.4160  0.2413 -0.0898
  972BOLB   GL223308  12.307  24.221  26.681  0.1901  0.1401  0.0891
  972BOLB   C1A23309  12.117  24.148  26.247 -0.0535  0.3203  0.1371
  972BOLB   C2A23310  12.138  23.822  26.125 -0.0271 -0.1209  0.0069
  972BOLB   C3A23311  12.510  23.756  25.860 -0.0644  0.1263  0.0980
  972BOLB   C4A23312  12.829  23.573  25.573  0.0968  0.4862 -0.1537
  972BOLB   C1B23313  12.194  23.794  26.646  0.1450  0.2762 -0.3040
  972BOLB   C2B23314  11.927  23.389  26.489  0.1239  0.0931 -0.2147
  972BOLB   C3B23315  11.597  23.091  26.508  0.1746  0.2259 -0.2692
  972BOLB   C4B23316  11.416  22.735  26.624  0.2358  0.2306  0.1331
  972BOLB   NC223317  14.418  25.146  24.833 -0.0721  0.0150 -0.0993
  972BOLB   PO223318  14.469  24.878  25.253  0.0498  0.0582  0.2767
  972BOLB   GL323319  14.217  24.504  25.224  0.0375 -0.2077  0.3060
  972BOLB   GL423320  14.404  24.351  25.411 -0.2784 -0.0513  0.2573
  972BOLB   C1C23321  13.954  24.290  24.981 -0.1520  0.1196  0.0005
  972BOLB   C2C23322  13.661  23.896  25.015  0.1552 -0.0469  0.3697
  972BOLB   C3C23323  13.519  23.607  25.320 -0.1149  0.0750  0.0905
  972BOLB   C4C23324  13.133  23.489  25.316 -0.2836  0.1452  0.0436
  972BOLB   C1D23325  14.168  23.841  25.248 -0.0082  0.0673  0.1877
  972BOLB   C2D23326  14.211  23.493  25.402 -0.1903 -0.3353  0.1867
  972BOLB   C3D23327  13.872  23.142  25.365  0.2129  0.2217 -0.1659
  972BOLB   C4D23328  13.493  23.157  25.454  0.0414  0.1852  0.1572
  973BOLB   NC123329  15.668   7.376  36.769 -0.1396  0.0479  0.2988
  973BOLB   PO123330  15.555   6.872  36.895 -0.2419 -0.1775  0.0302
  973BOLB   GL123331  15.438   6.402  37.145 -0.0041 -0.1779  0.1501
  973BOLB   GL223332  15.357   6.072  36.957  0.4505  0.1282 -0.0498
  973BOLB   C1A23333  15.153   6.109  37.491  0.0062  0.3492  0.2105
  973BOLB   C2A23334  14.832   5.984  37.723  0.1764  0.0022 -0.0912
  973BOLB   C3A23335  14.531   5.749  38.053  0.1845 -0.2016 -0.1955
  973BOLB   C4A23336  14.141   5.740  38.367  0.1571  0.1459 -0.1600
  973BOLB   C1B23337  15.271   5.716  37.149  0.2997 -0.1651 -0.1782
  973BOLB   C2B23338  15.054   5.326  37.151  0.2239  0.0566  0.0790
  973BOLB   C3B23339  14.911   5.008  37.419  0.1512 -0.0910 -0.0901
  973BOLB   C4B23340  15.007   4.603  37.360 -0.0716  0.1819  0.0874
  973BOLB   NC223341  13.795   3.656  40.145 -0.1148  0.1267  0.1156
  973BOLB   PO223342  13.547   3.641  39.633 -0.2317 -0.1508 -0.1482
  973BOLB   GL323343  13.779   4.023  39.453  0.0710  0.1508 -0.1375
  973BOLB   GL423344  13.525   4.256  39.619 -0.2293  0.0962 -0.1092
  973BOLB   C1C23345  13.922   4.327  39.115  0.1204  0.0052 -0.0080
  973BOLB   C2C23346  13.823   4.752  38.873  0.0309 -0.1359  0.0623
  973BOLB   C3C23347  13.826   5.170  38.780 -0.0805 -0.0810  0.1605
  973BOLB   C4C23348  13.930   5.531  38.636  0.0121 -0.0756 -0.2440
  973BOLB   C1D23349  13.547   4.605  39.340  0.0605  0.3951 -0.0143
  973BOLB   C2D23350  13.335   4.943  39.067  0.0169 -0.0518 -0.0875
  973BOLB   C3D23351  13.006   5.164  38.891  0.0472 -0.0642  0.3516
  973BOLB   C4D23352  12.761   5.408  38.596  0.0736  0.3530  0.0135
  974BOLB   NC123353  21.068   6.981  26.015  0.0333  0.0351  0.0066
  974BOLB   PO123354  21.388   6.654  26.109  0.1728  0.1588 -0.0154
  974BOLB   GL123355  21.841   6.479  25.928  0.2401  0.5723 -0.1054
  974BOLB   GL223356  21.974   6.693  25.685  0.0642  0.3300  0.2007
  974BOLB   C1A23357  22.232   6.194  26.008  0.1552  0.1124 -0.0339
  974BOLB   C2A23358  22.593   6.070  25.866 -0.1033  0.1309  0.4874
  974BOLB   C3A23359  22.839   5.788  26.048  0.0673 -0.0938 -0.1704
  974BOLB   C4A23360  23.182   5.542  26.031 -0.1339 -0.0839 -0.1174
  974BOLB   C1B23361  22.290   6.430  25.603 -0.0936 -0.1522 -0.1213
  974BOLB   C2B23362  22.335   5.975  25.416 -0.0283  0.1505 -0.1708
  974BOLB   C3B23363  22.673   5.679  25.436 -0.0387 -0.0549  0.0790
  974BOLB   C4B23364  22.658   5.288  25.225  0.1080  0.0964 -0.0956
  974BOLB   NC223365  25.343   3.521  26.367  0.0816 -0.1567  0.0678
  974BOLB   PO223366  25.016   3.725  26.157  0.2607 -0.1622  0.0966
  974BOLB   GL323367  24.895   4.108  26.139  0.3800  0.3970 -0.0550
  974BOLB   GL423368  25.057   4.372  26.114 -0.2385  0.2526  0.2423
  974BOLB   C1C23369  24.516   4.386  26.012  0.2728 -0.0783 -0.3223
  974BOLB   C2C23370  24.337   4.756  26.225 -0.1753 -0.0340  0.0072
  974BOLB   C3C23371  23.980   5.232  26.048 -0.0613 -0.1384  0.0904
  974BOLB   C4C23372  23.629   5.632  25.951 -0.4666  0.2113 -0.0185
  974BOLB   C1D23373  24.840   4.607  26.362 -0.0669 -0.1122 -0.3807
  974BOLB   C2D23374  24.700   5.099  26.318 -0.1061 -0.0094  0.3716
  974BOLB   C3D23375  24.509   5.495  26.201 -0.1267  0.4830 -0.1736
  974BOLB   C4D23376  24.223   5.811  26.074  0.1423 -0.3778  0.2647
  975BOLB   NC123377  20.915  12.277  38.086 -0.0693 -0.0314 -0.0601
  975BOLB   PO123378  20.705  12.421  38.477  0.0021 -0.1426  0.1129
  975BOLB   GL123379  21.176  12.322  38.537  0.1304  0.2477 -0.0460
  975BOLB   GL223380  21.500  12.107  38.574 -0.3214  0.2097  0.2082
  975BOLB   C1A23381  21.505  12.592  38.319 -0.2335 -0.2251 -0.2657
  975BOLB   C2A23382  21.654  12.954  38.074 -0.0984  0.0303  0.2089
  975BOLB   C3A23383  22.027  13.182  38.034  0.0057 -0.0809  0.2607
  975BOLB   C4A23384  22.348  13.209  38.333 -0.3701 -0.0693  0.1238
  975BOLB   C1B23385  21.615  12.272  38.973  0.2834  0.1239 -0.0614
  975BOLB   C2B23386  21.822  12.597  39.272  0.2585 -0.2806  0.0374
  975BOLB   C3B23387  22.101  12.972  39.198 -0.1687  0.0708 -0.2453
  975BOLB   C4B23388  22.152  13.196  38.800  0.3690  0.1113 -0.0599
  975BOLB   NC223389  22.327  13.025  36.355  0.1521  0.1540  0.0546
  975BOLB   PO223390  21.908  13.163  36.647  0.0239  0.1216  0.0882
  975BOLB   GL323391  22.289  13.210  36.981  0.0009 -0.0990  0.1340
  975BOLB   GL423392  22.453  13.592  37.025  0.0077  0.0470  0.2524
  975BOLB   C1C23393  22.667  13.009  37.265 -0.0999 -0.2418 -0.1935
  975BOLB   C2C23394  22.846  13.176  37.646  0.1459 -0.1203 -0.1219
  975BOLB   C3C23395  23.050  13.118  38.014  0.0199 -0.0982 -0.1572
  975BOLB   C4C23396  22.770  13.062  38.268  0.0039 -0.2726 -0.3355
  975BOLB   C1D23397  22.828  13.498  37.300 -0.0681  0.1809  0.0805
  975BOLB   C2D23398  22.962  13.681  37.744 -0.0098  0.1088  0.3029
  975BOLB   C3D23399  22.948  14.094  37.922 -0.0502 -0.1713  0.2697
  975BOLB   C4D23400  22.734  14.327  37.572  0.1427  0.0497  0.0974
  976BOLB   NC123401  17.132   5.855  35.613  0.2003  0.1483 -0.0339
  976BOLB   PO123402  17.518   5.795  35.484 -0.0875 -0.0525 -0.1273
  976BOLB   GL123403  17.501   5.445  35.707  0.1919 -0.0717 -0.0066
  976BOLB   GL223404  17.362   5.122  35.809 -0.2466  0.2940 -0.2652
  976BOLB   C1A23405  17.898   5.289  35.894 -0.1819 -0.1907 -0.1496
  976BOLB   C2A23406  18.218   5.085  35.756  0.0159 -0.7359  0.0815
  976BOLB   C3A23407  18.579   4.870  35.968 -0.1452  0.0311 -0.0048
  976BOLB   C4A23408  18.876   4.760  36.337 -0.2957  0.2203  0.1123
  976BOLB   C1B23409  17.712   4.854  36.129  0.1653  0.1476 -0.0368
  976BOLB   C2B23410  17.799   4.523  36.388  0.1058 -0.0699  0.2275
  976BOLB   C3B23411  18.083   4.182  36.473 -0.1228  0.0970 -0.0167
  976BOLB   C4B23412  18.085   4.158  36.905 -0.1551  0.0866  0.3049
  976BOLB   NC223413  20.267   2.866  36.935 -0.0262  0.4339  0.1257
  976BOLB   PO223414  20.152   2.797  37.370 -0.2784  0.3666  0.1219
  976BOLB   GL323415  19.934   3.167  37.124  0.0961 -0.2208  0.0001
  976BOLB   GL423416  19.717   3.270  37.428 -0.0610  0.2113  0.0312
  976BOLB   C1C23417  19.899   3.502  36.930  0.0609  0.0546 -0.0388
  976BOLB   C2C23418  19.630   3.973  36.880  0.0334 -0.0156  0.4682
  976BOLB   C3C23419  19.458   4.275  36.804  0.0168 -0.2728 -0.4691
  976BOLB   C4C23420  19.204   4.595  36.625 -0.0316  0.0998 -0.2304
  976BOLB   C1D23421  19.737   3.678  37.392 -0.0362 -0.1351  0.0465
  976BOLB   C2D23422  19.906   4.056  37.312 -0.6990  0.2829 -0.4897
  976BOLB   C3D23423  19.889   4.395  37.037 -0.0594  0.0787  0.1291
  976BOLB   C4D23424  20.099   4.656  36.844  0.2347 -0.0003 -0.0703
  977BOLB   NC123425  25.988  16.242  36.582  0.3145  0.1143 -0.1049
  977BOLB   PO123426  26.253  15.906  36.369 -0.2256  0.3104 -0.1371
  977BOLB   GL123427  25.862  15.816  36.316  0.4259  0.1787  0.2147
  977BOLB   GL223428  25.765  15.783  35.880 -0.1397 -0.4749 -0.1930
  977BOLB   C1A23429  25.321  15.704  36.225 -0.1143 -0.4269  0.0461
  977BOLB   C2A23430  25.032  15.741  36.598  0.0962 -0.0739 -0.0977
  977BOLB   C3A23431  24.833  15.544  37.043  0.3112 -0.0408  0.3271
  977BOLB   C4A23432  24.413  15.430  37.159 -0.1213  0.2674 -0.0014
  977BOLB   C1B23433  25.334  15.792  35.639 -0.2063  0.0821 -0.3455
  977BOLB   C2B23434  25.077  15.565  35.585  0.1234  0.0437 -0.0523
  977BOLB   C3B23435  24.874  15.191  35.582 -0.2489  0.0436 -0.0346
  977BOLB   C4B23436  24.893  14.787  35.455 -0.2327 -0.1235 -0.3872
  977BOLB   NC223437  22.368  14.667  35.301  0.1053  0.0762  0.3707
  977BOLB   PO223438  22.656  14.627  35.652  0.1802  0.0791  0.0955
  977BOLB   GL323439  22.952  14.836  35.879 -0.1634 -0.0965  0.2877
  977BOLB   GL423440  22.781  14.682  36.132 -0.0922  0.0516 -0.2053
  977BOLB   C1C23441  23.254  15.075  36.220 -0.0863  0.1029 -0.0932
  977BOLB   C2C23442  23.463  15.453  36.373 -0.2023  0.0716 -0.5387
  977BOLB   C3C23443  23.761  15.622  36.658  0.0511  0.0520 -0.1170
  977BOLB   C4C23444  24.102  15.620  36.895 -0.0841  0.1488  0.1919
  977BOLB   C1D23445  23.021  14.716  36.539 -0.0340  0.2323  0.0435
  977BOLB   C2D23446  23.118  14.897  36.911  0.3406 -0.5005 -0.3822
  977BOLB   C3D23447  23.193  15.117  37.378  0.3541  0.0867 -0.0423
  977BOLB   C4D23448  23.356  15.351  37.640 -0.0708  0.0738 -0.0471
  978BOLB   NC123449  14.369  15.346  20.771 -0.3861 -0.0439 -0.0759
  978BOLB   PO123450  14.336  14.888  20.575 -0.0110  0.0439 -0.0051
  978BOLB   GL123451  14.553  14.815  20.124 -0.0269  0.0563  0.1860
  978BOLB   GL223452  14.469  15.019  20.003 -0.2430  0.1430 -0.0593
  978BOLB   C1A23453  14.697  14.660  19.708  0.3089 -0.0004 -0.0495
  978BOLB   C2A23454  14.470  14.713  19.270  0.0409  0.1432  0.1224
  978BOLB   C3A23455  14.511  14.815  18.911 -0.1666 -0.1916  0.0399
  978BOLB   C4A23456  14.362  14.766  18.520  0.2348  0.1066  0.4037
  978BOLB   C1B23457  14.264  14.997  19.684 -0.2536  0.1378  0.0713
  978BOLB   C2B23458  14.081  15.044  19.199 -0.0322  0.2066 -0.3432
  978BOLB   C3B23459  14.160  15.135  18.792 -0.1222  0.2385  0.0630
  978BOLB   C4B23460  14.038  15.404  18.391 -0.0565 -0.2031 -0.0928
  978BOLB   NC223461  14.272  14.759  15.749 -0.1312 -0.0823 -0.0854
  978BOLB   PO223462  14.137  15.066  15.994  0.0739 -0.0501 -0.0388
  978BOLB   GL323463  14.114  14.801  16.345  0.1148 -0.2821 -0.2934
  978BOLB   GL423464  14.304  14.479  16.246  0.2007 -0.2177  0.1414
  978BOLB   C1C23465  14.372  14.831  16.800  0.1343 -0.1641 -0.0115
  978BOLB   C2C23466  14.318  14.921  17.268  0.1199  0.1641 -0.0357
  978BOLB   C3C23467  14.228  14.913  17.689  0.2398  0.3026  0.0204
  978BOLB   C4C23468  14.068  14.898  18.130  0.0927 -0.1789 -0.2790
  978BOLB   C1D23469  14.509  14.127  16.447  0.1523 -0.2846 -0.2052
  978BOLB   C2D23470  14.651  14.193  16.872  0.2074  0.1546 -0.2314
  978BOLB   C3D23471  15.154  14.109  17.103  0.0292  0.1306  0.4307
  978BOLB   C4D23472  15.532  14.289  17.121 -0.0656  0.0656 -0.0447
  979BOLB   NC123473  22.193  13.164  23.660  0.2820 -0.1009 -0.2220
  979BOLB   PO123474  22.422  13.039  23.394 -0.2939 -0.2709 -0.0215
  979BOLB   GL123475  22.694  13.210  23.473  0.4079 -0.0927 -0.0823
  979BOLB   GL223476  22.941  13.075  23.380  0.0620  0.1467 -0.1225
  979BOLB   C1A23477  22.811  13.561  23.667 -0.0661  0.1003 -0.1171
  979BOLB   C2A23478  22.946  13.936  23.599  0.1132 -0.1061 -0.0174
  979BOLB   C3A23479  23.245  14.199  23.620 -0.0380 -0.3486  0.4399
  979BOLB   C4A23480  23.546  14.474  23.642 -0.3323 -0.2785  0.0736
  979BOLB   C1B23481  23.339  13.133  23.205  0.1209 -0.2407 -0.1505
  979BOLB   C2B23482  23.760  12.964  23.063  0.1403 -0.0989 -0.2284
  979BOLB   C3B23483  23.920  12.829  22.680  0.0536  0.4020 -0.1671
  979BOLB   C4B23484  23.977  12.920  22.253 -0.0622 -0.2548 -0.0746
  979BOLB   NC223485  25.369  16.154  22.832  0.0210 -0.1839 -0.2652
  979BOLB   PO223486  25.058  15.947  23.104  0.0109 -0.1359  0.0124
  979BOLB   GL323487  24.799  15.618  23.433  0.2980  0.2069 -0.1655
  979BOLB   GL423488  24.857  15.311  23.316 -0.0551  0.2612 -0.1980
  979BOLB   C1C23489  24.672  15.345  23.845 -0.0963  0.1896 -0.0988
  979BOLB   C2C23490  24.316  15.053  23.835 -0.1318 -0.0225  0.1049
  979BOLB   C3C23491  24.182  14.821  23.466  0.1433 -0.0634 -0.1175
  979BOLB   C4C23492  23.884  14.612  23.390  0.0088  0.3906  0.0503
  979BOLB   C1D23493  24.842  14.913  23.541 -0.0725  0.0865  0.1638
  979BOLB   C2D23494  24.588  14.550  23.425 -0.1658  0.0372 -0.2337
  979BOLB   C3D23495  24.260  14.247  23.487  0.3491  0.3327 -0.2778
  979BOLB   C4D23496  24.148  14.049  23.717  0.1514  0.2979  0.1686
  980BOLB   NC123497  19.588   7.346  37.684 -0.0898  0.2548  0.1809
  980BOLB   PO123498  19.603   7.100  37.263  0.1821  0.0773  0.0051
  980BOLB   GL123499  19.866   6.954  37.637  0.1495  0.0833 -0.1723
  980BOLB   GL223500  20.073   7.116  37.892  0.1662 -0.4103 -0.1079
  980BOLB   C1A23501  20.010   6.574  37.878 -0.0387  0.2865 -0.1268
  980BOLB   C2A23502  20.288   6.397  38.123  0.4121  0.1267  0.1029
  980BOLB   C3A23503  20.525   6.178  38.424  0.1212 -0.1598  0.0432
  980BOLB   C4A23504  20.544   6.133  38.854  0.3480 -0.1690  0.2048
  980BOLB   C1B23505  20.096   6.896  38.275  0.0306 -0.2265  0.4495
  980BOLB   C2B23506  20.339   6.682  38.526  0.1970 -0.1951 -0.0246
  980BOLB   C3B23507  20.696   6.720  38.697  0.1223  0.1453 -0.1094
  980BOLB   C4B23508  20.959   6.775  38.978 -0.0699  0.2249  0.1683
  980BOLB   NC223509  21.725   3.890  38.409  0.1194  0.1058  0.0999
  980BOLB   PO223510  21.672   4.227  38.724 -0.0286  0.0110  0.1716
  980BOLB   GL323511  21.391   4.578  38.660 -0.0529  0.0577  0.1960
  980BOLB   GL423512  21.097   4.325  38.696  0.0059 -0.1427 -0.0275
  980BOLB   C1C23513  21.354   4.810  38.996  0.2655 -0.1677 -0.0750
  980BOLB   C2C23514  21.125   5.046  39.303  0.1520 -0.0537 -0.0093
  980BOLB   C3C23515  20.832   5.437  39.286 -0.0514  0.1138 -0.2257
  980BOLB   C4C23516  20.658   5.803  39.114  0.0451 -0.0470 -0.0874
  980BOLB   C1D23517  20.838   4.499  38.351  0.0490  0.0821 -0.1442
  980BOLB   C2D23518  20.496   4.886  38.206 -0.1613  0.0385 -0.0250
  980BOLB   C3D23519  20.467   5.304  38.280 -0.0692 -0.1422 -0.2758
  980BOLB   C4D23520  20.587   5.676  38.197 -0.0390 -0.3249 -0.1295
  981BOLB   NC123521  23.075  10.384  16.752  0.0129 -0.1841 -0.0199
  981BOLB   PO123522  22.900  10.084  17.057 -0.3118  0.1313 -0.0383
  981BOLB   GL123523  22.809  10.177  17.499 -0.3798  0.1835 -0.3009
  981BOLB   GL223524  23.113  10.196  17.699 -0.0010  0.1024  0.1076
  981BOLB   C1A23525  22.353   9.948  17.508  0.0326 -0.0953 -0.2723
  981BOLB   C2A23526  21.991   9.827  17.776  0.2641  0.0557 -0.0117
  981BOLB   C3A23527  21.662   9.593  18.036 -0.2122 -0.1915  0.0529
  981BOLB   C4A23528  21.174   9.679  17.891  0.1305 -0.0824 -0.1195
  981BOLB   C1B23529  22.742  10.324  18.005  0.1818  0.1234  0.2737
  981BOLB   C2B23530  22.283  10.245  17.877 -0.2207 -0.0879 -0.0940
  981BOLB   C3B23531  21.889  10.186  18.072  0.2066 -0.2032  0.2132
  981BOLB   C4B23532  21.545  10.023  18.284  0.2065 -0.2228 -0.1097
  981BOLB   NC223533  20.316   7.868  16.411 -0.1866  0.0310  0.2309
  981BOLB   PO223534  20.678   8.245  16.479  0.0521  0.0628  0.4966
  981BOLB   GL323535  20.560   8.586  16.816  0.0380  0.1739 -0.3655
  981BOLB   GL423536  20.917   8.760  16.781  0.0599 -0.1474  0.0102
  981BOLB   C1C23537  20.373   8.875  17.034  0.0535  0.0271  0.1819
  981BOLB   C2C23538  20.452   9.275  17.132  0.2351 -0.0180  0.2346
  981BOLB   C3C23539  20.719   9.586  17.180  0.1906  0.0048 -0.0244
  981BOLB   C4C23540  20.874   9.716  17.565  0.0359  0.4699  0.0520
  981BOLB   C1D23541  20.796   9.299  16.752  0.3194  0.2104  0.2343
  981BOLB   C2D23542  20.819   9.688  16.606 -0.0749  0.0636  0.1221
  981BOLB   C3D23543  20.655  10.080  16.408  0.2647 -0.1942 -0.1934
  981BOLB   C4D23544  20.540  10.392  16.104  0.1449 -0.2513 -0.4650
  982BOLB   NC123545   7.713  23.173  31.814 -0.2558 -0.3004 -0.0758
  982BOLB   PO123546   7.396  23.170  32.224 -0.0785 -0.0286  0.0427
  982BOLB   GL123547   7.508  22.759  32.086 -0.3915  0.0979  0.1162
  982BOLB   GL223548   7.791  22.649  32.003 -0.3153  0.1085  0.0336
  982BOLB   C1A23549   7.311  22.446  31.780  0.1615  0.1842 -0.1409
  982BOLB   C2A23550   7.395  22.265  31.358  0.2611 -0.1432 -0.0009
  982BOLB   C3A23551   7.696  21.885  31.392  0.1262 -0.3786  0.0367
  982BOLB   C4A23552   7.769  21.506  31.328  0.0952  0.1096 -0.1728
  982BOLB   C1B23553   8.187  22.726  32.109 -0.1786 -0.0273 -0.0737
  982BOLB   C2B23554   8.432  23.044  32.227  0.1916 -0.0195  0.2941
  982BOLB   C3B23555   8.890  22.965  32.105  0.0122  0.2587  0.0861
  982BOLB   C4B23556   9.243  23.128  32.024 -0.1949 -0.0861 -0.0171
  982BOLB   NC223557   6.052  21.648  31.929  0.2087  0.4736  0.0895
  982BOLB   PO223558   6.325  21.827  32.174 -0.2597 -0.3179  0.0275
  982BOLB   GL323559   6.510  21.474  32.043 -0.1361  0.1224  0.0964
  982BOLB   GL423560   6.440  21.291  31.706  0.0872  0.0708  0.1014
  982BOLB   C1C23561   6.920  21.252  32.205 -0.0195  0.1823  0.0080
  982BOLB   C2C23562   7.347  21.101  32.125  0.0209 -0.1763  0.2213
  982BOLB   C3C23563   7.737  21.142  31.895 -0.2324  0.1882 -0.0864
  982BOLB   C4C23564   7.945  21.214  31.613  0.3707  0.1061  0.0459
  982BOLB   C1D23565   6.693  20.986  31.880 -0.3204  0.2052  0.1028
  982BOLB   C2D23566   6.737  20.728  32.261 -0.2667 -0.0184 -0.0838
  982BOLB   C3D23567   7.020  20.592  32.439  0.4108  0.0365  0.1525
  982BOLB   C4D23568   7.246  20.269  32.494  0.1112 -0.0646 -0.4616
  983BOLB   NC123569  13.605  20.694  25.033 -0.2511  0.0787 -0.0903
  983BOLB   PO123570  13.499  20.522  24.614  0.1805 -0.0507 -0.0679
  983BOLB   GL123571  13.187  20.810  24.578 -0.0308  0.2333 -0.1148
  983BOLB   GL223572  12.907  20.798  24.274  0.0316 -0.2980 -0.0771
  983BOLB   C1A23573  13.150  21.203  24.736  0.4290  0.1192 -0.2202
  983BOLB   C2A23574  13.246  21.676  24.652 -0.1133 -0.0371 -0.2763
  983BOLB   C3A23575  13.307  22.081  24.555 -0.0797  0.1845 -0.0231
  983BOLB   C4A23576  13.158  22.349  24.337  0.1933 -0.1112  0.0503
  983BOLB   C1B23577  12.439  20.839  24.114  0.2872 -0.0439  0.0377
  983BOLB   C2B23578  12.138  21.206  23.988 -0.2723 -0.3359 -0.0753
  983BOLB   C3B23579  11.828  21.286  23.711  0.0229  0.4152  0.1856
  983BOLB   C4B23580  11.701  21.419  23.271  0.0307  0.0087 -0.0373
  983BOLB   NC223581  12.381  24.702  23.807 -0.2005  0.1333  0.2625
  983BOLB   PO223582  12.007  24.379  23.607 -0.1705 -0.0884 -0.0939
  983BOLB   GL323583  12.281  24.139  23.746  0.0220  0.0264  0.0655
  983BOLB   GL423584  12.425  24.121  24.057  0.2654  0.2160  0.1138
  983BOLB   C1C23585  12.321  23.693  23.835 -0.1952  0.2442 -0.0673
  983BOLB   C2C23586  12.663  23.419  23.752  0.1379 -0.2475  0.1164
  983BOLB   C3C23587  12.904  23.081  23.892 -0.0179 -0.1651 -0.2847
  983BOLB   C4C23588  12.921  22.731  24.117  0.1273  0.0598 -0.1450
  983BOLB   C1D23589  12.425  23.928  24.402 -0.0971  0.0407  0.0667
  983BOLB   C2D23590  12.132  23.619  24.429  0.0318 -0.1097 -0.1129
  983BOLB   C3D23591  12.088  23.307  24.520 -0.0654  0.0795  0.2469
  983BOLB   C4D23592  12.117  22.884  24.474 -0.2074  0.0039 -0.2157
  984BOLB   NC123593  21.370  16.541  16.847 -0.0716 -0.2651  0.1659
  984BOLB   PO123594  20.960  16.638  17.088  0.2269 -0.0301 -0.1408
  984BOLB   GL123595  21.159  16.347  17.484 -0.0718 -0.2243 -0.2424
  984BOLB   GL223596  21.512  16.344  17.622 -0.1368  0.0848 -0.2546
  984BOLB   C1A23597  21.026  16.280  17.913 -0.0511 -0.1371 -0.3376
  984BOLB   C2A23598  20.902  15.960  18.138  0.2551  0.2385 -0.3435
  984BOLB   C3A23599  20.742  15.612  18.280  0.0336  0.0585  0.1139
  984BOLB   C4A23600  20.355  15.395  18.076 -0.0604 -0.1695 -0.1576
  984BOLB   C1B23601  21.206  15.882  17.639 -0.2090 -0.0858 -0.2595
  984BOLB   C2B23602  20.975  15.506  17.488  0.2200 -0.1151 -0.0687
  984BOLB   C3B23603  20.953  15.285  17.903  0.2825  0.1414  0.3296
  984BOLB   C4B23604  20.763  15.098  18.113  0.0374  0.1339  0.1348
  984BOLB   NC223605  21.047  15.304  15.997  0.2247 -0.1418  0.3446
  984BOLB   PO223606  20.778  15.022  15.821  0.1426 -0.1684  0.2900
  984BOLB   GL323607  20.811  14.883  16.232  0.0390  0.2521  0.1681
  984BOLB   GL423608  21.202  14.787  16.307 -0.3284 -0.0495 -0.1291
  984BOLB   C1C23609  20.755  15.025  16.612  0.3572 -0.2399  0.0180
  984BOLB   C2C23610  20.531  14.803  16.972 -0.3009 -0.3724  0.1427
  984BOLB   C3C23611  20.643  14.879  17.426 -0.0422  0.3535 -0.1221
  984BOLB   C4C23612  20.460  15.127  17.685 -0.0726 -0.2408 -0.2511
  984BOLB   C1D23613  21.151  14.627  16.704  0.2323 -0.2156 -0.1488
  984BOLB   C2D23614  21.070  14.597  17.190  0.0915  0.2672 -0.2569
  984BOLB   C3D23615  20.946  14.481  17.592 -0.0014  0.0408 -0.1387
  984BOLB   C4D23616  20.581  14.349  17.727 -0.0584  0.0482  0.0627
  985BOLB   NC123617  16.310  12.337  18.873 -0.1283 -0.0417  0.1554
  985BOLB   PO123618  15.953  12.667  18.789 -0.1858  0.0429 -0.3648
  985BOLB   GL123619  15.875  12.552  18.293 -0.0118 -0.3695  0.0313
  985BOLB   GL223620  16.208  12.482  18.304 -0.0556 -0.1635 -0.1843
  985BOLB   C1A23621  15.680  12.298  18.009  0.0412  0.3102 -0.1438
  985BOLB   C2A23622  15.465  12.340  17.661  0.0976 -0.0043 -0.1464
  985BOLB   C3A23623  15.049  12.377  17.606  0.0282  0.1765 -0.0502
  985BOLB   C4A23624  14.620  12.291  17.793  0.1921 -0.0329 -0.2125
  985BOLB   C1B23625  16.165  12.165  18.010 -0.0163  0.0215 -0.0627
  985BOLB   C2B23626  16.058  12.054  17.600  0.0206  0.1304 -0.2113
  985BOLB   C3B23627  15.739  12.134  17.289 -0.0534 -0.0658 -0.0276
  985BOLB   C4B23628  15.680  12.214  16.828  0.2415 -0.5995 -0.3976
  985BOLB   NC223629  14.724  11.719  19.875 -0.0566  0.2964 -0.1382
  985BOLB   PO223630  14.415  12.058  19.815  0.0536 -0.1304  0.1184
  985BOLB   GL323631  14.291  11.774  19.514 -0.0249 -0.2695 -0.4123
  985BOLB   GL423632  14.532  11.539  19.425 -0.2547 -0.2041 -0.1975
  985BOLB   C1C23633  13.987  11.826  19.101 -0.1099  0.1403 -0.0241
  985BOLB   C2C23634  13.991  11.762  18.766  0.1223 -0.1274 -0.0039
  985BOLB   C3C23635  14.146  11.997  18.342 -0.0232  0.1545 -0.2845
  985BOLB   C4C23636  14.404  11.978  17.947  0.1102  0.5464  0.2185
  985BOLB   C1D23637  14.327  11.438  18.979 -0.0897  0.1679 -0.1166
  985BOLB   C2D23638  14.075  11.263  18.720 -0.1153  0.3067 -0.0523
  985BOLB   C3D23639  13.924  11.257  18.349 -0.2338  0.1407  0.1336
  985BOLB   C4D23640  13.805  11.201  17.965  0.0157 -0.2361 -0.3255
  986BOLB   NC123641   8.068  18.042  32.827 -0.1251 -0.0489  0.3033
  986BOLB   PO123642   7.817  17.698  33.017 -0.0049 -0.1239 -0.3286
  986BOLB   GL123643   7.383  17.477  32.978 -0.1028  0.0722  0.0129
  986BOLB   GL223644   7.395  17.330  32.730 -0.2274  0.0095 -0.2297
  986BOLB   C1A23645   6.969  17.688  33.032 -0.2180 -0.1244 -0.1354
  986BOLB   C2A23646   6.859  18.078  33.266 -0.3347 -0.2550 -0.0830
  986BOLB   C3A23647   7.115  18.546  33.417 -0.1313  0.1323 -0.0545
  986BOLB   C4A23648   7.159  18.886  33.736 -0.0828 -0.0302 -0.0130
  986BOLB   C1B23649   7.050  17.553  32.533  0.0008 -0.1716  0.1017
  986BOLB   C2B23650   6.712  17.738  32.422  0.2478 -0.1841 -0.1652
  986BOLB   C3B23651   6.367  18.016  32.568 -0.2084  0.1515  0.2400
  986BOLB   C4B23652   6.460  18.480  32.566  0.0313 -0.2296 -0.0011
  986BOLB   NC223653   5.415  20.137  35.445  0.0878 -0.0942  0.1628
  986BOLB   PO223654   5.655  20.442  35.105 -0.3081 -0.1079 -0.0308
  986BOLB   GL323655   6.068  20.202  34.977 -0.3048  0.0797  0.3460
  986BOLB   GL423656   6.249  19.919  35.085 -0.0899 -0.0072  0.2130
  986BOLB   C1C23657   6.099  20.023  34.583 -0.2028 -0.1327 -0.0888
  986BOLB   C2C23658   6.498  19.898  34.347  0.0056  0.0764  0.0649
  986BOLB   C3C23659   6.738  19.544  34.131  0.1151  0.1920 -0.3300
  986BOLB   C4C23660   6.946  19.312  33.883  0.0121  0.0873 -0.1621
  986BOLB   C1D23661   6.576  19.710  34.872  0.1055  0.0561 -0.3367
  986BOLB   C2D23662   6.862  19.483  34.608 -0.0667 -0.0854 -0.1947
  986BOLB   C3D23663   7.168  19.259  34.369  0.0929 -0.2523  0.2161
  986BOLB   C4D23664   7.199  18.892  34.306  0.2510  0.1324 -0.2753
  987BOLB   NC123665  16.222  19.427  22.591  0.0651 -0.3541  0.3150
  987BOLB   PO123666  15.864  19.553  22.372 -0.0866 -0.2181  0.0935
  987BOLB   GL123667  15.993  19.897  22.189  0.0761  0.2169  0.1059
  987BOLB   GL223668  15.990  19.688  21.877  0.1257 -0.1893  0.0147
  987BOLB   C1A23669  15.882  20.344  21.925  0.3033  0.1716 -0.1790
  987BOLB   C2A23670  16.138  20.695  21.718  0.0448  0.2511  0.1613
  987BOLB   C3A23671  16.518  20.944  21.718 -0.0466  0.1047  0.1840
  987BOLB   C4A23672  16.898  21.122  21.910 -0.2089 -0.1853  0.0551
  987BOLB   C1B23673  15.945  19.660  21.440  0.0076  0.0705  0.0623
  987BOLB   C2B23674  15.884  19.818  21.063  0.3731 -0.0805  0.2847
  987BOLB   C3B23675  15.980  20.227  20.780 -0.0417  0.4187 -0.3156
  987BOLB   C4B23676  16.245  20.593  20.790 -0.1478 -0.3634 -0.3595
  987BOLB   NC223677  18.403  22.589  20.890 -0.0488  0.0522 -0.0166
  987BOLB   PO223678  18.295  22.330  20.518  0.1950  0.1738 -0.5772
  987BOLB   GL323679  18.228  21.984  20.707  0.1561 -0.3781 -0.1144
  987BOLB   GL423680  18.160  21.742  20.499  0.1061 -0.3119 -0.0733
  987BOLB   C1C23681  18.039  21.958  21.106  0.0723  0.0465 -0.0902
  987BOLB   C2C23682  17.667  21.911  21.262 -0.0508  0.1159  0.0055
  987BOLB   C3C23683  17.350  21.759  21.543  0.1279  0.1901  0.0596
  987BOLB   C4C23684  17.013  21.602  21.801  0.0031 -0.2591  0.1641
  987BOLB   C1D23685  18.405  21.382  20.460  0.1796 -0.2389  0.2299
  987BOLB   C2D23686  18.402  20.996  20.406  0.2428 -0.1055 -0.3923
  987BOLB   C3D23687  18.283  20.614  20.645  0.3302  0.1286 -0.0245
  987BOLB   C4D23688  17.897  20.305  20.832 -0.0457 -0.0030  0.4096
  988BOLB   NC123689  13.167  24.261  35.796 -0.0427  0.1223  0.0026
  988BOLB   PO123690  13.323  24.309  35.373  0.0217  0.0257  0.0566
  988BOLB   GL123691  13.450  23.989  35.117  0.2224  0.0192  0.1220
  988BOLB   GL223692  13.151  23.998  34.999  0.0280 -0.0080  0.0001
  988BOLB   C1A23693  13.932  24.068  34.895 -0.1440 -0.0977 -0.2093
  988BOLB   C2A23694  14.189  24.098  34.459 -0.1875 -0.0239 -0.0628
  988BOLB   C3A23695  14.302  23.944  33.999  0.0522 -0.2031 -0.1991
  988BOLB   C4A23696  14.327  23.693  33.676  0.1367  0.1289 -0.0881
  988BOLB   C1B23697  12.781  23.862  34.784  0.3800  0.5027  0.3252
  988BOLB   C2B23698  12.888  23.553  34.510  0.1401 -0.1177  0.0581
  988BOLB   C3B23699  13.206  23.245  34.366 -0.2006 -0.0773  0.3372
  988BOLB   C4B23700  13.245  22.813  34.265 -0.2583 -0.5534 -0.1205
  988BOLB   NC223701  12.948  25.180  32.697 -0.2929 -0.3454 -0.1649
  988BOLB   PO223702  13.047  25.064  32.304 -0.0096 -0.1881 -0.0885
  988BOLB   GL323703  13.193  24.687  32.417 -0.0787 -0.0473 -0.3128
  988BOLB   GL423704  13.003  24.474  32.296 -0.0611 -0.2138  0.3634
  988BOLB   C1C23705  13.475  24.531  32.718  0.0386 -0.0666 -0.0724
  988BOLB   C2C23706  13.769  24.259  32.907 -0.0327  0.0429 -0.1298
  988BOLB   C3C23707  14.072  23.965  32.879  0.0190 -0.1341 -0.1165
  988BOLB   C4C23708  14.202  23.685  33.207  0.0480 -0.0645 -0.2198
  988BOLB   C1D23709  13.204  24.165  32.489  0.3863  0.1897  0.0956
  988BOLB   C2D23710  13.582  23.966  32.483  0.1222  0.1321 -0.0706
  988BOLB   C3D23711  13.896  23.798  32.293  0.0904 -0.1007  0.0437
  988BOLB   C4D23712  14.208  23.490  32.300 -0.0369 -0.0252  0.0364
  989BOLB   NC123713  14.791   7.998  38.057 -0.1715  0.0484 -0.1224
  989BOLB   PO123714  15.145   7.808  38.198 -0.0763 -0.0610 -0.0279
  989BOLB   GL123715  14.895   7.485  38.269 -0.2795  0.0816  0.0250
  989BOLB   GL223716  15.038   7.186  38.182  0.0126 -0.0746 -0.2256
  989BOLB   C1A23717  14.512   7.186  38.452 -0.1341  0.2050 -0.2617
  989BOLB   C2A23718  14.343   6.886  38.779  0.0160 -0.0935 -0.1859
  989BOLB   C3A23719  14.169   6.718  39.174 -0.1451  0.0733  0.2100
  989BOLB   C4A23720  13.875   6.728  39.591 -0.2964 -0.2733  0.0493
  989BOLB   C1B23721  14.937   6.981  38.520  0.1270 -0.0649 -0.2921
  989BOLB   C2B23722  14.781   6.666  38.704  0.2387 -0.1486  0.2025
  989BOLB   C3B23723  14.503   6.462  38.950 -0.3870 -0.3124 -0.0170
  989BOLB   C4B23724  14.606   6.162  39.278 -0.0302 -0.0691  0.0015
  989BOLB   NC223725  13.925   5.696  42.211 -0.3149  0.3492 -0.2694
  989BOLB   PO223726  13.857   5.856  41.770 -0.3158  0.1327  0.0274
  989BOLB   GL323727  14.126   6.112  41.567  0.0545  0.0197 -0.2228
  989BOLB   GL423728  14.370   6.288  41.771  0.1058 -0.0792 -0.1694
  989BOLB   C1C23729  14.204   6.501  41.360  0.3557  0.1804  0.0951
  989BOLB   C2C23730  13.982   6.665  40.863  0.0768  0.0267  0.1604
  989BOLB   C3C23731  13.905   6.805  40.434  0.0401 -0.4801 -0.0366
  989BOLB   C4C23732  13.813   6.820  39.949  0.1970  0.0296 -0.2668
  989BOLB   C1D23733  14.386   6.704  41.759 -0.2615 -0.0217 -0.3663
  989BOLB   C2D23734  14.498   7.127  41.592 -0.5710  0.1786  0.1974
  989BOLB   C3D23735  14.770   7.218  41.304 -0.1050  0.4343  0.0929
  989BOLB   C4D23736  14.901   7.299  40.886  0.2520 -0.0679  0.0341
  990BOLB   NC123737  17.239  18.334  36.643  0.1803  0.1300  0.1547
  990BOLB   PO123738  17.190  18.585  36.933  0.2527 -0.0814  0.2136
  990BOLB   GL123739  17.339  18.894  37.294 -0.0309 -0.1328 -0.1621
  990BOLB   GL223740  17.311  18.746  37.651  0.0300 -0.0671 -0.2009
  990BOLB   C1A23741  17.121  19.342  37.293 -0.0612 -0.3126 -0.0832
  990BOLB   C2A23742  17.040  19.828  37.251  0.0678  0.1174 -0.3022
  990BOLB   C3A23743  17.028  20.295  37.197  0.5858 -0.3248 -0.1479
  990BOLB   C4A23744  17.251  20.586  37.102 -0.1743  0.2975 -0.2793
  990BOLB   C1B23745  17.147  19.114  37.764  0.0251 -0.1363  0.0600
  990BOLB   C2B23746  17.361  19.592  37.684 -0.3592  0.1608 -0.1175
  990BOLB   C3B23747  17.850  19.635  37.862 -0.1257  0.0926  0.1356
  990BOLB   C4B23748  18.097  19.973  37.805 -0.2752  0.1445  0.0139
  990BOLB   NC223749  18.178  22.826  37.271 -0.2947  0.2032 -0.0160
  990BOLB   PO223750  17.686  22.900  37.285 -0.0606  0.0120  0.0046
  990BOLB   GL323751  17.761  22.470  37.117 -0.1420  0.2997 -0.0858
  990BOLB   GL423752  17.785  22.305  36.768  0.0631  0.1186 -0.0846
  990BOLB   C1C23753  17.797  22.065  37.220 -0.1604  0.3722  0.2187
  990BOLB   C2C23754  17.758  21.703  37.225 -0.0490 -0.1765 -0.0856
  990BOLB   C3C23755  17.687  21.253  37.129 -0.0333 -0.0488 -0.0646
  990BOLB   C4C23756  17.532  20.917  37.022 -0.1217  0.0273 -0.3708
  990BOLB   C1D23757  17.523  22.016  36.801  0.2590 -0.2733 -0.0882
  990BOLB   C2D23758  17.325  21.504  36.941 -0.1446 -0.2899  0.3995
  990BOLB   C3D23759  17.225  21.144  36.672 -0.0873  0.1113  0.0171
  990BOLB   C4D23760  17.050  20.823  36.702 -0.0117  0.1355  0.0779
  991BOLB   NC123761  19.616  17.385  36.091  0.0094 -0.1209  0.0902
  991BOLB   PO123762  19.665  17.725  35.816  0.1395  0.2233 -0.1177
  991BOLB   GL123763  19.569  18.059  36.163 -0.0799 -0.2590  0.3545
  991BOLB   GL223764  19.679  18.353  36.046 -0.0757  0.2546  0.2727
  991BOLB   C1A23765  19.691  18.199  36.518 -0.1651 -0.0143  0.1839
  991BOLB   C2A23766  20.079  18.318  36.722 -0.2947  0.2309 -0.0275
  991BOLB   C3A23767  20.380  18.422  37.010  0.1360 -0.3110 -0.3785
  991BOLB   C4A23768  20.766  18.723  37.007 -0.3475  0.1800 -0.0480
  991BOLB   C1B23769  20.000  18.348  36.190 -0.0194  0.3569  0.2383
  991BOLB   C2B23770  20.436  18.213  36.417  0.0648  0.2012 -0.1219
  991BOLB   C3B23771  20.745  18.494  36.589 -0.5094 -0.1500  0.0459
  991BOLB   C4B23772  20.994  18.922  36.552  0.1624 -0.0524 -0.2144
  991BOLB   NC223773  21.723  20.589  37.659 -0.0993  0.2114 -0.1145
  991BOLB   PO223774  21.745  20.533  38.131  0.1527 -0.0678  0.0645
  991BOLB   GL323775  21.733  20.150  37.924  0.2206  0.1245  0.2703
  991BOLB   GL423776  21.819  19.960  37.553  0.0038  0.0359 -0.0665
  991BOLB   C1C23777  21.379  19.914  37.832  0.0302  0.0115  0.0493
  991BOLB   C2C23778  21.199  19.577  37.745 -0.0376 -0.1131  0.2553
  991BOLB   C3C23779  21.139  19.423  37.387  0.0530  0.0212  0.1140
  991BOLB   C4C23780  20.813  19.080  37.314  0.0431  0.2763 -0.3348
  991BOLB   C1D23781  21.562  19.708  37.265  0.0592 -0.0468 -0.0503
  991BOLB   C2D23782  21.538  19.580  36.869  0.3368  0.2364  0.0142
  991BOLB   C3D23783  21.217  19.405  36.566  0.0979 -0.1176 -0.0298
  991BOLB   C4D23784  21.046  19.244  36.170  0.1640 -0.1820 -0.2117
  992BOLB   NC123785  22.511  10.453  16.178  0.0446 -0.1247 -0.0201
  992BOLB   PO123786  22.708  10.699  16.547  0.2866 -0.2313 -0.0594
  992BOLB   GL123787  22.492  10.753  16.827  0.1412 -0.2509 -0.3308
  992BOLB   GL223788  22.596  10.485  17.032 -0.2710  0.0050  0.1502
  992BOLB   C1A23789  22.694  10.913  17.168 -0.2718 -0.1343 -0.0909
  992BOLB   C2A23790  22.675  11.190  17.565  0.3135  0.3060  0.2588
  992BOLB   C3A23791  22.365  11.298  17.821  0.1820 -0.2437 -0.1011
  992BOLB   C4A23792  22.225  11.545  18.181  0.1645  0.0501 -0.1070
  992BOLB   C1B23793  22.350  10.597  17.459 -0.0350  0.3367 -0.1764
  992BOLB   C2B23794  22.491  10.730  17.873  0.0580 -0.0322  0.0330
  992BOLB   C3B23795  22.401  10.588  18.369 -0.0857  0.1441  0.2066
  992BOLB   C4B23796  22.126  10.256  18.518  0.0498  0.0900  0.0875
  992BOLB   NC223797  24.242  12.630  16.912 -0.3659  0.2348 -0.0609
  992BOLB   PO223798  24.146  12.589  17.384 -0.3226  0.1572 -0.0092
  992BOLB   GL323799  23.665  12.759  17.601 -0.1021  0.0685 -0.1616
  992BOLB   GL423800  23.879  12.932  17.692  0.0775  0.0299 -0.1248
  992BOLB   C1C23801  23.242  12.757  17.813 -0.0517 -0.1140 -0.1468
  992BOLB   C2C23802  22.788  12.628  18.001 -0.2679 -0.0242 -0.1415
  992BOLB   C3C23803  22.333  12.295  18.078  0.0003  0.4339 -0.3011
  992BOLB   C4C23804  22.084  11.927  18.171 -0.1044  0.1569 -0.0319
  992BOLB   C1D23805  23.829  12.837  18.129 -0.2904  0.3601 -0.0752
  992BOLB   C2D23806  23.771  12.625  18.507 -0.3607 -0.0148 -0.1096
  992BOLB   C3D23807  23.568  12.482  18.900  0.0684 -0.0927  0.1535
  992BOLB   C4D23808  23.717  12.236  19.290  0.1412  0.1563  0.3466
  993BOLB   NC123809   6.011  13.804  21.685 -0.1928 -0.5734 -0.1314
  993BOLB   PO123810   6.042  14.104  21.993  0.4223  0.1255  0.0063
  993BOLB   GL123811   6.401  13.788  22.130  0.1451  0.0049 -0.0520
  993BOLB   GL223812   6.763  14.011  22.101  0.0187 -0.1748  0.0036
  993BOLB   C1A23813   6.561  13.771  22.513 -0.0675  0.2462 -0.0867
  993BOLB   C2A23814   6.890  13.489  22.804 -0.2694  0.1408  0.0096
  993BOLB   C3A23815   7.353  13.580  22.782 -0.0606  0.2627  0.3102
  993BOLB   C4A23816   7.805  13.680  22.678  0.1859  0.0819  0.2149
  993BOLB   C1B23817   7.056  13.802  22.374  0.0751  0.0939 -0.0158
  993BOLB   C2B23818   7.128  13.319  22.431 -0.1761 -0.1445 -0.1310
  993BOLB   C3B23819   7.420  13.009  22.567 -0.1176  0.1181 -0.1249
  993BOLB   C4B23820   7.574  12.777  22.759  0.1965  0.0955  0.0511
  993BOLB   NC223821   9.914  13.608  23.883 -0.0448 -0.1393  0.2530
  993BOLB   PO223822  10.072  13.251  23.594 -0.0135  0.1220  0.0392
  993BOLB   GL323823   9.562  13.318  23.621  0.2477  0.1357 -0.1903
  993BOLB   GL423824   9.373  13.052  23.624  0.1716  0.1399 -0.0873
  993BOLB   C1C23825   9.280  13.529  23.331 -0.0185  0.1677 -0.0527
  993BOLB   C2C23826   8.866  13.491  23.123  0.0632 -0.0276  0.2175
  993BOLB   C3C23827   8.508  13.386  23.032  0.1209 -0.3530  0.2794
  993BOLB   C4C23828   8.195  13.341  22.731  0.2539  0.0709 -0.0875
  993BOLB   C1D23829   9.153  13.006  23.175 -0.1332 -0.0189 -0.0828
  993BOLB   C2D23830   8.848  13.089  22.790  0.3054  0.0245  0.3058
  993BOLB   C3D23831   8.642  13.202  22.355  0.0419 -0.0519  0.0378
  993BOLB   C4D23832   8.254  13.107  22.207 -0.0512  0.0723  0.1098
  994BOLB   NC123833  12.913  16.651  21.605 -0.1524  0.1163 -0.0365
  994BOLB   PO123834  13.225  16.746  21.379  0.1475 -0.1088 -0.3663
  994BOLB   GL123835  13.016  16.723  20.957  0.2682 -0.1828 -0.2387
  994BOLB   GL223836  12.809  16.532  21.088 -0.1567  0.3028 -0.3076
  994BOLB   C1A23837  12.997  16.770  20.500  0.3262 -0.1156 -0.0916
  994BOLB   C2A23838  13.045  16.908  20.023  0.1072  0.1138  0.0759
  994BOLB   C3A23839  13.087  16.888  19.506 -0.1611  0.1162 -0.2234
  994BOLB   C4A23840  12.987  16.715  19.141 -0.2508  0.1005 -0.1398
  994BOLB   C1B23841  12.498  16.663  20.778 -0.1482  0.3981 -0.1448
  994BOLB   C2B23842  12.195  16.656  20.445 -0.1813 -0.0566  0.1722
  994BOLB   C3B23843  11.814  16.656  20.100  0.0078  0.2418 -0.3118
  994BOLB   C4B23844  11.435  16.654  19.909 -0.3014  0.1427  0.3602
  994BOLB   NC223845  11.769  18.521  17.087  0.1662  0.0278 -0.2154
  994BOLB   PO223846  11.897  18.112  17.274 -0.1369  0.3120 -0.0199
  994BOLB   GL323847  12.017  17.812  17.612  0.0502  0.0269  0.4997
  994BOLB   GL423848  12.143  17.982  17.886 -0.2351  0.2610 -0.0269
  994BOLB   C1C23849  12.232  17.491  17.961  0.1654  0.0798 -0.1719
  994BOLB   C2C23850  12.378  17.055  18.236  0.2457  0.1803 -0.1653
  994BOLB   C3C23851  12.702  16.708  18.366 -0.1907  0.3185  0.2213
  994BOLB   C4C23852  12.723  16.642  18.846 -0.0986  0.0792 -0.0112
  994BOLB   C1D23853  12.170  17.785  18.335 -0.1112 -0.1685  0.0980
  994BOLB   C2D23854  11.768  17.861  18.566  0.0921 -0.0138  0.0996
  994BOLB   C3D23855  11.599  17.675  18.878  0.1246  0.2960  0.1106
  994BOLB   C4D23856  11.203  17.388  19.102 -0.0799 -0.2293  0.2459
  995BOLB   NC123857   5.784   6.494  25.313 -0.1685  0.1752  0.0927
  995BOLB   PO123858   6.285   6.153  25.375  0.0723 -0.4255  0.2520
  995BOLB   GL123859   6.606   6.464  25.570  0.1457  0.1407 -0.4172
  995BOLB   GL223860   6.427   6.522  25.922 -0.1732 -0.3450  0.1422
  995BOLB   C1A23861   7.112   6.672  25.580 -0.0893  0.3330 -0.1319
  995BOLB   C2A23862   7.305   7.060  25.730  0.0587 -0.0443 -0.0019
  995BOLB   C3A23863   7.423   7.364  25.943  0.5399  0.0083 -0.4535
  995BOLB   C4A23864   7.656   7.581  26.212  0.2748 -0.7407 -0.1814
  995BOLB   C1B23865   6.576   6.717  26.299 -0.1078  0.1468 -0.0445
  995BOLB   C2B23866   6.793   6.779  26.596 -0.0554 -0.2006  0.1014
  995BOLB   C3B23867   7.156   6.769  26.796  0.0297 -0.3800 -0.0367
  995BOLB   C4B23868   7.422   6.708  27.154  0.0857 -0.0769 -0.0129
  995BOLB   NC223869   8.783   7.852  28.175  0.0658  0.2057 -0.0522
  995BOLB   PO223870   8.913   7.984  27.862  0.3156 -0.0530  0.1778
  995BOLB   GL323871   8.539   7.627  27.723 -0.1470  0.1004  0.2022
  995BOLB   GL423872   8.301   7.584  27.953  0.1242 -0.2060 -0.2165
  995BOLB   C1C23873   8.210   7.304  27.550  0.1219  0.1937  0.1285
  995BOLB   C2C23874   8.127   7.235  27.241  0.0040 -0.2526  0.1502
  995BOLB   C3C23875   8.192   7.273  26.878 -0.0210 -0.2928  0.2324
  995BOLB   C4C23876   8.019   7.570  26.522 -0.3661  0.1472  0.2764
  995BOLB   C1D23877   8.034   7.761  27.708 -0.0610 -0.1174 -0.3237
  995BOLB   C2D23878   7.645   7.558  27.666  0.2215  0.1606  0.2580
  995BOLB   C3D23879   7.214   7.574  27.716  0.1711  0.0667  0.3561
  995BOLB   C4D23880   6.855   7.745  27.837  0.0575 -0.2647  0.0361
  996BOLB   NC123881  11.428  11.193  22.187  0.1009  0.1883 -0.0607
  996BOLB   PO123882  11.087  11.470  22.145  0.3283 -0.1812 -0.1681
  996BOLB   GL123883  10.760  11.439  22.171 -0.0868 -0.0516 -0.1393
  996BOLB   GL223884  10.565  11.192  22.236  0.0329 -0.3782  0.1972
  996BOLB   C1A23885  10.287  11.465  21.906 -0.4920  0.2089  0.2961
  996BOLB   C2A23886   9.967  11.615  21.616 -0.1256 -0.0266  0.0291
  996BOLB   C3A23887  10.107  11.760  21.239  0.2535 -0.1656  0.0227
  996BOLB   C4A23888   9.941  12.067  20.858  0.0801 -0.0394  0.1915
  996BOLB   C1B23889  10.611  10.972  21.817 -0.1371  0.0410  0.2960
  996BOLB   C2B23890  10.529  10.725  21.474 -0.1166  0.2134  0.0324
  996BOLB   C3B23891  10.220  10.468  21.245  0.4264  0.2074  0.2127
  996BOLB   C4B23892  10.184  10.100  20.988 -0.2325  0.0440  0.1880
  996BOLB   NC223893   8.179  12.261  18.758 -0.1247 -0.5129 -0.4060
  996BOLB   PO223894   8.505  12.140  18.916 -0.2500 -0.0335 -0.0621
  996BOLB   GL323895   8.593  12.239  19.371  0.1874  0.1584  0.1780
  996BOLB   GL423896   8.380  12.191  19.730  0.1941  0.0638 -0.4098
  996BOLB   C1C23897   8.840  12.414  19.671  0.1481 -0.0581 -0.0858
  996BOLB   C2C23898   8.937  12.547  20.104  0.0506 -0.0509  0.3308
  996BOLB   C3C23899   9.268  12.408  20.497  0.0849  0.2816 -0.0999
  996BOLB   C4C23900   9.582  12.410  20.840 -0.1613  0.0156  0.1416
  996BOLB   C1D23901   8.544  12.066  20.133 -0.1403  0.1331 -0.2802
  996BOLB   C2D23902   8.868  12.052  20.422  0.0102  0.0161  0.2427
  996BOLB   C3D23903   9.156  12.036  20.753 -0.2986 -0.0923  0.1362
  996BOLB   C4D23904   9.491  11.855  20.865 -0.1438  0.0783  0.2072
  997BOLB   NC123905  22.319  21.182  37.474 -0.1313 -0.0190  0.1249
  997BOLB   PO123906  22.128  21.325  37.030 -0.0966  0.1893 -0.2853
  997BOLB   GL123907  21.766  21.127  36.720 -0.0190  0.2775 -0.2575
  997BOLB   GL223908  21.723  21.041  36.333  0.0852  0.2568  0.0718
  997BOLB   C1A23909  21.289  21.028  36.635 -0.2637 -0.1814 -0.0051
  997BOLB   C2A23910  20.890  20.992  36.646 -0.2639 -0.0204 -0.1150
  997BOLB   C3A23911  20.440  20.976  36.567 -0.2383  0.3006  0.2074
  997BOLB   C4A23912  20.012  20.797  36.441  0.2148 -0.1483  0.0980
  997BOLB   C1B23913  21.370  20.837  36.173  0.0012 -0.1236 -0.1306
  997BOLB   C2B23914  21.096  20.485  35.981  0.1057 -0.0886  0.1515
  997BOLB   C3B23915  20.859  20.122  36.049  0.2555 -0.0463  0.2977
  997BOLB   C4B23916  20.670  19.647  35.937 -0.0947  0.1251  0.1985
  997BOLB   NC223917  20.618  22.873  36.097  0.0961  0.3519  0.0992
  997BOLB   PO223918  20.578  22.589  36.472 -0.2553  0.0120 -0.0139
  997BOLB   GL323919  20.376  22.214  36.500 -0.1286 -0.2773  0.2112
  997BOLB   GL423920  20.407  21.929  36.566 -0.0442  0.2506 -0.1276
  997BOLB   C1C23921  20.227  22.009  36.141 -0.1227 -0.1306 -0.0675
  997BOLB   C2C23922  19.949  21.666  36.214  0.0870 -0.2263 -0.0178
  997BOLB   C3C23923  19.656  21.332  36.239  0.0883 -0.2984 -0.2863
  997BOLB   C4C23924  19.631  20.907  36.297 -0.2006  0.3996  0.0218
  997BOLB   C1D23925  20.215  21.535  36.723  0.0819 -0.1000  0.0023
  997BOLB   C2D23926  19.874  21.284  36.723 -0.1844 -0.2483  0.0441
  997BOLB   C3D23927  19.456  21.188  36.684  0.4011  0.1106 -0.1115
  997BOLB   C4D23928  19.066  21.105  36.654  0.1619  0.0680 -0.0500
  998BOLB   NC123929   9.197  16.520  26.142 -0.1654 -0.1034  0.1141
  998BOLB   PO123930   9.179  16.424  25.731 -0.0297 -0.1245  0.1622
  998BOLB   GL123931   8.863  16.560  25.330  0.0276 -0.0711  0.2472
  998BOLB   GL223932   8.832  16.345  25.036  0.2527  0.0901 -0.4112
  998BOLB   C1A23933   8.836  16.938  25.041  0.0579  0.2349 -0.1664
  998BOLB   C2A23934   8.752  17.276  24.748 -0.0291  0.0068 -0.5299
  998BOLB   C3A23935   8.441  17.581  24.623  0.3436  0.2975 -0.0358
  998BOLB   C4A23936   8.057  17.533  24.583  0.1285  0.3294  0.2275
  998BOLB   C1B23937   8.539  16.537  24.938  0.0607  0.1727  0.3055
  998BOLB   C2B23938   8.117  16.614  24.706 -0.2610  0.2926 -0.4700
  998BOLB   C3B23939   7.757  16.570  24.648  0.0567 -0.0616 -0.2120
  998BOLB   C4B23940   7.544  16.692  24.240  0.0227 -0.3668 -0.2196
  998BOLB   NC223941   5.314  17.953  24.345  0.0377 -0.1504 -0.1765
  998BOLB   PO223942   5.451  18.079  23.906 -0.1481 -0.1056 -0.0312
  998BOLB   GL323943   5.922  18.023  24.110  0.1885 -0.2031 -0.4189
  998BOLB   GL423944   5.799  18.053  24.470 -0.1025 -0.1673  0.3267
  998BOLB   C1C23945   6.422  17.982  24.195  0.1824  0.0063  0.1058
  998BOLB   C2C23946   6.878  17.988  24.401  0.1147  0.1716  0.3908
  998BOLB   C3C23947   7.152  17.644  24.423 -0.0549 -0.2233  0.0011
  998BOLB   C4C23948   7.735  17.676  24.341 -0.0360  0.0356 -0.0581
  998BOLB   C1D23949   6.044  17.706  24.548 -0.3095  0.2959  0.0280
  998BOLB   C2D23950   6.328  17.389  24.646 -0.2257 -0.1242  0.1094
  998BOLB   C3D23951   6.528  17.034  24.858  0.2083 -0.0783 -0.1167
  998BOLB   C4D23952   6.710  16.646  24.763  0.0883 -0.1672 -0.1009
  999BOLB   NC123953   0.509  14.284  29.777 -0.1426 -0.0500 -0.1522
  999BOLB   PO123954   0.183  14.556  30.065  0.2303 -0.1265 -0.1197
  999BOLB   GL123955  26.775  14.592  29.933  0.1570  0.1868 -0.0356
  999BOLB   GL223956  26.726  14.696  29.665  0.0643 -0.2937  0.1414
  999BOLB   C1A23957  26.387  14.863  29.973 -0.0487  0.5352  0.5831
  999BOLB   C2A23958  26.013  14.720  29.793 -0.2483  0.0257 -0.2206
  999BOLB   C3A23959  25.625  14.644  29.637 -0.0992 -0.0663  0.1112
  999BOLB   C4A23960  25.441  14.322  29.455  0.3869 -0.2806  0.4217
  999BOLB   C1B23961  26.496  14.998  29.462 -0.0549  0.4927  0.0581
  999BOLB   C2B23962  26.276  15.324  29.760 -0.2528 -0.2249  0.2563
  999BOLB   C3B23963  25.919  15.188  29.907  0.2479  0.2785 -0.0424
  999BOLB   C4B23964  25.505  15.034  29.936 -0.0640 -0.1129 -0.0307
  999BOLB   NC223965  26.670  15.679  27.760  0.1782  0.3041 -0.2478
  999BOLB   PO223966  26.623  15.634  28.212  0.0349  0.1714  0.0803
  999BOLB   GL323967  26.185  15.718  28.340  0.0485  0.0785  0.1119
  999BOLB   GL423968  26.228  15.436  28.545 -0.0615 -0.0164 -0.0494
  999BOLB   C1C23969  25.838  15.328  28.263 -0.1261 -0.3389 -0.0746
  999BOLB   C2C23970  25.681  14.930  28.397  0.1786 -0.4148 -0.3714
  999BOLB   C3C23971  25.496  14.496  28.590  0.0531 -0.2188 -0.1253
  999BOLB   C4C23972  25.451  14.222  29.065 -0.0681  0.1095  0.2113
  999BOLB   C1D23973  25.865  15.575  28.872 -0.0421  0.3517  0.2377
  999BOLB   C2D23974  25.479  15.455  28.700  0.1789 -0.2067  0.0474
  999BOLB   C3D23975  25.337  15.072  28.789 -0.1504 -0.2098 -0.0381
  999BOLB   C4D23976  25.043  14.746  28.830 -0.4898 -0.5199  0.0609
 1000BOLB   NC123977  22.352  13.061  25.384 -0.0978 -0.0297  0.1781
 1000BOLB   PO123978  22.073  13.454  25.516  0.3467 -0.2595 -0.1547
 1000BOLB   GL123979  22.361  13.804  25.470 -0.1383 -0.1784  0.2424
 1000BOLB   GL223980  21.980  13.923  25.326 -0.4641  0.1982 -0.1240
 1000BOLB   C1A23981  22.698  14.104  25.450 -0.0040  0.2405  0.3515
 1000BOLB   C2A23982  22.795  14.403  25.723  0.1482  0.3287 -0.0127
 1000BOLB   C3A23983  23.149  14.745  25.938  0.2460  0.1508 -0.2807
 1000BOLB   C4A23984  23.399  15.142  25.769  0.0705  0.4192 -0.3878
 1000BOLB   C1B23985  21.794  14.361  25.083  0.1311  0.0941  0.0823
 1000BOLB   C2B23986  21.818  14.811  25.299 -0.0284 -0.1557  0.0796
 1000BOLB   C3B23987  21.650  15.104  25.533  0.1727 -0.1269 -0.1307
 1000BOLB   C4B23988  21.444  15.446  25.814  0.0744 -0.2231  0.0723
 1000BOLB   NC223989  26.077  15.005  25.640 -0.3524  0.0570 -0.1367
 1000BOLB   PO223990  25.919  15.404  25.780  0.0301  0.0439  0.1679
 1000BOLB   GL323991  25.522  15.449  25.710 -0.1125 -0.0104  0.2020
 1000BOLB   GL423992  25.440  15.485  25.945  0.1669 -0.1368  0.2381
 1000BOLB   C1C23993  25.129  15.281  25.466 -0.3622  0.3330  0.0733
 1000BOLB   C2C23994  24.677  15.417  25.344  0.0079  0.1648  0.0424
 1000BOLB   C3C23995  24.180  15.364  25.354  0.3443 -0.0607  0.4352
 1000BOLB   C4C23996  23.756  15.273  25.530  0.2804  0.2398  0.0223
 1000BOLB   C1D23997  24.973  15.432  26.008  0.1993 -0.0341 -0.1360
 1000BOLB   C2D23998  24.558  15.572  26.104  0.0574  0.0952 -0.1077
 1000BOLB   C3D23999  24.380  15.196  26.342 -0.2215  0.0880  0.0529
 1000BOLB   C4D24000  23.995  14.889  26.429 -0.1921 -0.3552  0.0495
 1001BOLB   NC124001  22.118  15.512  30.728 -0.0182 -0.0172 -0.3924
 1001BOLB   PO124002  22.477  15.645  31.054 -0.4167  0.2511  0.2326
 1001BOLB   GL124003  22.966  15.715  30.928 -0.1639  0.1483  0.1042
 1001BOLB   GL224004  23.083  15.941  30.656 -0.0217  0.0732 -0.0355
 1001BOLB   C1A24005  23.409  15.854  30.993  0.0050  0.0180 -0.1754
 1001BOLB   C2A24006  23.743  15.919  30.722 -0.3610  0.1764  0.2482
 1001BOLB   C3A24007  24.119  15.965  30.613 -0.1664 -0.0425 -0.0224
 1001BOLB   C4A24008  24.409  16.073  30.335 -0.0920  0.1659  0.3960
 1001BOLB   C1B24009  23.409  16.177  30.423 -0.2913 -0.1749 -0.0049
 1001BOLB   C2B24010  23.841  16.267  30.313  0.0843  0.1907 -0.0693
 1001BOLB   C3B24011  24.225  16.527  30.385 -0.0261  0.1914  0.2091
 1001BOLB   C4B24012  24.419  16.784  30.124  0.1864  0.2596  0.1260
 1001BOLB   NC224013  26.156  17.412  30.602 -0.2558 -0.0009 -0.2000
 1001BOLB   PO224014  26.392  17.005  30.532  0.0820 -0.0425 -0.3099
 1001BOLB   GL324015  25.969  16.893  30.498 -0.0103  0.3903 -0.1625
 1001BOLB   GL424016  25.944  16.541  30.573  0.1386 -0.1287 -0.1708
 1001BOLB   C1C24017  25.605  16.917  30.310  0.0857 -0.2917 -0.0149
 1001BOLB   C2C24018  25.450  16.674  29.940 -0.3023 -0.2651  0.1530
 1001BOLB   C3C24019  25.149  16.444  30.010  0.1984 -0.1330  0.2551
 1001BOLB   C4C24020  24.748  16.250  30.169  0.0610  0.2095  0.0679
 1001BOLB   C1D24021  25.495  16.379  30.419 -0.2676 -0.1091  0.0791
 1001BOLB   C2D24022  25.279  16.085  30.376 -0.1566 -0.0699 -0.0735
 1001BOLB   C3D24023  24.834  15.763  30.304  0.3147 -0.0176  0.0280
 1001BOLB   C4D24024  24.595  15.825  29.836  0.1309  0.2421  0.1635
 1002BOLB   NC124025  20.939  15.902  42.684 -0.3067 -0.0037  0.3688
 1002BOLB   PO124026  20.957  16.231  42.457  0.0261  0.0718 -0.2784
 1002BOLB   GL124027  20.908  15.977  41.956 -0.0188  0.0331  0.3789
 1002BOLB   GL224028  21.189  16.036  41.682  0.1335 -0.1091 -0.0049
 1002BOLB   C1A24029  20.753  15.873  41.479  0.0928  0.0299 -0.0164
 1002BOLB   C2A24030  20.694  15.653  41.123 -0.1334  0.0663 -0.2772
 1002BOLB   C3A24031  20.455  15.555  40.749  0.0993 -0.1989  0.0891
 1002BOLB   C4A24032  20.100  15.627  40.610 -0.0378 -0.3679  0.0495
 1002BOLB   C1B24033  21.313  15.791  41.424  0.1793 -0.3660 -0.1353
 1002BOLB   C2B24034  21.515  15.475  41.205 -0.0281  0.0711  0.1012
 1002BOLB   C3B24035  21.781  15.025  41.255  0.1740  0.2564  0.0291
 1002BOLB   C4B24036  22.297  15.088  41.278 -0.0395 -0.1855 -0.2982
 1002BOLB   NC224037  18.001  15.780  38.567  0.2684 -0.1435 -0.2823
 1002BOLB   PO224038  18.501  16.020  38.543 -0.1010 -0.0334  0.2104
 1002BOLB   GL324039  18.646  16.005  39.000 -0.0920  0.2702 -0.0422
 1002BOLB   GL424040  18.508  16.242  39.202 -0.0929 -0.1954  0.1407
 1002BOLB   C1C24041  18.917  15.764  39.279  0.0587 -0.2324  0.0578
 1002BOLB   C2C24042  19.182  15.569  39.487 -0.0520  0.2383  0.1529
 1002BOLB   C3C24043  19.365  15.679  39.961  0.0781  0.1912 -0.0351
 1002BOLB   C4C24044  19.690  15.843  40.285  0.2748 -0.0191 -0.0360
 1002BOLB   C1D24045  18.801  16.630  39.107  0.0713  0.0108 -0.1968
 1002BOLB   C2D24046  19.124  16.913  39.192  0.0478 -0.1556  0.0281
 1002BOLB   C3D24047  19.584  17.045  39.059  0.0589  0.0407 -0.2204
 1002BOLB   C4D24048  20.113  17.068  38.985  0.0398 -0.3495  0.2284
 1003BOLB   NC124049   9.225  11.287  26.446 -0.1518  0.1886 -0.3698
 1003BOLB   PO124050   8.857  11.160  26.474  0.0395  0.0440  0.3146
 1003BOLB   GL124051   8.407  11.142  26.166 -0.0964 -0.0993 -0.2829
 1003BOLB   GL224052   8.193  11.270  26.460  0.0746 -0.1578  0.1605
 1003BOLB   C1A24053   8.121  11.348  25.918  0.0119  0.1574  0.1013
 1003BOLB   C2A24054   7.624  11.511  25.991 -0.3291 -0.0079  0.0302
 1003BOLB   C3A24055   7.260  11.678  26.241  0.1326 -0.1205  0.2043
 1003BOLB   C4A24056   7.042  11.850  26.550  0.0009 -0.0864 -0.1507
 1003BOLB   C1B24057   7.840  11.073  26.340 -0.0708  0.1660 -0.1154
 1003BOLB   C2B24058   7.387  11.165  26.372 -0.1064  0.1277 -0.0779
 1003BOLB   C3B24059   6.901  11.325  26.374 -0.2603 -0.0804 -0.5283
 1003BOLB   C4B24060   6.715  11.580  26.117  0.1219 -0.1633 -0.0617
 1003BOLB   NC224061   4.241  11.523  26.097 -0.1208  0.3233  0.2954
 1003BOLB   PO224062   4.571  11.329  25.914  0.4349 -0.2979 -0.2366
 1003BOLB   GL324063   4.893  11.569  26.164  0.2892 -0.0846 -0.1737
 1003BOLB   GL424064   4.647  11.811  26.330  0.1139  0.2258 -0.1701
 1003BOLB   C1C24065   5.263  11.707  26.312  0.2145  0.1531 -0.1582
 1003BOLB   C2C24066   5.717  11.953  26.288  0.0572  0.0047  0.0247
 1003BOLB   C3C24067   6.132  12.148  26.462  0.0510  0.1632  0.0202
 1003BOLB   C4C24068   6.633  11.995  26.493  0.3820 -0.1905  0.0697
 1003BOLB   C1D24069   4.940  12.027  26.644  0.1139  0.0918 -0.2751
 1003BOLB   C2D24070   5.347  12.252  26.754 -0.0025 -0.0050 -0.1350
 1003BOLB   C3D24071   5.594  12.531  26.488  0.3851  0.0008 -0.0888
 1003BOLB   C4D24072   5.958  12.691  26.520 -0.0287 -0.0357 -0.0458
 1004BOLB   NC124073  15.710  11.207  39.538 -0.2054  0.2767  0.0201
 1004BOLB   PO124074  15.467  10.885  39.635  0.0704 -0.1095 -0.2600
 1004BOLB   GL124075  15.432  10.728  40.078 -0.1911 -0.1959 -0.0829
 1004BOLB   GL224076  15.696  10.851  40.341 -0.1333  0.1168 -0.1033
 1004BOLB   C1A24077  15.391  10.574  40.531 -0.2708  0.0527 -0.2639
 1004BOLB   C2A24078  15.513  10.577  40.909  0.0554  0.1164 -0.1640
 1004BOLB   C3A24079  15.592  10.818  41.279 -0.1842 -0.0948  0.0362
 1004BOLB   C4A24080  15.379  10.882  41.616  0.0917  0.1397  0.0126
 1004BOLB   C1B24081  15.731  10.959  40.781 -0.1418 -0.0138  0.1041
 1004BOLB   C2B24082  15.883  11.240  41.098  0.2595 -0.0118 -0.1530
 1004BOLB   C3B24083  16.112  11.277  41.432 -0.4665  0.0390 -0.3324
 1004BOLB   C4B24084  16.376  11.153  41.900 -0.0387 -0.0574 -0.1590
 1004BOLB   NC224085  15.164  11.984  39.698  0.0601 -0.0022  0.0246
 1004BOLB   PO224086  14.880  12.077  39.965  0.1115 -0.0015 -0.1271
 1004BOLB   GL324087  14.856  11.985  40.338  0.0180 -0.4162 -0.3841
 1004BOLB   GL424088  14.891  12.239  40.494 -0.2641 -0.0440 -0.0515
 1004BOLB   C1C24089  14.981  11.781  40.743  0.0845  0.1160 -0.0949
 1004BOLB   C2C24090  15.078  11.710  41.140  0.3290  0.2715  0.0060
 1004BOLB   C3C24091  15.070  11.521  41.537 -0.2276 -0.4796 -0.0783
 1004BOLB   C4C24092  15.170  11.151  41.695  0.0283 -0.0760  0.0168
 1004BOLB   C1D24093  14.656  12.548  40.681 -0.1563  0.1564 -0.1234
 1004BOLB   C2D24094  14.664  12.735  41.029  0.2389  0.0562  0.2004
 1004BOLB   C3D24095  14.516  12.608  41.502 -0.2387  0.0080 -0.0972
 1004BOLB   C4D24096  14.573  12.323  41.876  0.0595  0.1733  0.1903
 1005BOLB   NC124097  17.245   4.935  33.493  0.0282  0.0771 -0.1352
 1005BOLB   PO124098  17.013   4.902  33.841 -0.3732  0.0415  0.0341
 1005BOLB   GL124099  17.255   4.592  33.934  0.0030  0.1800 -0.2219
 1005BOLB   GL224100  17.485   4.529  33.808  0.2086  0.0190 -0.2555
 1005BOLB   C1A24101  17.276   4.187  34.101  0.1683 -0.0823 -0.2466
 1005BOLB   C2A24102  17.326   3.722  34.275 -0.2140 -0.1095  0.1418
 1005BOLB   C3A24103  17.355   3.279  34.320  0.4917 -0.3240  0.0810
 1005BOLB   C4A24104  17.802   3.096  34.453  0.0601  0.4019 -0.0470
 1005BOLB   C1B24105  17.755   4.359  33.679 -0.1505 -0.2382 -0.2024
 1005BOLB   C2B24106  17.745   4.059  33.950  0.2510 -0.1465 -0.2176
 1005BOLB   C3B24107  17.945   3.723  34.160  0.1678 -0.0674 -0.0655
 1005BOLB   C4B24108  17.882   3.396  34.060 -0.3487 -0.0875 -0.3839
 1005BOLB   NC224109  18.662   0.445  34.951  0.0849  0.2537  0.0903
 1005BOLB   PO224110  18.324   0.792  34.799 -0.0699 -0.2612  0.0973
 1005BOLB   GL324111  18.461   1.212  34.615  0.0281 -0.2434  0.1244
 1005BOLB   GL424112  18.696   1.327  34.458 -0.3593  0.3123 -0.1409
 1005BOLB   C1C24113  18.282   1.598  34.523  0.0288  0.2055 -0.0704
 1005BOLB   C2C24114  18.248   2.040  34.393 -0.2294 -0.0919 -0.2332
 1005BOLB   C3C24115  18.243   2.460  34.324 -0.3509  0.2350  0.0757
 1005BOLB   C4C24116  18.183   2.878  34.361  0.0450  0.1196 -0.0497
 1005BOLB   C1D24117  18.724   1.757  34.196  0.0277 -0.2625 -0.0855
 1005BOLB   C2D24118  19.097   1.997  34.250 -0.0787  0.0865  0.1470
 1005BOLB   C3D24119  19.101   2.437  34.168  0.1520 -0.0183 -0.1989
 1005BOLB   C4D24120  19.032   2.751  33.727 -0.0158  0.4540  0.0002
 1006BOLB   NC124121  15.339  10.990  20.221 -0.0092  0.0422  0.2082
 1006BOLB   PO124122  15.092  11.347  19.961 -0.3089  0.0825 -0.1585
 1006BOLB   GL124123  14.978  11.177  19.621 -0.0631 -0.3165 -0.0041
 1006BOLB   GL224124  14.670  11.140  19.744  0.2007 -0.0231  0.1838
 1006BOLB   C1A24125  14.805  11.037  19.211 -0.1274  0.1854 -0.0272
 1006BOLB   C2A24126  14.787  10.636  18.911 -0.5549  0.0862  0.0992
 1006BOLB   C3A24127  14.930  10.421  18.637 -0.0190  0.0657 -0.4053
 1006BOLB   C4A24128  14.847  10.349  18.245  0.2687  0.0322 -0.0950
 1006BOLB   C1B24129  14.313  10.886  19.568 -0.0571 -0.1619 -0.1778
 1006BOLB   C2B24130  14.278  10.966  19.172 -0.1154  0.0049 -0.0197
 1006BOLB   C3B24131  14.256  10.735  18.828 -0.0017 -0.0535  0.1612
 1006BOLB   C4B24132  14.468  10.634  18.395 -0.1309 -0.0920 -0.1610
 1006BOLB   NC224133  14.243  10.996  15.918 -0.0640 -0.2293 -0.1853
 1006BOLB   PO224134  14.110  10.667  15.749 -0.0742 -0.3739  0.0837
 1006BOLB   GL324135  14.211  10.554  16.141  0.3270 -0.0218 -0.1417
 1006BOLB   GL424136  14.094  10.750  16.372  0.0996  0.1802 -0.1490
 1006BOLB   C1C24137  14.301  10.416  16.612 -0.0527 -0.4488 -0.3803
 1006BOLB   C2C24138  14.253  10.404  17.100 -0.1697 -0.3226 -0.0733
 1006BOLB   C3C24139  14.498  10.272  17.455 -0.4777  0.0876  0.3060
 1006BOLB   C4C24140  14.553  10.425  17.906 -0.2318 -0.0699  0.1756
 1006BOLB   C1D24141  13.705  11.032  16.535 -0.2818 -0.1266 -0.2433
 1006BOLB   C2D24142  13.511  11.045  16.913  0.0180 -0.0148 -0.1458
 1006BOLB   C3D24143  13.745  11.086  17.220  0.1935  0.2836  0.2874
 1006BOLB   C4D24144  14.086  11.185  17.534  0.1647  0.4530  0.1874
 1007BOLB   NC124145  21.538  16.270  16.089  0.4587 -0.0371  0.1905
 1007BOLB   PO124146  21.216  16.491  16.351 -0.1868 -0.1280 -0.1575
 1007BOLB   GL124147  21.028  16.100  16.533  0.4777  0.1946 -0.0036
 1007BOLB   GL224148  20.788  16.294  16.785  0.0858  0.3533  0.3176
 1007BOLB   C1A24149  21.124  15.684  16.753  0.0446  0.0154 -0.1647
 1007BOLB   C2A24150  20.888  15.407  16.945 -0.1110  0.2205  0.4039
 1007BOLB   C3A24151  20.569  15.308  17.194  0.4377 -0.2466 -0.0271
 1007BOLB   C4A24152  20.462  15.571  17.546 -0.1214  0.2561  0.3640
 1007BOLB   C1B24153  20.404  16.226  17.101  0.2390 -0.2551 -0.1178
 1007BOLB   C2B24154  20.247  15.778  17.125  0.3926  0.1881 -0.2801
 1007BOLB   C3B24155  19.938  15.497  17.320 -0.4658 -0.2247  0.1019
 1007BOLB   C4B24156  19.923  15.159  17.583 -0.1624  0.1545  0.3919
 1007BOLB   NC224157  19.886  16.174  15.857  0.3282 -0.1811 -0.0956
 1007BOLB   PO224158  20.260  16.296  16.065  0.1384 -0.2060 -0.1867
 1007BOLB   GL324159  20.030  16.182  16.324  0.1337  0.0932  0.3749
 1007BOLB   GL424160  19.688  16.188  16.290 -0.3535 -0.0625 -0.0597
 1007BOLB   C1C24161  20.065  16.142  16.767 -0.1092  0.1619 -0.3012
 1007BOLB   C2C24162  19.842  16.162  17.176 -0.0498 -0.3144 -0.3283
 1007BOLB   C3C24163  19.828  15.976  17.534 -0.1173  0.0787 -0.2313
 1007BOLB   C4C24164  20.114  15.692  17.761  0.0076 -0.0370 -0.0187
 1007BOLB   C1D24165  19.178  16.281  16.449 -0.0417 -0.0781 -0.0734
 1007BOLB   C2D24166  18.820  16.258  16.803  0.1001  0.2857  0.0422
 1007BOLB   C3D24167  18.721  16.088  17.212 -0.0564 -0.2704 -0.2432
 1007BOLB   C4D24168  18.384  16.013  17.445  0.4016 -0.0085  0.0854
 1008BOLB   NC124169  22.074  10.467  37.257  0.0254  0.0056  0.3749
 1008BOLB   PO124170  22.183  10.434  36.939  0.3797  0.0134  0.0865
 1008BOLB   GL124171  22.501  10.275  36.988  0.1919 -0.1838  0.1625
 1008BOLB   GL224172  22.473   9.960  36.714  0.0766  0.0888 -0.0292
 1008BOLB   C1A24173  22.688  10.201  37.382  0.3096 -0.2998  0.2942
 1008BOLB   C2A24174  22.896   9.910  37.589  0.3614  0.2529 -0.1404
 1008BOLB   C3A24175  23.263   9.661  37.632  0.1542  0.1527 -0.1632
 1008BOLB   C4A24176  23.514   9.292  37.665  0.1336 -0.0161 -0.0166
 1008BOLB   C1B24177  22.772   9.708  36.529  0.2168  0.1602  0.0768
 1008BOLB   C2B24178  23.013   9.452  36.716 -0.1751 -0.0751  0.2504
 1008BOLB   C3B24179  23.196   9.138  36.813 -0.3236  0.1513 -0.1723
 1008BOLB   C4B24180  23.380   9.055  37.192  0.0986 -0.0209 -0.2627
 1008BOLB   NC224181  24.856   7.317  38.163  0.0610  0.1866 -0.2560
 1008BOLB   PO224182  25.022   7.688  37.972  0.0658  0.0294 -0.0250
 1008BOLB   GL324183  24.922   8.159  37.954  0.0262  0.0078 -0.0647
 1008BOLB   GL424184  24.586   8.214  37.985 -0.1578 -0.0687  0.0726
 1008BOLB   C1C24185  24.790   8.568  37.609  0.1444 -0.1136 -0.1696
 1008BOLB   C2C24186  24.523   8.789  37.413 -0.3771 -0.0950 -0.1210
 1008BOLB   C3C24187  24.069   8.709  37.327  0.3628  0.2135 -0.0784
 1008BOLB   C4C24188  23.847   9.091  37.308  0.0090  0.3521  0.0546
 1008BOLB   C1D24189  24.345   8.428  37.791 -0.0458  0.2447  0.3074
 1008BOLB   C2D24190  24.189   8.850  37.737  0.0265 -0.4597 -0.0704
 1008BOLB   C3D24191  24.073   9.350  37.810  0.4365  0.2049 -0.0538
 1008BOLB   C4D24192  23.728   9.777  37.839 -0.0686 -0.0508  0.2218
 1009BOLB   NC124193  25.964  14.853  24.820  0.1530 -0.0038  0.0159
 1009BOLB   PO124194  26.077  14.747  25.236 -0.1310 -0.3753  0.1216
 1009BOLB   GL124195  25.824  14.464  25.290 -0.1480 -0.3805  0.1387
 1009BOLB   GL224196  25.716  14.415  25.023  0.1980  0.2793 -0.1516
 1009BOLB   C1A24197  25.431  14.437  25.434 -0.1176  0.1620 -0.0622
 1009BOLB   C2A24198  24.932  14.471  25.331  0.1209  0.5196 -0.1508
 1009BOLB   C3A24199  24.537  14.383  25.261  0.3405 -0.1455  0.3319
 1009BOLB   C4A24200  24.159  14.470  25.169 -0.0445  0.1853  0.0456
 1009BOLB   C1B24201  25.157  14.383  24.882  0.1625  0.0843 -0.0677
 1009BOLB   C2B24202  24.807  14.086  24.849  0.2973  0.0556  0.0092
 1009BOLB   C3B24203  24.594  13.919  25.121  0.1842 -0.2446 -0.4219
 1009BOLB   C4B24204  24.257  14.027  25.381  0.4780 -0.0548 -0.0807
 1009BOLB   NC224205  26.039  15.262  24.136 -0.0939 -0.0988  0.2007
 1009BOLB   PO224206  25.704  15.298  23.832 -0.3262 -0.1084  0.0968
 1009BOLB   GL324207  25.406  15.211  24.039  0.2265  0.0240 -0.0340
 1009BOLB   GL424208  25.274  14.838  23.846 -0.2066 -0.1581 -0.0941
 1009BOLB   C1C24209  24.948  15.022  24.167 -0.0963 -0.1090 -0.4127
 1009BOLB   C2C24210  24.499  14.848  24.235 -0.0525  0.4097 -0.1588
 1009BOLB   C3C24211  24.288  14.574  24.374  0.0171 -0.0535 -0.3961
 1009BOLB   C4C24212  23.970  14.572  24.795  0.0674  0.0240 -0.0726
 1009BOLB   C1D24213  24.790  14.606  23.905  0.1221  0.0973 -0.0129
 1009BOLB   C2D24214  24.443  14.381  23.886 -0.1105  0.1606  0.0048
 1009BOLB   C3D24215  23.957  14.491  23.910  0.0415 -0.2937  0.1429
 1009BOLB   C4D24216  23.764  14.515  24.310 -0.1146 -0.0736  0.0194
 1010BOLB   NC124217   7.938  16.473  33.689  0.3194 -0.2868 -0.0246
 1010BOLB   PO124218   7.903  16.078  33.361  0.0320  0.2150  0.3628
 1010BOLB   GL124219   7.613  15.966  33.557 -0.2038  0.0294  0.1210
 1010BOLB   GL224220   7.367  15.930  33.392  0.5516  0.0557 -0.1289
 1010BOLB   C1A24221   7.356  16.156  33.819  0.0970 -0.0811 -0.1091
 1010BOLB   C2A24222   7.116  16.088  34.186 -0.1829 -0.1989  0.0380
 1010BOLB   C3A24223   6.764  16.286  34.187  0.4039  0.1427  0.0510
 1010BOLB   C4A24224   6.332  16.524  34.281 -0.0925  0.1858 -0.1686
 1010BOLB   C1B24225   6.966  16.260  33.462 -0.0928  0.2013 -0.0644
 1010BOLB   C2B24226   6.664  16.540  33.263  0.0305 -0.2272  0.4493
 1010BOLB   C3B24227   6.221  16.324  33.279  0.5444  0.1765  0.2038
 1010BOLB   C4B24228   5.681  16.172  33.222  0.0310  0.4171  0.1383
 1010BOLB   NC224229   4.730  18.090  36.168  0.0372 -0.0525  0.0833
 1010BOLB   PO224230   4.758  17.719  35.927 -0.2289  0.0599  0.0376
 1010BOLB   GL324231   4.972  17.299  35.536 -0.2102 -0.4386 -0.1966
 1010BOLB   GL424232   5.082  17.507  35.333  0.2826  0.0953  0.0518
 1010BOLB   C1C24233   5.216  16.912  35.242 -0.1612 -0.1195  0.0155
 1010BOLB   C2C24234   5.556  16.843  34.946 -0.1627 -0.1548 -0.2609
 1010BOLB   C3C24235   5.838  17.123  34.625 -0.2011  0.0739 -0.1907
 1010BOLB   C4C24236   6.225  16.986  34.558 -0.2938  0.0496  0.0416
 1010BOLB   C1D24237   5.433  17.315  35.051 -0.0822 -0.1646 -0.3650
 1010BOLB   C2D24238   5.332  17.120  34.664  0.1070  0.0158  0.0586
 1010BOLB   C3D24239   5.484  17.052  34.260 -0.3209  0.2625 -0.0223
 1010BOLB   C4D24240   5.537  17.484  34.066  0.2182  0.3964  0.2055
 1011BOLB   NC124241  22.528  10.962  24.663 -0.1825  0.0745 -0.2515
 1011BOLB   PO124242  22.686  11.382  24.710 -0.0468 -0.4560 -0.0449
 1011BOLB   GL124243  23.026  11.702  24.713 -0.3027  0.0104 -0.5133
 1011BOLB   GL224244  23.022  11.927  24.878  0.1103 -0.3119 -0.1720
 1011BOLB   C1A24245  23.390  11.810  24.543 -0.1266 -0.0693 -0.2198
 1011BOLB   C2A24246  23.684  12.020  24.277 -0.1652 -0.1315 -0.1247
 1011BOLB   C3A24247  24.065  12.052  24.126  0.3201 -0.0775 -0.1876
 1011BOLB   C4A24248  24.469  12.096  24.038  0.0268  0.1305  0.0948
 1011BOLB   C1B24249  23.403  12.073  24.985  0.0199  0.0576 -0.1745
 1011BOLB   C2B24250  23.592  12.495  25.164  0.0390 -0.0634 -0.0200
 1011BOLB   C3B24251  23.996  12.535  25.462 -0.2595 -0.1535 -0.0557
 1011BOLB   C4B24252  24.329  12.694  25.725 -0.0125  0.2252 -0.2509
 1011BOLB   NC224253  26.283  13.699  23.594 -0.1810  0.1425 -0.2481
 1011BOLB   PO224254  26.358  13.664  23.176  0.4068  0.0400 -0.0382
 1011BOLB   GL324255  26.084  13.369  23.303  0.1597  0.0826  0.0034
 1011BOLB   GL424256  25.780  13.580  23.543 -0.1928  0.0224  0.0093
 1011BOLB   C1C24257  25.905  12.946  23.447 -0.2938  0.1571  0.1480
 1011BOLB   C2C24258  25.516  12.800  23.520  0.0303  0.0707 -0.0766
 1011BOLB   C3C24259  25.032  12.615  23.675  0.2741  0.0373  0.0303
 1011BOLB   C4C24260  24.698  12.342  23.687  0.1748 -0.0026  0.0947
 1011BOLB   C1D24261  25.467  13.349  23.779 -0.2629  0.1811  0.3754
 1011BOLB   C2D24262  25.081  13.099  23.822  0.2355  0.0657  0.2850
 1011BOLB   C3D24263  24.780  12.901  24.081  0.1034  0.0287  0.2754
 1011BOLB   C4D24264  24.477  13.054  24.352  0.4697 -0.0127  0.0483
 1012BOLB   NC124265  13.979  18.961  36.385  0.1091  0.2641 -0.0211
 1012BOLB   PO124266  14.304  18.980  36.638 -0.0738 -0.0470 -0.0499
 1012BOLB   GL124267  13.943  19.123  36.957  0.1195 -0.2242 -0.0205
 1012BOLB   GL224268  13.701  19.135  36.829  0.2859  0.0734  0.0305
 1012BOLB   C1A24269  14.023  19.469  37.199 -0.3169  0.0609 -0.1348
 1012BOLB   C2A24270  13.804  19.771  37.468  0.3295 -0.2100 -0.2128
 1012BOLB   C3A24271  13.837  20.177  37.694  0.0212  0.0660  0.0626
 1012BOLB   C4A24272  13.872  20.633  37.582 -0.0249  0.1128  0.0422
 1012BOLB   C1B24273  13.494  19.374  37.095  0.2112  0.0031  0.1255
 1012BOLB   C2B24274  13.078  19.583  36.944 -0.2064 -0.1346 -0.0316
 1012BOLB   C3B24275  12.657  19.718  36.990  0.1980  0.1238 -0.0227
 1012BOLB   C4B24276  12.309  19.735  37.235  0.2111 -0.4642 -0.0200
 1012BOLB   NC224277  13.585  23.079  38.418 -0.1969 -0.1289 -0.1582
 1012BOLB   PO224278  13.808  22.785  38.649  0.2267  0.0402  0.2030
 1012BOLB   GL324279  13.876  22.392  38.556  0.0564  0.0158 -0.1240
 1012BOLB   GL424280  13.906  22.490  38.152 -0.0688  0.1467 -0.0263
 1012BOLB   C1C24281  13.873  22.076  38.426 -0.1632  0.0491  0.2261
 1012BOLB   C2C24282  13.928  21.777  38.056 -0.3371  0.3034 -0.1247
 1012BOLB   C3C24283  14.176  21.317  38.043 -0.1289 -0.0856 -0.0147
 1012BOLB   C4C24284  14.149  20.933  37.769  0.0019  0.1340  0.0225
 1012BOLB   C1D24285  14.152  22.170  37.825  0.1517 -0.1324 -0.2434
 1012BOLB   C2D24286  14.400  21.767  37.798 -0.0878  0.0952  0.0748
 1012BOLB   C3D24287  14.320  21.400  37.553 -0.0725  0.0302 -0.3985
 1012BOLB   C4D24288  14.437  21.149  37.248  0.4058  0.1256  0.1284
 1013BOLB   NC124289   9.625  12.515  36.441 -0.1516 -0.1296 -0.0860
 1013BOLB   PO124290   9.746  12.068  36.572  0.1691  0.2283 -0.3061
 1013BOLB   GL124291   9.386  12.188  36.768  0.4083  0.3650 -0.1733
 1013BOLB   GL224292   9.251  12.468  36.751  0.2275 -0.1304  0.1052
 1013BOLB   C1A24293   8.946  12.055  36.821  0.1518  0.0935  0.1583
 1013BOLB   C2A24294   8.563  12.106  37.278 -0.2961 -0.0407  0.0114
 1013BOLB   C3A24295   8.069  12.029  37.289 -0.0283  0.0464 -0.1065
 1013BOLB   C4A24296   7.696  12.256  37.369 -0.2783 -0.1976  0.1750
 1013BOLB   C1B24297   8.993  12.503  37.113  0.1442  0.0144 -0.0546
 1013BOLB   C2B24298   8.679  12.578  37.460 -0.2154 -0.1961  0.3010
 1013BOLB   C3B24299   8.283  12.640  37.536 -0.2194  0.1241 -0.2503
 1013BOLB   C4B24300   8.035  13.101  37.650 -0.1996  0.0732  0.2467
 1013BOLB   NC224301   5.248  12.160  39.305 -0.0977 -0.0085  0.0810
 1013BOLB   PO224302   5.684  12.254  39.029 -0.3193 -0.0790 -0.3215
 1013BOLB   GL324303   6.165  12.288  38.856  0.2726  0.0376 -0.0311
 1013BOLB   GL424304   6.202  12.033  38.535  0.0123 -0.1799 -0.0910
 1013BOLB   C1C24305   6.645  12.310  38.662 -0.3180  0.3486 -0.0451
 1013BOLB   C2C24306   6.856  12.311  38.333  0.1833 -0.4237  0.0456
 1013BOLB   C3C24307   7.028  12.300  37.905  0.0897 -0.0514  0.1209
 1013BOLB   C4C24308   7.309  12.305  37.595 -0.1414 -0.1229  0.2343
 1013BOLB   C1D24309   6.504  11.867  38.306 -0.1507 -0.0462 -0.0556
 1013BOLB   C2D24310   6.793  11.876  37.960  0.2233  0.1468 -0.2594
 1013BOLB   C3D24311   6.965  11.871  37.546  0.1251  0.2008 -0.3105
 1013BOLB   C4D24312   6.812  11.666  37.239  0.2909 -0.1630  0.0624
 1014BOLB   NC124313  23.101  13.544  29.656 -0.1545 -0.0575 -0.1220
 1014BOLB   PO124314  22.966  13.945  29.809  0.0466 -0.2019 -0.0086
 1014BOLB   GL124315  23.211  14.397  29.695 -0.0223  0.4648  0.1132
 1014BOLB   GL224316  23.587  14.316  29.464  0.2371  0.2090 -0.1651
 1014BOLB   C1A24317  23.284  14.800  29.506 -0.1537 -0.0409  0.2221
 1014BOLB   C2A24318  23.611  15.067  29.544  0.1733 -0.3206  0.2735
 1014BOLB   C3A24319  23.965  15.181  29.479  0.0368  0.3636 -0.0229
 1014BOLB   C4A24320  24.416  15.282  29.349 -0.0867 -0.1257  0.0359
 1014BOLB   C1B24321  23.771  14.585  29.386  0.2459  0.1609 -0.1885
 1014BOLB   C2B24322  24.153  14.760  29.370 -0.2908 -0.0023  0.1036
 1014BOLB   C3B24323  24.609  14.806  29.229  0.2104  0.0422  0.0966
 1014BOLB   C4B24324  24.876  14.375  29.121 -0.2126 -0.2855  0.0195
 1014BOLB   NC224325  26.937  15.643  29.881 -0.1818  0.1275  0.1284
 1014BOLB   PO224326  26.724  15.993  29.860 -0.0903 -0.1280  0.1975
 1014BOLB   GL324327  26.328  15.841  29.927  0.3189  0.1226  0.2920
 1014BOLB   GL424328  26.424  15.696  30.228 -0.0426 -0.2598 -0.0312
 1014BOLB   C1C24329  25.876  15.714  29.714  0.2887 -0.5462  0.3531
 1014BOLB   C2C24330  25.652  15.413  29.550 -0.0176  0.1001  0.3123
 1014BOLB   C3C24331  25.264  15.238  29.470 -0.0123  0.1702 -0.1309
 1014BOLB   C4C24332  24.820  15.219  29.310 -0.0734 -0.1163 -0.0029
 1014BOLB   C1D24333  26.048  15.574  30.185 -0.0982  0.0140 -0.0843
 1014BOLB   C2D24334  25.733  15.253  30.354 -0.3581  0.2824  0.0989
 1014BOLB   C3D24335  25.417  15.007  30.458  0.0008  0.4065  0.0360
 1014BOLB   C4D24336  25.119  14.986  30.732  0.0454  0.2519  0.1655
 1015BOLB   NC124337  17.778  18.391  42.245  0.0998  0.1681  0.3054
 1015BOLB   PO124338  17.537  18.718  42.350 -0.0163 -0.0180  0.2755
 1015BOLB   GL124339  17.403  18.450  41.866 -0.0339 -0.1930 -0.0143
 1015BOLB   GL224340  17.268  18.209  41.846  0.0599 -0.0247  0.0482
 1015BOLB   C1A24341  17.682  18.151  41.610 -0.0500 -0.4427  0.3013
 1015BOLB   C2A24342  17.831  18.043  41.243  0.0860  0.3300  0.0056
 1015BOLB   C3A24343  17.658  17.885  40.884  0.0726  0.3048  0.0774
 1015BOLB   C4A24344  17.169  17.982  40.784  0.3054  0.0549 -0.1800
 1015BOLB   C1B24345  17.268  17.842  41.731  0.2069  0.0780 -0.1328
 1015BOLB   C2B24346  17.380  17.371  41.806 -0.2498  0.1275 -0.2446
 1015BOLB   C3B24347  17.438  17.060  41.489  0.2950 -0.0945  0.0153
 1015BOLB   C4B24348  17.441  17.067  41.134  0.1989 -0.0675 -0.0067
 1015BOLB   NC224349  15.920  19.597  41.706  0.1307 -0.1461 -0.0469
 1015BOLB   PO224350  16.418  19.728  41.715  0.1450  0.0825  0.0374
 1015BOLB   GL324351  16.459  19.306  41.621 -0.2433  0.0097 -0.1168
 1015BOLB   GL424352  16.805  19.246  41.532  0.1934  0.2417 -0.0924
 1015BOLB   C1C24353  16.283  19.013  41.299  0.0373 -0.1972  0.0001
 1015BOLB   C2C24354  16.277  18.601  41.112 -0.0149 -0.1140 -0.2755
 1015BOLB   C3C24355  16.453  18.457  40.781  0.0423 -0.0136 -0.0232
 1015BOLB   C4C24356  16.728  18.142  40.659 -0.4632  0.2458  0.1727
 1015BOLB   C1D24357  16.786  18.865  41.233 -0.1629 -0.1076  0.0822
 1015BOLB   C2D24358  16.764  18.454  41.183 -0.0714  0.0915 -0.0993
 1015BOLB   C3D24359  16.392  18.053  41.029 -0.1206  0.1777 -0.0179
 1015BOLB   C4D24360  16.122  17.685  41.120  0.0660 -0.0724 -0.0981
 1016BOLB   NC124361  13.630  18.566  42.260  0.3943 -0.0835 -0.3251
 1016BOLB   PO124362  13.533  18.288  42.646  0.0207  0.0606  0.0558
 1016BOLB   GL124363  13.614  18.077  42.222  0.0026  0.0890  0.0892
 1016BOLB   GL224364  13.460  18.217  41.931 -0.1496  0.1086 -0.1301
 1016BOLB   C1A24365  13.813  17.698  42.107  0.1870  0.4509  0.0096
 1016BOLB   C2A24366  13.845  17.231  41.988 -0.1138 -0.0834 -0.0087
 1016BOLB   C3A24367  13.757  16.964  41.549 -0.0088 -0.0360  0.0476
 1016BOLB   C4A24368  13.714  16.622  41.250  0.1111  0.2088 -0.0147
 1016BOLB   C1B24369  13.528  17.949  41.633  0.2402 -0.2435  0.3103
 1016BOLB   C2B24370  13.835  17.545  41.554 -0.0010  0.4224 -0.1390
 1016BOLB   C3B24371  14.090  17.399  41.207 -0.1837 -0.1377  0.2565
 1016BOLB   C4B24372  14.509  17.281  41.038 -0.2340 -0.1450 -0.0013
 1016BOLB   NC224373  13.404  15.302  43.084  0.0342  0.3466 -0.1307
 1016BOLB   PO224374  13.018  15.421  42.932 -0.1182  0.0800 -0.1559
 1016BOLB   GL324375  13.006  15.305  42.429 -0.3100  0.0986 -0.2038
 1016BOLB   GL424376  12.694  15.138  42.421  0.1742  0.0165 -0.0404
 1016BOLB   C1C24377  13.501  15.336  42.170 -0.0474  0.3133  0.2246
 1016BOLB   C2C24378  13.757  15.562  41.846  0.0906 -0.1052 -0.2553
 1016BOLB   C3C24379  13.784  15.740  41.412 -0.2607 -0.0510  0.1056
 1016BOLB   C4C24380  13.659  16.132  41.424  0.0393  0.1573  0.4342
 1016BOLB   C1D24381  12.859  14.837  42.197 -0.3315  0.0676 -0.0558
 1016BOLB   C2D24382  12.884  14.751  41.793  0.0059  0.0595  0.1318
 1016BOLB   C3D24383  13.069  14.479  41.612  0.2234 -0.1972  0.0948
 1016BOLB   C4D24384  13.081  13.987  41.503 -0.0556 -0.2697 -0.0495
 1017BOLB   NC124385   9.591  16.947  35.264  0.3672  0.1164 -0.0784
 1017BOLB   PO124386   9.531  16.592  35.308  0.0136  0.3655  0.0351
 1017BOLB   GL124387   9.249  16.794  35.660 -0.2812 -0.4299 -0.0225
 1017BOLB   GL224388   9.300  16.479  35.828 -0.1860 -0.0471  0.2888
 1017BOLB   C1A24389   8.791  17.020  35.733 -0.1144 -0.0038  0.2179
 1017BOLB   C2A24390   8.581  17.190  36.018  0.2078 -0.0650  0.0624
 1017BOLB   C3A24391   8.528  17.546  36.419  0.0902 -0.1437 -0.0934
 1017BOLB   C4A24392   8.331  17.855  36.596 -0.3662  0.0740  0.2801
 1017BOLB   C1B24393   9.145  16.410  36.231 -0.1817  0.0477  0.0577
 1017BOLB   C2B24394   8.853  16.371  36.535  0.4332  0.1160 -0.0024
 1017BOLB   C3B24395   8.557  16.515  36.868 -0.1605  0.2184 -0.0516
 1017BOLB   C4B24396   8.348  16.949  36.988 -0.1742  0.0286  0.0807
 1017BOLB   NC224397   6.729  19.672  37.174 -0.2132 -0.2879  0.1820
 1017BOLB   PO224398   6.776  19.482  37.473  0.1423  0.2941 -0.0532
 1017BOLB   GL324399   7.139  19.332  37.175 -0.1718  0.2645 -0.0645
 1017BOLB   GL424400   7.074  19.467  36.848 -0.0455 -0.2651 -0.1289
 1017BOLB   C1C24401   7.463  19.187  36.984 -0.2493 -0.0343  0.0130
 1017BOLB   C2C24402   7.694  18.849  36.909 -0.2748  0.2747 -0.1428
 1017BOLB   C3C24403   7.840  18.469  36.606 -0.2883 -0.1433 -0.2625
 1017BOLB   C4C24404   8.077  18.136  36.702  0.2657  0.1100 -0.1480
 1017BOLB   C1D24405   7.272  19.445  36.498 -0.1793  0.2689 -0.3448
 1017BOLB   C2D24406   7.439  19.157  36.182 -0.0566  0.0036 -0.2432
 1017BOLB   C3D24407   7.589  19.001  35.794 -0.4286  0.0563 -0.0688
 1017BOLB   C4D24408   7.540  18.801  35.415 -0.0882  0.2081 -0.1513
 1018BOLB   NC124409  22.959  17.472  18.945 -0.1202 -0.2663  0.0906
 1018BOLB   PO124410  22.744  17.146  19.216 -0.1613  0.0369  0.2215
 1018BOLB   GL124411  22.602  16.715  19.360 -0.4786 -0.2673  0.1908
 1018BOLB   GL224412  22.611  16.733  19.736  0.1400 -0.0623  0.0912
 1018BOLB   C1A24413  22.213  16.670  19.404 -0.0851  0.5456 -0.1009
 1018BOLB   C2A24414  21.960  16.416  19.410 -0.0356  0.0260 -0.0752
 1018BOLB   C3A24415  21.566  16.332  19.284 -0.0031 -0.0759  0.2002
 1018BOLB   C4A24416  21.205  16.402  19.078  0.2083  0.1348  0.0076
 1018BOLB   C1B24417  22.235  16.464  19.831 -0.1838 -0.0751 -0.2694
 1018BOLB   C2B24418  22.057  16.149  19.977 -0.1054  0.3338  0.1755
 1018BOLB   C3B24419  21.816  15.933  20.206  0.1292  0.0693 -0.0114
 1018BOLB   C4B24420  21.455  15.934  20.417  0.2321  0.1308  0.1301
 1018BOLB   NC224421  21.636  18.030  17.274  0.1747 -0.0091 -0.2344
 1018BOLB   PO224422  21.372  17.627  17.333  0.0137 -0.1873  0.0278
 1018BOLB   GL324423  21.139  17.192  17.590 -0.2374 -0.2703 -0.1779
 1018BOLB   GL424424  20.827  17.351  17.708  0.0942  0.1291 -0.0918
 1018BOLB   C1C24425  20.958  16.917  17.986  0.1926  0.0723  0.1460
 1018BOLB   C2C24426  20.617  16.911  18.342  0.0873  0.1081  0.2152
 1018BOLB   C3C24427  20.641  16.522  18.634 -0.1105  0.0331 -0.1251
 1018BOLB   C4C24428  20.823  16.432  19.064 -0.0354 -0.0026  0.1263
 1018BOLB   C1D24429  20.451  17.204  18.023 -0.0333  0.1197  0.0753
 1018BOLB   C2D24430  20.169  17.089  18.270  0.0389 -0.1320  0.1726
 1018BOLB   C3D24431  19.891  16.776  18.186  0.2025  0.1204 -0.1176
 1018BOLB   C4D24432  19.584  16.509  17.914 -0.0892 -0.1047  0.1760
 1019BOLB   NC124433  21.977  16.299  31.210 -0.2512  0.0851  0.1769
 1019BOLB   PO124434  21.829  16.645  30.930  0.2612 -0.0284 -0.4448
 1019BOLB   GL124435  22.097  17.009  30.987  0.0846 -0.0974  0.0588
 1019BOLB   GL224436  22.482  17.106  30.869 -0.2058  0.0153 -0.3923
 1019BOLB   C1A24437  22.213  17.270  31.333  0.2458 -0.0076  0.1280
 1019BOLB   C2A24438  22.589  17.429  31.501 -0.1278  0.2884 -0.0841
 1019BOLB   C3A24439  23.063  17.507  31.655  0.0575  0.0116 -0.3295
 1019BOLB   C4A24440  23.491  17.638  31.643 -0.0942  0.2379 -0.0896
 1019BOLB   C1B24441  22.556  17.452  30.610  0.0507 -0.0955 -0.0820
 1019BOLB   C2B24442  22.877  17.714  30.697 -0.0101 -0.2142  0.3400
 1019BOLB   C3B24443  23.087  18.015  30.799 -0.0775  0.0141 -0.0995
 1019BOLB   C4B24444  23.072  18.252  31.188 -0.1909 -0.0145  0.2174
 1019BOLB   NC224445  25.440  19.556  32.041  0.0113 -0.0683  0.2106
 1019BOLB   PO224446  25.490  19.102  31.944 -0.0238  0.1637 -0.5376
 1019BOLB   GL324447  25.210  18.805  31.839 -0.1047 -0.1049 -0.1809
 1019BOLB   GL424448  25.227  18.539  31.660 -0.1932 -0.2222 -0.2972
 1019BOLB   C1C24449  24.793  18.881  31.540  0.1838 -0.0948  0.1442
 1019BOLB   C2C24450  24.455  18.606  31.433  0.2020  0.0551 -0.2091
 1019BOLB   C3C24451  24.189  18.147  31.378 -0.0067 -0.1355  0.3990
 1019BOLB   C4C24452  23.914  17.823  31.435 -0.3892 -0.0963  0.2797
 1019BOLB   C1D24453  25.292  18.125  31.444  0.1450  0.0392  0.0948
 1019BOLB   C2D24454  25.085  18.037  31.177  0.0252 -0.1599  0.0413
 1019BOLB   C3D24455  24.961  17.692  30.836  0.1943 -0.0471 -0.0894
 1019BOLB   C4D24456  24.728  17.219  30.817 -0.0128 -0.0642 -0.2845
 1020BOLB   NC124457  21.053  17.198  30.708  0.0300 -0.1272 -0.0475
 1020BOLB   PO124458  20.767  17.484  30.489  0.2767  0.0049  0.3319
 1020BOLB   GL124459  21.127  17.772  30.554 -0.1565 -0.0961  0.1069
 1020BOLB   GL224460  21.289  17.888  30.827  0.1249 -0.0438  0.2386
 1020BOLB   C1A24461  21.434  18.193  30.380  0.1426  0.1133 -0.2546
 1020BOLB   C2A24462  21.820  18.343  30.260  0.1665  0.0278  0.3783
 1020BOLB   C3A24463  22.179  18.331  30.115 -0.0853  0.1532 -0.1016
 1020BOLB   C4A24464  22.674  18.343  30.245 -0.0014  0.4188 -0.2856
 1020BOLB   C1B24465  21.405  18.331  30.842 -0.0679  0.0203  0.1373
 1020BOLB   C2B24466  21.792  18.543  30.804 -0.1074  0.2049 -0.1507
 1020BOLB   C3B24467  21.926  18.951  30.810  0.1056  0.1519  0.0824
 1020BOLB   C4B24468  21.935  19.374  30.924  0.0199  0.0733 -0.2047
 1020BOLB   NC224469  23.719  20.227  31.213  0.3688  0.1037  0.0380
 1020BOLB   PO224470  24.042  19.978  31.237  0.4320  0.0957 -0.1880
 1020BOLB   GL324471  23.743  19.789  30.907 -0.1808 -0.0086  0.0430
 1020BOLB   GL424472  23.479  19.766  31.110 -0.1394 -0.2354 -0.0798
 1020BOLB   C1C24473  23.702  19.329  30.703 -0.0484  0.0096 -0.1838
 1020BOLB   C2C24474  23.733  18.948  30.472 -0.2050 -0.2314 -0.1665
 1020BOLB   C3C24475  23.521  18.537  30.394  0.2198  0.0587 -0.0591
 1020BOLB   C4C24476  23.165  18.242  30.346  0.2025 -0.1315 -0.0372
 1020BOLB   C1D24477  23.064  19.825  31.365  0.1935  0.0894  0.1619
 1020BOLB   C2D24478  22.592  19.945  31.198  0.1279  0.1227  0.1526
 1020BOLB   C3D24479  22.269  20.164  31.045  0.0140 -0.3110  0.1327
 1020BOLB   C4D24480  21.915  19.880  31.017 -0.2616 -0.0080  0.0791
 1021BOLB   NC124481  13.074  20.460  34.126 -0.0879 -0.2483 -0.1677
 1021BOLB   PO124482  13.567  20.416  34.036  0.3445 -0.3598  0.0303
 1021BOLB   GL124483  13.617  20.814  34.001  0.2944  0.0159  0.0918
 1021BOLB   GL224484  13.921  20.973  33.902 -0.1106  0.0833  0.2740
 1021BOLB   C1A24485  13.359  21.197  33.930  0.0419 -0.0856  0.3710
 1021BOLB   C2A24486  13.252  21.587  33.816 -0.5012 -0.0431  0.2574
 1021BOLB   C3A24487  13.497  22.064  33.953  0.1544  0.1736  0.2998
 1021BOLB   C4A24488  13.559  22.453  34.038  0.1673 -0.2841  0.1035
 1021BOLB   C1B24489  13.990  21.248  34.123  0.2437 -0.0410 -0.4156
 1021BOLB   C2B24490  14.100  21.422  34.508 -0.0476  0.1746  0.0038
 1021BOLB   C3B24491  14.161  21.781  34.760 -0.0908 -0.0867  0.3684
 1021BOLB   C4B24492  14.425  21.992  35.019 -0.1756 -0.1672 -0.2388
 1021BOLB   NC224493  13.972  25.030  34.842  0.1122 -0.3036  0.1712
 1021BOLB   PO224494  13.635  24.893  34.589 -0.1701 -0.0221 -0.0225
 1021BOLB   GL324495  13.593  24.437  34.460 -0.0298  0.3847 -0.0647
 1021BOLB   GL424496  13.388  24.256  34.678 -0.3457 -0.1557  0.1128
 1021BOLB   C1C24497  13.698  24.115  34.159  0.1431  0.2595  0.1572
 1021BOLB   C2C24498  13.923  23.592  34.158  0.2979 -0.1432 -0.1307
 1021BOLB   C3C24499  13.854  23.167  33.986 -0.0424 -0.2451 -0.0656
 1021BOLB   C4C24500  13.703  22.879  34.060  0.0514  0.0912  0.0257
 1021BOLB   C1D24501  13.273  23.917  34.538  0.0822 -0.1275  0.0027
 1021BOLB   C2D24502  13.394  23.695  34.238 -0.0721 -0.0090 -0.4088
 1021BOLB   C3D24503  13.395  23.358  33.897 -0.1456 -0.1103  0.0157
 1021BOLB   C4D24504  13.517  23.108  33.589  0.2195 -0.1919 -0.0752
 1022BOLB   NC124505  13.732  11.378  39.718  0.1615  0.1619 -0.0442
 1022BOLB   PO124506  13.949  11.381  40.007 -0.3537  0.1559 -0.2289
 1022BOLB   GL124507  14.063  11.295  40.309  0.1826 -0.1448  0.0090
 1022BOLB   GL224508  14.246  10.998  40.276  0.2148 -0.1862 -0.1095
 1022BOLB   C1A24509  14.051  11.308  40.755  0.0602 -0.2104 -0.2159
 1022BOLB   C2A24510  14.153  11.189  41.163 -0.2157 -0.0519 -0.0674
 1022BOLB   C3A24511  14.201  11.006  41.542  0.1493  0.1467 -0.0077
 1022BOLB   C4A24512  14.427  10.869  41.850  0.1625 -0.0075  0.2103
 1022BOLB   C1B24513  14.299  10.824  40.620 -0.3515  0.0167 -0.1120
 1022BOLB   C2B24514  14.389  10.743  41.067  0.1995 -0.2210 -0.4353
 1022BOLB   C3B24515  14.419  10.462  41.428 -0.0750 -0.2166  0.1236
 1022BOLB   C4B24516  14.740  10.097  41.420 -0.3294  0.0013 -0.0444
 1022BOLB   NC224517  13.640   8.893  43.035  0.0446  0.4585  0.4541
 1022BOLB   PO224518  13.542   9.098  43.322  0.0345  0.0863 -0.0261
 1022BOLB   GL324519  13.929   9.289  43.205 -0.0066  0.1938  0.0915
 1022BOLB   GL424520  13.949   9.285  42.858  0.0040  0.1065 -0.3194
 1022BOLB   C1C24521  14.215   9.657  43.055  0.3283  0.2081 -0.2697
 1022BOLB   C2C24522  14.281  10.098  42.808  0.0023 -0.3462 -0.1345
 1022BOLB   C3C24523  14.373  10.350  42.467  0.0418 -0.2767 -0.1014
 1022BOLB   C4C24524  14.405  10.634  42.183  0.0877 -0.1481  0.1906
 1022BOLB   C1D24525  14.272   9.473  42.457  0.5072 -0.1418 -0.0568
 1022BOLB   C2D24526  14.496   9.377  42.010  0.1784  0.2799 -0.0410
 1022BOLB   C3D24527  14.620   9.268  41.545  0.0727 -0.1008 -0.2311
 1022BOLB   C4D24528  14.958   9.154  41.219 -0.0641 -0.1244  0.2543
 1023BOLB   NC124529  25.401  14.548  19.869 -0.0581 -0.2454  0.2076
 1023BOLB   PO124530  25.161  14.530  19.371  0.5684 -0.0851 -0.1702
 1023BOLB   GL124531  24.880  14.639  19.733  0.1741  0.1234 -0.0679
 1023BOLB   GL224532  24.608  14.755  19.639 -0.0610 -0.1601 -0.1861
 1023BOLB   C1A24533  24.739  14.472  20.107  0.1747  0.2115  0.2887
 1023BOLB   C2A24534  24.453  14.206  20.426 -0.0273  0.0848  0.1211
 1023BOLB   C3A24535  24.074  14.146  20.561 -0.1290 -0.0073 -0.2782
 1023BOLB   C4A24536  23.848  13.811  20.861  0.0084 -0.0906 -0.0558
 1023BOLB   C1B24537  24.083  14.780  19.683  0.1042  0.0114 -0.2567
 1023BOLB   C2B24538  23.726  14.584  19.902 -0.1752 -0.0434 -0.2926
 1023BOLB   C3B24539  23.597  14.294  20.137  0.0884  0.5318  0.0588
 1023BOLB   C4B24540  23.399  14.049  20.461  0.1636 -0.1993  0.1666
 1023BOLB   NC224541  25.908  12.823  21.126  0.1637 -0.2015  0.2596
 1023BOLB   PO224542  25.737  12.743  20.763  0.3418 -0.0416  0.1141
 1023BOLB   GL324543  25.397  12.658  20.846 -0.0271 -0.0295 -0.1156
 1023BOLB   GL424544  25.415  12.634  21.194  0.0144  0.0770  0.0695
 1023BOLB   C1C24545  25.109  12.987  20.999 -0.0416  0.1142 -0.2131
 1023BOLB   C2C24546  24.680  13.056  21.129 -0.0674  0.0647 -0.1512
 1023BOLB   C3C24547  24.402  13.189  21.309 -0.0304  0.5248  0.0008
 1023BOLB   C4C24548  24.000  13.461  21.110 -0.1438  0.0528 -0.1325
 1023BOLB   C1D24549  25.098  12.736  21.568  0.2771  0.2070 -0.2403
 1023BOLB   C2D24550  24.562  12.785  21.577  0.4148 -0.0798  0.3057
 1023BOLB   C3D24551  24.165  12.740  21.532  0.1578 -0.1739 -0.2531
 1023BOLB   C4D24552  23.851  12.564  21.817  0.0849 -0.1348 -0.1266
 1024BOLB   NC124553  11.779   8.266  36.109  0.0929  0.1996 -0.0603
 1024BOLB   PO124554  11.664   8.430  36.378 -0.1222 -0.1154  0.1235
 1024BOLB   GL124555  11.454   8.162  36.714 -0.0224  0.2730 -0.0616
 1024BOLB   GL224556  11.272   8.460  36.708  0.2850 -0.1037 -0.0192
 1024BOLB   C1A24557  11.068   7.839  36.845  0.0605  0.0530 -0.2063
 1024BOLB   C2A24558  10.702   7.604  36.851 -0.2257  0.1122  0.0915
 1024BOLB   C3A24559  10.486   7.300  36.955  0.0896  0.0292  0.2710
 1024BOLB   C4A24560  10.377   7.130  37.377  0.4968 -0.0390  0.0378
 1024BOLB   C1B24561  10.784   8.343  37.012  0.1960  0.2286 -0.0330
 1024BOLB   C2B24562  10.621   8.042  37.102 -0.1774 -0.1952  0.3422
 1024BOLB   C3B24563  10.456   7.693  37.373  0.2166 -0.0902 -0.0123
 1024BOLB   C4B24564  10.458   7.520  37.793  0.2101  0.1040  0.1638
 1024BOLB   NC224565   8.936   6.796  39.629 -0.0227  0.1927  0.0410
 1024BOLB   PO224566   9.122   6.457  39.350 -0.2599  0.5102  0.0114
 1024BOLB   GL324567   9.585   6.531  39.212  0.2256 -0.1747  0.1403
 1024BOLB   GL424568   9.526   6.287  38.923 -0.1408 -0.0915  0.0334
 1024BOLB   C1C24569   9.899   6.772  38.982 -0.1919  0.0091  0.2196
 1024BOLB   C2C24570  10.072   6.847  38.552  0.1450  0.0039  0.1394
 1024BOLB   C3C24571  10.273   6.777  38.112  0.3784 -0.2311 -0.3717
 1024BOLB   C4C24572  10.368   6.985  37.857 -0.0494 -0.0157 -0.2334
 1024BOLB   C1D24573   9.919   6.303  38.728 -0.0951 -0.2297 -0.4685
 1024BOLB   C2D24574  10.183   6.192  38.453 -0.1178  0.1260 -0.0375
 1024BOLB   C3D24575  10.501   6.288  38.150 -0.0319 -0.0228  0.4042
 1024BOLB   C4D24576  10.869   6.178  38.148 -0.1642  0.0054  0.3703
 1025BOLB   NC124577  10.300  12.093  37.375 -0.2959  0.1633 -0.4299
 1025BOLB   PO124578   9.942  11.722  37.432 -0.3049 -0.0087  0.0760
 1025BOLB   GL124579   9.713  11.638  37.772 -0.1680 -0.1285 -0.1497
 1025BOLB   GL224580   9.843  11.783  37.945 -0.0891  0.1432 -0.0239
 1025BOLB   C1A24581   9.320  11.619  37.790 -0.0437 -0.2943  0.3033
 1025BOLB   C2A24582   9.026  11.533  38.173  0.0406 -0.2598 -0.0670
 1025BOLB   C3A24583   8.671  11.473  38.285 -0.1900 -0.1655 -0.1371
 1025BOLB   C4A24584   8.594  11.113  38.440 -0.0103 -0.3965  0.0890
 1025BOLB   C1B24585   9.546  11.674  38.230 -0.0310 -0.1346  0.2362
 1025BOLB   C2B24586   9.413  11.704  38.595  0.0640  0.0339  0.0358
 1025BOLB   C3B24587   9.378  11.639  39.001  0.3075 -0.2062 -0.2854
 1025BOLB   C4B24588   9.081  11.616  39.397 -0.1986  0.1959  0.1652
 1025BOLB   NC224589   6.947  10.355  39.881  0.1816  0.0467  0.0555
 1025BOLB   PO224590   7.018  10.734  40.233 -0.0814  0.0283 -0.4570
 1025BOLB   GL324591   7.304  10.888  39.962  0.0878 -0.0038  0.1422
 1025BOLB   GL424592   7.611  10.945  40.130  0.1645 -0.1022 -0.3428
 1025BOLB   C1C24593   7.545  11.068  39.647 -0.0835 -0.2145 -0.1843
 1025BOLB   C2C24594   7.843  11.029  39.374 -0.0216  0.1564  0.0601
 1025BOLB   C3C24595   8.207  11.014  39.048 -0.0509 -0.0810 -0.1172
 1025BOLB   C4C24596   8.442  10.901  38.695  0.0094 -0.1103  0.0320
 1025BOLB   C1D24597   7.948  10.855  39.868 -0.0442  0.0810  0.0754
 1025BOLB   C2D24598   8.036  10.486  39.651 -0.3416 -0.0687  0.0673
 1025BOLB   C3D24599   8.418  10.153  39.724  0.0789 -0.0671 -0.0364
 1025BOLB   C4D24600   8.669   9.778  39.624 -0.1794  0.0374 -0.0750
 1026BOLB   NC124601   4.203   8.690  32.061  0.0764 -0.1027 -0.1065
 1026BOLB   PO124602   4.311   8.252  31.951 -0.2004 -0.1497 -0.0385
 1026BOLB   GL124603   4.479   8.627  31.660  0.1137  0.3913 -0.1431
 1026BOLB   GL224604   4.695   8.703  31.427 -0.1505  0.0281 -0.4158
 1026BOLB   C1A24605   4.745   8.906  31.881  0.0014  0.0463 -0.0231
 1026BOLB   C2A24606   5.112   9.176  31.970 -0.1202 -0.3510 -0.0552
 1026BOLB   C3A24607   5.636   9.262  31.913 -0.2740  0.2801  0.0724
 1026BOLB   C4A24608   5.866   8.991  31.639 -0.1785 -0.1529  0.0930
 1026BOLB   C1B24609   5.080   8.632  31.480 -0.1995  0.1782 -0.0827
 1026BOLB   C2B24610   5.378   8.814  31.679 -0.1114 -0.2353  0.0743
 1026BOLB   C3B24611   5.626   8.715  32.025 -0.0393  0.0231  0.1051
 1026BOLB   C4B24612   5.621   8.623  32.498 -0.3004 -0.3197  0.0700
 1026BOLB   NC224613   4.527   7.720  32.164  0.1414 -0.2920  0.1502
 1026BOLB   PO224614   4.832   7.363  32.300 -0.1870  0.1430  0.2184
 1026BOLB   GL324615   5.217   7.458  32.022 -0.0209  0.1680 -0.0732
 1026BOLB   GL424616   5.314   7.595  31.708  0.1447 -0.0228 -0.0748
 1026BOLB   C1C24617   5.560   7.734  32.290 -0.2395 -0.3066  0.1242
 1026BOLB   C2C24618   5.724   8.148  32.209  0.3856  0.2533 -0.0325
 1026BOLB   C3C24619   6.046   8.392  32.120 -0.0561  0.2404 -0.0723
 1026BOLB   C4C24620   6.173   8.717  31.750 -0.1210  0.0015 -0.1055
 1026BOLB   C1D24621   5.640   7.964  31.702  0.1815  0.1552  0.2821
 1026BOLB   C2D24622   6.043   8.120  31.692 -0.1718  0.0160 -0.1191
 1026BOLB   C3D24623   6.346   8.333  31.472 -0.1848 -0.1033  0.3475
 1026BOLB   C4D24624   6.624   8.446  31.160  0.0638 -0.0755 -0.2813
 1027BOLB   NC124625  18.255  18.855  36.168 -0.0900  0.2972  0.0069
 1027BOLB   PO124626  17.826  18.696  36.229  0.2888  0.1617 -0.2331
 1027BOLB   GL124627  17.830  19.161  36.321 -0.1688  0.1611 -0.2499
 1027BOLB   GL224628  18.118  19.308  36.083 -0.1670  0.1759  0.0017
 1027BOLB   C1A24629  17.897  19.342  36.740  0.2931  0.0697  0.2246
 1027BOLB   C2A24630  17.913  19.832  36.854 -0.1872  0.0838  0.0690
 1027BOLB   C3A24631  18.179  20.091  37.159  0.1710 -0.1532 -0.6643
 1027BOLB   C4A24632  18.397  20.385  37.451 -0.0491 -0.2644 -0.0653
 1027BOLB   C1B24633  18.616  19.418  36.209 -0.0766 -0.3327  0.0995
 1027BOLB   C2B24634  18.801  19.787  36.382 -0.2337  0.0068 -0.0695
 1027BOLB   C3B24635  18.943  20.123  36.711  0.1315  0.0229  0.2011
 1027BOLB   C4B24636  19.380  20.249  36.723  0.0824  0.0028 -0.2493
 1027BOLB   NC224637  18.998  21.997  38.918  0.0219  0.2267  0.0145
 1027BOLB   PO224638  18.672  22.309  38.739  0.2608  0.3030  0.0288
 1027BOLB   GL324639  18.739  21.930  38.490 -0.0927 -0.2306  0.1240
 1027BOLB   GL424640  18.613  22.056  38.259  0.0297  0.1907 -0.0097
 1027BOLB   C1C24641  18.648  21.442  38.551 -0.2954 -0.0397 -0.2959
 1027BOLB   C2C24642  18.924  21.046  38.462  0.1811 -0.0918  0.0463
 1027BOLB   C3C24643  18.830  20.841  38.089 -0.4030  0.1109 -0.1968
 1027BOLB   C4C24644  18.578  20.753  37.799 -0.2354 -0.0037 -0.0776
 1027BOLB   C1D24645  18.267  21.731  38.147 -0.1998 -0.0098 -0.0848
 1027BOLB   C2D24646  17.869  21.384  38.150 -0.1250  0.0733  0.3363
 1027BOLB   C3D24647  17.415  21.257  38.067  0.0891 -0.2864  0.0893
 1027BOLB   C4D24648  17.185  20.845  37.962  0.1360  0.2671 -0.3249
 1028BOLB   NC124649  19.354  10.293  14.612 -0.0786 -0.0299  0.1829
 1028BOLB   PO124650  19.492  10.407  15.055  0.4236  0.0025  0.1192
 1028BOLB   GL124651  19.258  10.665  15.460  0.0407 -0.2293 -0.2402
 1028BOLB   GL224652  18.972  10.876  15.604 -0.2309  0.3062  0.1866
 1028BOLB   C1A24653  19.149  10.474  15.824  0.0880  0.1158 -0.0874
 1028BOLB   C2A24654  18.968  10.132  16.222 -0.1803  0.0461  0.0821
 1028BOLB   C3A24655  18.679   9.955  16.216  0.0296 -0.0356  0.0209
 1028BOLB   C4A24656  18.345   9.781  16.423  0.1162  0.4186  0.1748
 1028BOLB   C1B24657  19.060  11.065  16.032  0.1956 -0.0247  0.0650
 1028BOLB   C2B24658  19.238  11.194  16.486  0.0617  0.1143 -0.1642
 1028BOLB   C3B24659  19.394  11.080  16.894  0.0169  0.0411 -0.3049
 1028BOLB   C4B24660  19.636  11.121  17.255 -0.0505 -0.3075  0.5285
 1028BOLB   NC224661  16.830   7.833  16.214 -0.3279  0.0340 -0.2060
 1028BOLB   PO224662  16.935   8.199  15.895 -0.0317 -0.2261  0.0060
 1028BOLB   GL324663  16.901   8.608  16.077  0.2088  0.2531 -0.3811
 1028BOLB   GL424664  16.622   8.801  16.099 -0.0389 -0.0061 -0.0346
 1028BOLB   C1C24665  17.070   8.912  16.447 -0.1967 -0.0955 -0.1073
 1028BOLB   C2C24666  17.367   9.063  16.718  0.4005 -0.1225 -0.1991
 1028BOLB   C3C24667  17.602   9.375  16.798  0.0333 -0.2579 -0.0685
 1028BOLB   C4C24668  17.859   9.636  16.581  0.3027 -0.4424  0.0412
 1028BOLB   C1D24669  16.638   8.546  16.635 -0.1485  0.0210  0.1780
 1028BOLB   C2D24670  16.527   8.443  17.033  0.1797 -0.1183 -0.2277
 1028BOLB   C3D24671  16.345   8.254  17.189  0.2805 -0.1752 -0.0678
 1028BOLB   C4D24672  16.365   7.999  17.446 -0.0257  0.0282 -0.0698
 1029BOLB   NC124673  18.240   4.616  28.831 -0.1973  0.0569 -0.4217
 1029BOLB   PO124674  18.454   4.271  28.592  0.1572  0.0491 -0.0411
 1029BOLB   GL124675  18.509   3.847  28.679 -0.0829 -0.0149 -0.0602
 1029BOLB   GL224676  18.599   3.668  28.493 -0.1764 -0.1895 -0.0803
 1029BOLB   C1A24677  18.533   3.353  28.855 -0.1138 -0.1246 -0.1921
 1029BOLB   C2A24678  18.625   2.917  28.848  0.1787 -0.0631 -0.0529
 1029BOLB   C3A24679  18.536   2.557  29.030  0.0684  0.0499  0.2315
 1029BOLB   C4A24680  18.320   2.242  29.262 -0.3273 -0.3404 -0.0045
 1029BOLB   C1B24681  18.833   3.292  28.475 -0.1495 -0.1823  0.1129
 1029BOLB   C2B24682  19.084   2.953  28.704 -0.3934 -0.0654  0.3084
 1029BOLB   C3B24683  19.154   2.570  28.680 -0.2576 -0.1442 -0.0621
 1029BOLB   C4B24684  19.493   2.346  28.500 -0.0174  0.1570  0.2274
 1029BOLB   NC224685  18.767   0.161  29.676 -0.0125 -0.0586  0.1879
 1029BOLB   PO224686  18.880  26.981  30.082 -0.2392  0.1392 -0.0958
 1029BOLB   GL324687  18.685   0.376  30.115  0.3515  0.1132 -0.2172
 1029BOLB   GL424688  18.748   0.679  30.303  0.3189 -0.0722 -0.1436
 1029BOLB   C1C24689  18.485   0.781  29.928 -0.3150 -0.4926 -0.0756
 1029BOLB   C2C24690  18.559   1.127  29.535  0.1285 -0.0254 -0.0920
 1029BOLB   C3C24691  18.525   1.472  29.313  0.3493  0.3205  0.0511
 1029BOLB   C4C24692  18.272   1.831  29.355 -0.3122 -0.4274 -0.1647
 1029BOLB   C1D24693  19.001   0.993  30.424 -0.1602 -0.1445  0.0033
 1029BOLB   C2D24694  19.003   1.306  30.673  0.2682  0.4612 -0.1244
 1029BOLB   C3D24695  18.895   1.741  30.541 -0.0886 -0.0517 -0.2993
 1029BOLB   C4D24696  18.639   2.111  30.469  0.2179 -0.2176  0.3209
 1030BOLB   NC124697  20.355   5.052  30.944 -0.1320  0.0473  0.1648
 1030BOLB   PO124698  20.048   4.742  30.891 -0.0542 -0.3606  0.0759
 1030BOLB   GL124699  20.410   4.504  30.965  0.4167 -0.0395 -0.3169
 1030BOLB   GL224700  20.453   4.198  30.809  0.2054  0.4480 -0.1090
 1030BOLB   C1A24701  20.816   4.472  30.939  0.2221  0.1665 -0.2581
 1030BOLB   C2A24702  21.241   4.368  30.966 -0.1298 -0.1793 -0.0316
 1030BOLB   C3A24703  21.418   4.070  30.747 -0.4574  0.1521 -0.3313
 1030BOLB   C4A24704  21.343   3.661  30.742 -0.2527 -0.0255  0.0968
 1030BOLB   C1B24705  20.860   3.834  30.782 -0.0799  0.0436 -0.3662
 1030BOLB   C2B24706  21.004   3.545  31.105 -0.2309  0.0112 -0.0913
 1030BOLB   C3B24707  21.093   3.189  31.184 -0.1861 -0.0866 -0.0675
 1030BOLB   C4B24708  21.322   2.903  30.987  0.0679  0.0658 -0.1305
 1030BOLB   NC224709  21.598   0.935  30.449 -0.0606 -0.3853 -0.0190
 1030BOLB   PO224710  21.513   1.059  30.805 -0.0742  0.1062  0.3862
 1030BOLB   GL324711  21.477   1.532  30.825 -0.1373  0.0768  0.4999
 1030BOLB   GL424712  21.147   1.786  31.088  0.0617  0.0761  0.2677
 1030BOLB   C1C24713  21.464   1.980  30.656 -0.0729 -0.2301  0.1771
 1030BOLB   C2C24714  21.407   2.357  30.718  0.3983  0.2385 -0.3252
 1030BOLB   C3C24715  21.292   2.821  30.507  0.1630 -0.2221  0.1542
 1030BOLB   C4C24716  21.260   3.302  30.514  0.3844 -0.1898 -0.3428
 1030BOLB   C1D24717  21.604   1.986  31.112  0.1211 -0.0086  0.1321
 1030BOLB   C2D24718  21.693   2.411  31.141  0.1290 -0.2640 -0.1312
 1030BOLB   C3D24719  21.851   2.831  31.198  0.3385 -0.0320 -0.0800
 1030BOLB   C4D24720  21.610   3.214  31.215  0.0937 -0.1158  0.1103
 1031BOLB   NC124721  12.356  22.454  20.825  0.1936 -0.2026  0.0104
 1031BOLB   PO124722  12.690  22.740  20.931  0.1833 -0.0910  0.1942
 1031BOLB   GL124723  12.854  22.436  21.206 -0.0452 -0.0518 -0.0242
 1031BOLB   GL224724  12.702  22.151  21.159 -0.0072  0.0521  0.1812
 1031BOLB   C1A24725  13.067  22.182  21.510  0.2753 -0.0130  0.1522
 1031BOLB   C2A24726  13.273  21.990  21.845  0.4227  0.3201  0.1656
 1031BOLB   C3A24727  13.542  22.103  22.310 -0.2078  0.2190 -0.1836
 1031BOLB   C4A24728  13.628  22.145  22.729  0.0064  0.2025 -0.1162
 1031BOLB   C1B24729  13.069  21.905  21.118  0.1955  0.3670 -0.1173
 1031BOLB   C2B24730  13.302  21.590  21.012  0.1434  0.4484 -0.1799
 1031BOLB   C3B24731  13.230  21.265  21.227 -0.1733  0.1520 -0.0822
 1031BOLB   C4B24732  13.434  20.996  21.560 -0.4124 -0.0988 -0.2202
 1031BOLB   NC224733  13.473  19.910  24.447  0.0043 -0.1560 -0.1993
 1031BOLB   PO224734  13.673  19.963  24.058 -0.1446  0.2644  0.0891
 1031BOLB   GL324735  13.503  20.400  23.902  0.0555  0.0692 -0.2737
 1031BOLB   GL424736  13.437  20.478  23.506  0.1000 -0.4554  0.0560
 1031BOLB   C1C24737  13.267  20.928  23.743  0.0484 -0.1941  0.0562
 1031BOLB   C2C24738  13.227  21.243  23.477  0.0472 -0.5079  0.0798
 1031BOLB   C3C24739  13.480  21.500  23.269  0.4923  0.2419  0.1368
 1031BOLB   C4C24740  13.410  21.892  23.053 -0.0830 -0.0869 -0.0315
 1031BOLB   C1D24741  13.198  20.621  23.236  0.2812 -0.3198 -0.0750
 1031BOLB   C2D24742  13.193  21.012  23.000  0.0991  0.0387 -0.1284
 1031BOLB   C3D24743  13.247  21.351  22.794 -0.1549 -0.1167  0.1135
 1031BOLB   C4D24744  13.088  21.729  22.491 -0.0797 -0.3559 -0.1600
 1032BOLB   NC124745  12.066  20.669  27.128 -0.0282  0.0618 -0.2437
 1032BOLB   PO124746  11.931  20.596  26.739 -0.0237 -0.1069  0.0989
 1032BOLB   GL124747  11.502  20.899  26.793 -0.0503  0.0454  0.0131
 1032BOLB   GL224748  11.670  21.022  27.029  0.0833 -0.0801  0.3860
 1032BOLB   C1A24749  11.341  21.288  26.618 -0.1930  0.0750 -0.0420
 1032BOLB   C2A24750  11.487  21.595  26.348  0.0549  0.0404  0.1917
 1032BOLB   C3A24751  11.213  21.855  26.072 -0.0172  0.1953 -0.1202
 1032BOLB   C4A24752  11.015  22.155  25.922 -0.4039  0.1099  0.0093
 1032BOLB   C1B24753  11.844  21.316  26.680 -0.1611  0.2670  0.0498
 1032BOLB   C2B24754  11.928  21.701  26.507 -0.2394 -0.0166  0.3093
 1032BOLB   C3B24755  12.146  22.123  26.636 -0.2204  0.2373  0.3922
 1032BOLB   C4B24756  12.232  22.505  26.734  0.2708 -0.3179 -0.1843
 1032BOLB   NC224757  11.043  24.491  24.892 -0.0190 -0.2188  0.0335
 1032BOLB   PO224758  10.748  24.286  25.268 -0.0373 -0.0340 -0.1771
 1032BOLB   GL324759  10.670  23.939  25.550 -0.2350 -0.2520 -0.2158
 1032BOLB   GL424760  10.801  23.955  25.916 -0.0595  0.0964  0.0346
 1032BOLB   C1C24761  10.666  23.485  25.591 -0.2202  0.0981  0.0762
 1032BOLB   C2C24762  10.710  23.133  25.381  0.2326  0.2697 -0.1351
 1032BOLB   C3C24763  10.806  22.723  25.463 -0.1888 -0.1430  0.1647
 1032BOLB   C4C24764  11.011  22.589  25.819 -0.1017  0.4558 -0.1121
 1032BOLB   C1D24765  11.143  23.825  26.039 -0.0266  0.0290  0.1643
 1032BOLB   C2D24766  11.379  23.562  26.420 -0.1324  0.1787 -0.0568
 1032BOLB   C3D24767  11.148  23.282  26.748 -0.2098  0.2103  0.1488
 1032BOLB   C4D24768  10.914  23.166  27.042 -0.1976  0.0855 -0.1246
 1033BOLB   NC124769  14.685  18.709  36.491 -0.3561 -0.0193  0.0877
 1033BOLB   PO124770  14.522  18.521  36.794  0.0961 -0.3357 -0.0924
 1033BOLB   GL124771  14.640  18.866  37.169  0.1254  0.3432  0.1597
 1033BOLB   GL224772  14.421  19.156  37.131 -0.1973 -0.2460 -0.1228
 1033BOLB   C1A24773  14.929  19.096  37.588  0.2123 -0.0253  0.1413
 1033BOLB   C2A24774  14.607  19.428  37.830  0.0104  0.0582 -0.0927
 1033BOLB   C3A24775  14.738  19.680  38.140 -0.3677  0.3739  0.0846
 1033BOLB   C4A24776  14.542  19.783  38.562 -0.1966  0.0867 -0.4175
 1033BOLB   C1B24777  14.473  19.402  37.361 -0.0523 -0.2494  0.3074
 1033BOLB   C2B24778  14.414  19.788  37.544 -0.1076  0.0576  0.2355
 1033BOLB   C3B24779  14.332  19.976  37.940  0.3936 -0.2110  0.2376
 1033BOLB   C4B24780  14.311  20.443  37.892 -0.1873 -0.0855 -0.0125
 1033BOLB   NC224781  14.391  22.303  39.874 -0.0704 -0.0139  0.1359
 1033BOLB   PO224782  14.503  21.944  39.704  0.2053  0.1289 -0.1883
 1033BOLB   GL324783  14.725  21.551  39.573 -0.3077  0.0508 -0.1391
 1033BOLB   GL424784  14.440  21.573  39.325 -0.2347  0.1722 -0.0560
 1033BOLB   C1C24785  14.667  21.057  39.578  0.1370 -0.2050  0.2795
 1033BOLB   C2C24786  14.542  20.755  39.342  0.0181  0.3577 -0.0424
 1033BOLB   C3C24787  14.599  20.278  39.079  0.2107 -0.4104 -0.2148
 1033BOLB   C4C24788  14.606  19.921  38.812 -0.3266 -0.1302 -0.1719
 1033BOLB   C1D24789  14.631  21.288  39.073 -0.0959  0.0887  0.0471
 1033BOLB   C2D24790  14.753  20.812  38.866 -0.0617  0.0454 -0.0587
 1033BOLB   C3D24791  14.845  20.435  38.689  0.4666 -0.0664 -0.0175
 1033BOLB   C4D24792  15.019  20.046  38.588 -0.0899 -0.0827  0.1971
 1034BOLB   NC124793   8.627  17.233  28.056  0.0044  0.0446 -0.1678
 1034BOLB   PO124794   8.419  16.859  28.182 -0.0003 -0.1143 -0.1597
 1034BOLB   GL124795   7.933  17.032  28.179  0.2734 -0.1901  0.2278
 1034BOLB   GL224796   7.759  16.863  27.969 -0.1001  0.1535 -0.1177
 1034BOLB   C1A24797   7.750  17.375  28.302 -0.0564 -0.4023  0.3326
 1034BOLB   C2A24798   7.438  17.694  28.289 -0.0339  0.1332  0.0313
 1034BOLB   C3A24799   7.088  17.703  28.399 -0.3614  0.3313 -0.0966
 1034BOLB   C4A24800   6.689  17.668  28.432  0.0865 -0.1231  0.1515
 1034BOLB   C1B24801   7.476  17.125  27.885 -0.0092 -0.4987 -0.3701
 1034BOLB   C2B24802   6.928  17.101  27.807 -0.1972  0.1510 -0.0851
 1034BOLB   C3B24803   6.521  16.868  27.668 -0.2899 -0.1301  0.2338
 1034BOLB   C4B24804   6.270  16.817  27.258 -0.0516  0.2158  0.4697
 1034BOLB   NC224805   3.819  17.997  28.183  0.2123 -0.1808  0.0893
 1034BOLB   PO224806   4.229  18.186  28.027  0.1510  0.0609  0.0745
 1034BOLB   GL324807   4.612  18.217  27.912  0.0501 -0.3391 -0.6666
 1034BOLB   GL424808   4.666  17.900  27.946  0.2722 -0.1353 -0.2254
 1034BOLB   C1C24809   5.090  18.079  27.838 -0.1710 -0.0971  0.0257
 1034BOLB   C2C24810   5.547  18.050  27.940  0.0068 -0.0457  0.2633
 1034BOLB   C3C24811   5.928  17.802  28.036 -0.1407 -0.0537 -0.1300
 1034BOLB   C4C24812   6.268  17.682  28.338  0.1670  0.2286 -0.2752
 1034BOLB   C1D24813   4.947  17.564  27.986 -0.1465 -0.2441 -0.1254
 1034BOLB   C2D24814   5.061  17.292  27.730 -0.1493  0.0676  0.0445
 1034BOLB   C3D24815   5.449  17.165  27.431  0.1467 -0.2412  0.0420
 1034BOLB   C4D24816   5.574  16.968  27.028 -0.0286  0.2086  0.0789
 1035BOLB   NC124817  22.139   6.588  28.643 -0.1319 -0.0972 -0.4383
 1035BOLB   PO124818  22.089   6.983  28.981  0.0944  0.0349  0.0556
 1035BOLB   GL124819  22.546   6.855  29.023  0.0521  0.2639 -0.0798
 1035BOLB   GL224820  22.403   6.847  29.324 -0.0292 -0.1733  0.0595
 1035BOLB   C1A24821  22.981   6.607  29.020 -0.0094 -0.4082  0.1703
 1035BOLB   C2A24822  23.242   6.233  29.217 -0.1867 -0.0826 -0.0517
 1035BOLB   C3A24823  23.750   6.271  29.218  0.4232  0.2182  0.2964
 1035BOLB   C4A24824  24.197   6.420  29.123 -0.2155 -0.1036 -0.1809
 1035BOLB   C1B24825  22.642   6.499  29.370  0.1548 -0.3867  0.0417
 1035BOLB   C2B24826  22.830   6.090  29.435 -0.2340  0.0245 -0.0157
 1035BOLB   C3B24827  23.052   5.698  29.421  0.1302  0.0273  0.2766
 1035BOLB   C4B24828  23.065   5.289  29.628  0.1656  0.2059  0.2616
 1035BOLB   NC224829  26.632   5.388  28.594 -0.0507  0.0905  0.0749
 1035BOLB   PO224830  26.270   5.634  28.712 -0.3631 -0.1093 -0.2025
 1035BOLB   GL324831  25.799   5.518  28.682 -0.1340 -0.4386  0.2275
 1035BOLB   GL424832  25.658   5.217  28.468 -0.2101 -0.2142 -0.1669
 1035BOLB   C1C24833  25.444   5.616  28.744  0.2362  0.1998 -0.1305
 1035BOLB   C2C24834  25.145   5.810  28.923 -0.1140 -0.0676 -0.4248
 1035BOLB   C3C24835  24.862   6.066  28.686 -0.2612  0.0035  0.2088
 1035BOLB   C4C24836  24.508   6.267  28.887 -0.0144 -0.2685  0.0409
 1035BOLB   C1D24837  25.234   5.167  28.724 -0.2013 -0.1169  0.1457
 1035BOLB   C2D24838  24.893   5.322  29.016 -0.0384  0.2504  0.0579
 1035BOLB   C3D24839  24.447   5.364  29.081 -0.0292 -0.1038  0.1617
 1035BOLB   C4D24840  23.912   5.420  29.035  0.4401 -0.1561  0.0004
 1036BOLB   NC124841  18.388   8.414  20.985 -0.2142  0.0650 -0.2130
 1036BOLB   PO124842  18.399   8.538  20.584  0.4876 -0.1398  0.0273
 1036BOLB   GL124843  18.361   8.374  20.053  0.3454  0.1508 -0.0954
 1036BOLB   GL224844  18.318   8.575  19.842 -0.0103  0.5369 -0.1043
 1036BOLB   C1A24845  18.402   8.158  19.634 -0.3336 -0.4174 -0.2456
 1036BOLB   C2A24846  18.506   7.850  19.322  0.1488 -0.0246  0.0756
 1036BOLB   C3A24847  18.244   7.653  19.096 -0.0407 -0.2986  0.0155
 1036BOLB   C4A24848  18.281   7.309  18.826  0.0645  0.2362 -0.2403
 1036BOLB   C1B24849  18.244   8.618  19.431  0.1786 -0.3070  0.0942
 1036BOLB   C2B24850  18.225   8.336  19.149 -0.1089  0.0874  0.5145
 1036BOLB   C3B24851  17.946   8.160  18.764 -0.1240 -0.1045 -0.1476
 1036BOLB   C4B24852  17.759   8.100  18.494 -0.0269  0.2221  0.0125
 1036BOLB   NC224853  18.721   6.257  16.823  0.0210 -0.0119  0.2676
 1036BOLB   PO224854  18.518   6.557  16.562 -0.4197 -0.0040 -0.1173
 1036BOLB   GL324855  18.702   6.724  16.913 -0.4530 -0.3230 -0.0044
 1036BOLB   GL424856  19.075   6.932  16.939 -0.2414 -0.1156  0.0453
 1036BOLB   C1C24857  18.467   6.664  17.409 -0.3568  0.1404 -0.2450
 1036BOLB   C2C24858  18.321   6.789  17.768 -0.0022  0.2088 -0.3086
 1036BOLB   C3C24859  18.428   6.992  18.113  0.1817  0.1281  0.3207
 1036BOLB   C4C24860  18.365   7.209  18.453 -0.3575 -0.0165 -0.0652
 1036BOLB   C1D24861  19.139   7.249  17.237 -0.1556  0.0683  0.1002
 1036BOLB   C2D24862  19.472   7.456  17.412 -0.0737 -0.1577 -0.0694
 1036BOLB   C3D24863  19.910   7.486  17.374 -0.0466 -0.2748 -0.4444
 1036BOLB   C4D24864  20.291   7.561  17.477 -0.0885 -0.0438 -0.3654
 1037BOLB   NC124865  10.170  15.938  24.697 -0.0437 -0.0504  0.0596
 1037BOLB   PO124866  10.130  15.978  24.324  0.0185 -0.2836  0.0155
 1037BOLB   GL124867   9.759  16.040  24.188  0.2059 -0.2271  0.1704
 1037BOLB   GL224868   9.651  16.307  24.305  0.1760  0.1785 -0.0163
 1037BOLB   C1A24869   9.490  15.733  24.053  0.1695  0.1683 -0.1266
 1037BOLB   C2A24870   9.301  15.436  23.706  0.1360  0.0933 -0.2834
 1037BOLB   C3A24871   8.853  15.492  23.627  0.2076  0.2426 -0.3858
 1037BOLB   C4A24872   8.496  15.483  23.466  0.1516  0.1209 -0.2908
 1037BOLB   C1B24873   9.329  16.228  23.944  0.0274  0.0386  0.1063
 1037BOLB   C2B24874   9.028  16.076  23.670  0.3846  0.2142 -0.1035
 1037BOLB   C3B24875   8.673  15.974  23.484 -0.3112 -0.1583 -0.1546
 1037BOLB   C4B24876   8.569  15.934  23.068 -0.3802 -0.1362  0.0302
 1037BOLB   NC224877   6.741  15.934  21.683  0.2536 -0.0194 -0.1027
 1037BOLB   PO224878   6.736  16.324  21.718 -0.1434  0.0701 -0.1318
 1037BOLB   GL324879   7.178  16.081  21.907 -0.0152 -0.1861  0.1550
 1037BOLB   GL424880   7.007  15.795  22.143 -0.0065  0.2250 -0.3216
 1037BOLB   C1C24881   7.566  16.069  22.157  0.2650 -0.1815 -0.5733
 1037BOLB   C2C24882   7.840  15.979  22.447  0.1852 -0.4861  0.2659
 1037BOLB   C3C24883   8.018  15.928  22.893 -0.1981 -0.6222 -0.1462
 1037BOLB   C4C24884   8.166  15.665  23.221 -0.1220 -0.0930  0.0557
 1037BOLB   C1D24885   7.107  15.404  22.380 -0.2186 -0.0641  0.2215
 1037BOLB   C2D24886   7.274  15.337  22.790 -0.2041  0.1988  0.1238
 1037BOLB   C3D24887   7.773  15.298  22.952 -0.5632 -0.0919 -0.1022
 1037BOLB   C4D24888   8.165  15.155  23.028 -0.0086 -0.0101  0.1144
 1038BOLB   NC124889  17.016   9.997  39.384 -0.0419 -0.3267  0.3591
 1038BOLB   PO124890  16.807   9.657  39.701 -0.0075  0.1483  0.2423
 1038BOLB   GL124891  16.658   9.574  40.163  0.0353 -0.0778 -0.1448
 1038BOLB   GL224892  16.575   9.866  40.317  0.1541  0.3703 -0.0297
 1038BOLB   C1A24893  16.749   9.475  40.555  0.4926 -0.2298 -0.2293
 1038BOLB   C2A24894  16.688   9.662  41.103 -0.1255  0.1893 -0.1651
 1038BOLB   C3A24895  16.813   9.941  41.463 -0.3435  0.0700 -0.1285
 1038BOLB   C4A24896  16.649  10.246  41.824 -0.2132 -0.0758  0.2290
 1038BOLB   C1B24897  16.849   9.974  40.622 -0.1120  0.0002 -0.0761
 1038BOLB   C2B24898  17.028  10.129  40.992 -0.1403  0.3821 -0.2501
 1038BOLB   C3B24899  16.947  10.438  41.245  0.0652  0.1626 -0.2395
 1038BOLB   C4B24900  17.071  10.473  41.679 -0.0581 -0.1035  0.0290
 1038BOLB   NC224901  17.013  10.729  44.479 -0.1047 -0.0546  0.0279
 1038BOLB   PO224902  17.036  10.977  44.049  0.0377  0.1305  0.2196
 1038BOLB   GL324903  16.786  10.850  43.731 -0.0807 -0.2285 -0.1218
 1038BOLB   GL424904  16.978  10.553  43.577 -0.1709  0.0609 -0.1213
 1038BOLB   C1C24905  16.653  10.784  43.288 -0.1055 -0.0305 -0.0041
 1038BOLB   C2C24906  16.788  10.683  42.971  0.0987 -0.0953 -0.0179
 1038BOLB   C3C24907  16.760  10.449  42.648 -0.1319  0.4069 -0.0406
 1038BOLB   C4C24908  16.888  10.392  42.192  0.1000 -0.1543  0.2894
 1038BOLB   C1D24909  17.189  10.873  43.312  0.0307 -0.1642 -0.0174
 1038BOLB   C2D24910  17.316  10.935  42.922  0.0992  0.2066 -0.0447
 1038BOLB   C3D24911  17.368  10.991  42.504  0.0017  0.1801  0.0495
 1038BOLB   C4D24912  17.264  11.378  42.305  0.5191  0.2158  0.0068
 1039BOLB   NC124913   7.535   3.504  29.887  0.3508  0.3042  0.1020
 1039BOLB   PO124914   7.803   3.156  29.617  0.0136  0.0922  0.3158
 1039BOLB   GL124915   7.706   3.636  29.442  0.0146  0.1938 -0.2308
 1039BOLB   GL224916   7.994   3.792  29.362 -0.2798 -0.2580 -0.2989
 1039BOLB   C1A24917   7.669   4.109  29.319 -0.1447  0.0491 -0.0626
 1039BOLB   C2A24918   7.925   4.518  29.162  0.3241  0.0188  0.0402
 1039BOLB   C3A24919   8.181   4.618  28.810  0.0464  0.3702 -0.2482
 1039BOLB   C4A24920   8.292   4.991  28.665 -0.0989  0.2421 -0.1997
 1039BOLB   C1B24921   8.176   4.217  29.501 -0.0393 -0.1093  0.1305
 1039BOLB   C2B24922   8.509   4.389  29.396 -0.1390  0.5559  0.1044
 1039BOLB   C3B24923   8.714   4.786  29.431  0.0109  0.1676 -0.1728
 1039BOLB   C4B24924   8.813   5.051  29.734  0.4997  0.1262 -0.1028
 1039BOLB   NC224925  11.222   6.230  28.345  0.3287 -0.3332 -0.0147
 1039BOLB   PO224926  10.777   6.334  28.439 -0.0478  0.2794 -0.0510
 1039BOLB   GL324927  10.378   6.123  28.626  0.0533  0.1753  0.1055
 1039BOLB   GL424928  10.453   5.753  28.731 -0.2265  0.0957  0.0764
 1039BOLB   C1C24929   9.948   5.925  28.667  0.2585  0.1315  0.1074
 1039BOLB   C2C24930   9.478   5.711  28.765 -0.0667  0.0735 -0.1937
 1039BOLB   C3C24931   9.090   5.520  28.679 -0.0227  0.0877  0.0207
 1039BOLB   C4C24932   8.651   5.287  28.586 -0.1825 -0.1379  0.0913
 1039BOLB   C1D24933  10.081   5.412  28.746 -0.1849 -0.0803  0.1506
 1039BOLB   C2D24934   9.893   5.107  28.920 -0.0941 -0.5275  0.4165
 1039BOLB   C3D24935   9.611   4.824  29.047  0.0777 -0.1233 -0.1797
 1039BOLB   C4D24936   9.304   4.813  29.217  0.2141  0.0374  0.0321
 1040BOLB   NC124937  22.007  13.894  22.753  0.0681  0.0683  0.2506
 1040BOLB   PO124938  22.008  13.847  23.150  0.1939 -0.0137 -0.0082
 1040BOLB   GL124939  22.442  13.873  22.991 -0.2065  0.1879  0.0625
 1040BOLB   GL224940  22.692  13.775  23.183 -0.0092  0.1821 -0.1852
 1040BOLB   C1A24941  22.614  14.215  22.841 -0.1172 -0.1231 -0.1342
 1040BOLB   C2A24942  22.833  14.571  22.854 -0.2003  0.1934  0.1905
 1040BOLB   C3A24943  22.953  14.775  23.164 -0.2022  0.2671  0.0310
 1040BOLB   C4A24944  23.146  14.870  23.509 -0.0433  0.2512 -0.6585
 1040BOLB   C1B24945  23.070  13.593  23.169 -0.1392  0.2389  0.3044
 1040BOLB   C2B24946  23.423  13.684  23.312 -0.1753  0.2465 -0.5635
 1040BOLB   C3B24947  23.579  13.861  23.669 -0.0415  0.1892 -0.1612
 1040BOLB   C4B24948  23.705  14.097  23.971 -0.3065 -0.1089 -0.1301
 1040BOLB   NC224949  25.271  15.515  23.120  0.1787 -0.0127 -0.2338
 1040BOLB   PO224950  25.411  15.283  22.836  0.0768 -0.3010  0.0304
 1040BOLB   GL324951  25.030  15.074  22.937  0.0237 -0.0921  0.1763
 1040BOLB   GL424952  24.984  14.843  22.668  0.2216  0.2516 -0.5735
 1040BOLB   C1C24953  24.615  15.339  22.898  0.1647  0.2225  0.1449
 1040BOLB   C2C24954  24.234  15.304  23.274  0.0426 -0.1820  0.1895
 1040BOLB   C3C24955  23.708  15.221  23.363 -0.3096 -0.4265 -0.2679
 1040BOLB   C4C24956  23.536  14.963  23.589 -0.0732 -0.1996  0.0198
 1040BOLB   C1D24957  24.563  14.622  22.554 -0.1641  0.0504  0.1155
 1040BOLB   C2D24958  24.085  14.461  22.667 -0.0296 -0.1562  0.0466
 1040BOLB   C3D24959  23.698  14.423  22.811 -0.4369  0.1099  0.2899
 1040BOLB   C4D24960  23.446  14.599  23.153  0.0246  0.1655 -0.0529
 1041BOLB   NC124961  25.522  11.038  19.589  0.1653  0.2532 -0.1646
 1041BOLB   PO124962  25.675  10.606  19.816  0.0754 -0.1641 -0.4962
 1041BOLB   GL124963  25.335  10.607  20.105 -0.1827 -0.4562 -0.0117
 1041BOLB   GL224964  25.072  10.749  20.025  0.3234 -0.0834 -0.0778
 1041BOLB   C1A24965  25.165  10.484  20.554  0.3236  0.0674  0.1418
 1041BOLB   C2A24966  24.720  10.256  20.654 -0.0801 -0.2705  0.2428
 1041BOLB   C3A24967  24.463  10.379  20.977 -0.1186  0.0559 -0.0063
 1041BOLB   C4A24968  24.116  10.304  21.309 -0.1658  0.1454  0.4693
 1041BOLB   C1B24969  24.808  10.455  20.177 -0.0101  0.2703  0.0316
 1041BOLB   C2B24970  24.512   9.989  20.242  0.3215 -0.0033  0.1131
 1041BOLB   C3B24971  24.132   9.921  20.149 -0.1842  0.2540  0.5449
 1041BOLB   C4B24972  23.709  10.038  19.925  0.0581 -0.2088 -0.1591
 1041BOLB   NC224973  26.130   9.358  21.413 -0.2414 -0.0254  0.0577
 1041BOLB   PO224974  25.999   9.410  20.975  0.1337 -0.0514  0.1407
 1041BOLB   GL324975  25.505   9.473  20.967 -0.0033 -0.1318 -0.1349
 1041BOLB   GL424976  25.384   9.421  20.730 -0.2821 -0.0537  0.2988
 1041BOLB   C1C24977  25.133   9.473  21.185 -0.1825 -0.0265 -0.1812
 1041BOLB   C2C24978  24.844   9.516  21.450  0.0192  0.1525 -0.1671
 1041BOLB   C3C24979  24.369   9.508  21.536  0.3021 -0.1841 -0.2153
 1041BOLB   C4C24980  24.061   9.883  21.480 -0.0664  0.2368  0.1043
 1041BOLB   C1D24981  24.875   9.395  20.800 -0.2594 -0.2608  0.0259
 1041BOLB   C2D24982  24.604   9.663  20.651  0.0659  0.0784  0.1654
 1041BOLB   C3D24983  24.257   9.958  20.706  0.2427  0.0102  0.1390
 1041BOLB   C4D24984  23.865  10.097  20.807 -0.2299  0.1886 -0.2446
 1042BOLB   NC124985  22.639  13.944  33.244  0.1332 -0.0318  0.0534
 1042BOLB   PO124986  22.988  14.127  33.143  0.1023 -0.4284 -0.2194
 1042BOLB   GL124987  23.338  14.302  33.002  0.0737 -0.0518  0.0461
 1042BOLB   GL224988  23.243  14.541  32.774  0.0955  0.1376 -0.1503
 1042BOLB   C1A24989  23.684  14.518  33.064 -0.0275  0.0490 -0.0507
 1042BOLB   C2A24990  24.060  14.721  32.987  0.1346 -0.1146  0.1446
 1042BOLB   C3A24991  24.172  15.180  33.057  0.0605  0.1580  0.1527
 1042BOLB   C4A24992  24.398  15.284  33.507 -0.0075 -0.1593  0.2997
 1042BOLB   C1B24993  23.622  14.609  32.590  0.2270 -0.0716 -0.1237
 1042BOLB   C2B24994  24.047  14.575  32.401  0.1823  0.1194  0.0033
 1042BOLB   C3B24995  24.350  14.789  32.152 -0.0527 -0.2076  0.0293
 1042BOLB   C4B24996  24.704  14.910  32.109  0.0440  0.0797  0.0686
 1042BOLB   NC224997  26.623  14.997  34.990 -0.1030  0.2218  0.1170
 1042BOLB   PO224998  26.348  15.398  34.849 -0.1094 -0.2268 -0.2791
 1042BOLB   GL324999  25.995  15.535  34.679  0.2267  0.1551  0.2046
 1042BOLB   GL425000  26.083  15.905  34.641  0.1265  0.0438  0.2233
 1042BOLB   C1C25001  25.553  15.547  34.422  0.2978  0.0319  0.1689
 1042BOLB   C2C25002  25.111  15.404  34.415  0.0104 -0.0641  0.1476
 1042BOLB   C3C25003  24.776  15.292  34.217 -0.0054 -0.1772 -0.4395
 1042BOLB   C4C25004  24.566  15.154  33.866 -0.0499  0.2113 -0.1356
 1042BOLB   C1D25005  25.887  16.277  34.489  0.2671 -0.1966 -0.0677
 1042BOLB   C2D25006  25.594  16.285  34.134 -0.1003  0.1935 -0.0611
 1042BOLB   C3D25007  25.280  16.358  33.930 -0.0965 -0.1836  0.0568
 1042BOLB   C4D25008  24.900  16.278  33.721 -0.1146 -0.1050 -0.2462
 1043BOLB   NC125009  15.000   0.276  33.128  0.0227  0.1830 -0.0476
 1043BOLB   PO125010  14.826   0.732  33.292  0.1801  0.6051  0.3089
 1043BOLB   GL125011  14.735   1.207  33.227  0.4119 -0.0188 -0.2543
 1043BOLB   GL225012  14.409   1.248  33.168 -0.4942 -0.0339 -0.0698
 1043BOLB   C1A25013  14.809   1.622  33.203  0.1150 -0.0419  0.0229
 1043BOLB   C2A25014  14.923   1.872  32.768 -0.1053 -0.3090  0.0763
 1043BOLB   C3A25015  15.000   2.185  32.419 -0.1033 -0.0665  0.3557
 1043BOLB   C4A25016  15.238   2.112  32.135 -0.1666  0.2352 -0.0963
 1043BOLB   C1B25017  14.287   1.609  33.030  0.1355  0.7044  0.1754
 1043BOLB   C2B25018  14.558   2.075  33.054  0.0084  0.0541 -0.2211
 1043BOLB   C3B25019  14.597   2.428  33.329  0.2113 -0.2125  0.0250
 1043BOLB   C4B25020  14.921   2.433  33.704  0.1182  0.3501  0.2745
 1043BOLB   NC225021  14.808  26.825  31.682  0.0070  0.2378  0.1390
 1043BOLB   PO225022  15.193  27.023  31.652 -0.1772  0.2526  0.0433
 1043BOLB   GL325023  15.341   0.384  31.758 -0.0251 -0.3462  0.2795
 1043BOLB   GL425024  15.074   0.456  31.789  0.0427  0.1275  0.1973
 1043BOLB   C1C25025  15.364   0.768  31.507  0.1043  0.1211  0.0123
 1043BOLB   C2C25026  15.421   1.133  31.601 -0.0429  0.1806 -0.2895
 1043BOLB   C3C25027  15.593   1.486  31.712 -0.1146 -0.0152  0.0295
 1043BOLB   C4C25028  15.501   1.815  31.971 -0.2845 -0.1086  0.1989
 1043BOLB   C1D25029  14.910   0.827  31.846 -0.2501  0.0839 -0.1152
 1043BOLB   C2D25030  14.497   1.031  31.793  0.0456  0.0324  0.0767
 1043BOLB   C3D25031  14.325   1.436  31.692 -0.0240 -0.1087  0.0600
 1043BOLB   C4D25032  14.089   1.759  31.750 -0.0820  0.2069 -0.1674
 1044BOLB   NC125033  23.540  10.732  28.940 -0.1257 -0.1830  0.1232
 1044BOLB   PO125034  23.606  10.883  28.552  0.2275  0.0648 -0.2523
 1044BOLB   GL125035  23.870  11.066  28.852 -0.1161  0.0509 -0.0991
 1044BOLB   GL225036  24.115  11.007  28.685 -0.4040 -0.0982  0.2142
 1044BOLB   C1A25037  24.317  11.058  29.121  0.1396  0.0859  0.1908
 1044BOLB   C2A25038  24.793  11.070  29.072 -0.0695  0.1389 -0.3182
 1044BOLB   C3A25039  25.050  11.112  29.440 -0.0093 -0.3110  0.3285
 1044BOLB   C4A25040  25.538  11.231  29.526 -0.4011  0.2747 -0.3431
 1044BOLB   C1B25041  24.546  10.862  28.734 -0.0111 -0.0999 -0.0914
 1044BOLB   C2B25042  25.012  10.906  28.667  0.0539  0.0369  0.0827
 1044BOLB   C3B25043  25.385  10.698  28.902  0.0620  0.1105  0.0686
 1044BOLB   C4B25044  25.667  10.707  29.256 -0.0071  0.1747 -0.0997
 1044BOLB   NC225045   0.864  10.324  29.473 -0.3471  0.1599  0.2938
 1044BOLB   PO225046   0.925  10.156  29.807  0.2592 -0.0502 -0.0742
 1044BOLB   GL325047   0.503  10.133  29.722  0.0003  0.4219  0.0738
 1044BOLB   GL425048   0.410  10.392  29.848  0.2964 -0.1400  0.2452
 1044BOLB   C1C25049  27.028  10.054  29.809 -0.0473 -0.0549 -0.0780
 1044BOLB   C2C25050  26.588  10.385  29.823  0.0249  0.1120  0.0230
 1044BOLB   C3C25051  26.117  10.614  29.810  0.2405 -0.0666 -0.0894
 1044BOLB   C4C25052  25.974  11.083  29.717  0.2528  0.3430  0.1607
 1044BOLB   C1D25053   0.174  10.687  29.694  0.2104 -0.2216  0.3086
 1044BOLB   C2D25054  26.781  10.663  29.442 -0.1270  0.2823 -0.2887
 1044BOLB   C3D25055  26.388  10.955  29.388  0.0665  0.1138  0.1550
 1044BOLB   C4D25056  26.063  11.332  29.183  0.3400  0.1819 -0.1729
 1045BOLB   NC125057   9.942   8.500  35.053 -0.0269  0.1422  0.0580
 1045BOLB   PO125058   9.739   8.904  34.914  0.0724  0.0964  0.2253
 1045BOLB   GL125059   9.346   8.804  35.051 -0.1663 -0.2873 -0.0453
 1045BOLB   GL225060   9.152   8.763  34.845 -0.1667 -0.0176 -0.0051
 1045BOLB   C1A25061   9.081   8.483  35.209 -0.0427  0.2465 -0.1231
 1045BOLB   C2A25062   8.828   8.190  35.393 -0.1707 -0.1001  0.2035
 1045BOLB   C3A25063   8.719   7.956  35.725  0.0805 -0.0925  0.1427
 1045BOLB   C4A25064   8.591   7.801  36.050  0.0958  0.0971 -0.2767
 1045BOLB   C1B25065   8.795   8.873  35.117  0.1613 -0.0578 -0.0213
 1045BOLB   C2B25066   8.460   8.793  35.364  0.1749 -0.2901 -0.2664
 1045BOLB   C3B25067   8.178   8.788  35.758  0.2026 -0.1065  0.0604
 1045BOLB   C4B25068   8.384   8.784  36.222  0.0809  0.0444  0.0351
 1045BOLB   NC225069   7.586   6.689  37.405 -0.2834  0.0237 -0.0975
 1045BOLB   PO225070   7.377   6.319  37.212 -0.0479 -0.5166 -0.3976
 1045BOLB   GL325071   7.364   6.634  36.883 -0.0061  0.0679 -0.1502
 1045BOLB   GL425072   7.048   6.710  36.788 -0.2605 -0.1257  0.1668
 1045BOLB   C1C25073   7.671   6.852  36.699  0.1040  0.0327 -0.1381
 1045BOLB   C2C25074   7.913   7.235  36.686 -0.0266  0.0236 -0.0843
 1045BOLB   C3C25075   8.019   7.749  36.473 -0.0850  0.0772  0.1696
 1045BOLB   C4C25076   8.347   7.988  36.250 -0.1505  0.0295  0.1192
 1045BOLB   C1D25077   7.183   7.127  36.756  0.3048 -0.0935 -0.2082
 1045BOLB   C2D25078   7.496   7.459  36.882  0.3783  0.1792  0.5166
 1045BOLB   C3D25079   7.811   7.771  37.000  0.1412  0.2763 -0.1328
 1045BOLB   C4D25080   8.243   7.893  36.865 -0.3162  0.2742 -0.3142
 1046BOLB   NC125081   9.382   7.683  28.046 -0.1359  0.0840 -0.3991
 1046BOLB   PO125082   9.491   7.356  27.877 -0.0894  0.1318  0.1271
 1046BOLB   GL125083   9.249   7.170  27.984 -0.2257 -0.0693 -0.2038
 1046BOLB   GL225084   9.068   7.095  27.766  0.0150 -0.1604  0.2657
 1046BOLB   C1A25085   9.156   6.758  28.120  0.0592 -0.1567 -0.0827
 1046BOLB   C2A25086   8.874   6.449  28.086  0.1493  0.2989 -0.1186
 1046BOLB   C3A25087   8.645   6.142  28.125 -0.0186 -0.2525  0.1211
 1046BOLB   C4A25088   8.370   5.842  27.956 -0.3107 -0.0691 -0.0929
 1046BOLB   C1B25089   8.590   7.089  27.847  0.0569  0.0516  0.1336
 1046BOLB   C2B25090   8.398   6.714  27.918  0.2733 -0.3171 -0.1974
 1046BOLB   C3B25091   8.164   6.332  28.042  0.0947 -0.1258 -0.2407
 1046BOLB   C4B25092   8.218   6.135  28.418 -0.2033  0.0355 -0.1484
 1046BOLB   NC225093   6.539   4.146  27.287  0.0274 -0.2913 -0.2507
 1046BOLB   PO225094   6.969   4.122  27.148  0.2421  0.0478 -0.1963
 1046BOLB   GL325095   7.320   4.453  27.219 -0.0005  0.4814 -0.0028
 1046BOLB   GL425096   7.333   4.786  27.024 -0.2462 -0.1954 -0.2488
 1046BOLB   C1C25097   7.768   4.468  27.278 -0.3288  0.2562  0.1571
 1046BOLB   C2C25098   8.081   4.808  27.423 -0.0110  0.1607  0.2783
 1046BOLB   C3C25099   8.384   4.986  27.705  0.0111  0.0562 -0.1073
 1046BOLB   C4C25100   8.566   5.368  27.879  0.0701  0.1267 -0.0591
 1046BOLB   C1D25101   7.373   4.871  27.502  0.2681 -0.1740  0.1265
 1046BOLB   C2D25102   7.636   4.659  27.768  0.0900  0.0031 -0.0608
 1046BOLB   C3D25103   7.711   4.516  28.170 -0.0560  0.2893  0.2900
 1046BOLB   C4D25104   7.898   4.313  28.497 -0.0181  0.2312 -0.0126
 1047BOLB   NC125105  20.596   5.066  27.474 -0.0113 -0.0135 -0.0921
 1047BOLB   PO125106  20.715   5.208  27.911  0.0528 -0.0457 -0.1111
 1047BOLB   GL125107  21.133   5.013  27.934 -0.2980  0.0494 -0.0649
 1047BOLB   GL225108  21.005   4.816  27.858  0.3652 -0.0855 -0.1685
 1047BOLB   C1A25109  21.479   4.711  28.168 -0.2205  0.0543  0.4797
 1047BOLB   C2A25110  21.598   4.312  28.273  0.0149  0.1403  0.1054
 1047BOLB   C3A25111  21.884   4.142  28.390 -0.4178 -0.0658  0.0638
 1047BOLB   C4A25112  22.098   3.738  28.428  0.2590 -0.1865  0.3561
 1047BOLB   C1B25113  21.347   4.473  27.687 -0.2362  0.1725 -0.0276
 1047BOLB   C2B25114  21.893   4.265  27.890  0.2431 -0.3367  0.0319
 1047BOLB   C3B25115  22.262   4.125  28.073 -0.0378 -0.0905  0.1362
 1047BOLB   C4B25116  22.444   3.700  28.054 -0.1365 -0.2222  0.1470
 1047BOLB   NC225117  22.536   0.985  28.767  0.4646 -0.1760  0.1494
 1047BOLB   PO225118  22.538   1.382  28.937 -0.4364  0.1109 -0.4028
 1047BOLB   GL325119  22.484   1.857  29.107 -0.1564 -0.0266 -0.1950
 1047BOLB   GL425120  22.664   2.199  29.107  0.1069 -0.1228  0.1971
 1047BOLB   C1C25121  22.245   2.180  29.454  0.1390 -0.1025 -0.0714
 1047BOLB   C2C25122  22.020   2.659  29.324 -0.0929 -0.2356  0.1862
 1047BOLB   C3C25123  22.169   2.978  28.906 -0.0523 -0.1894  0.2631
 1047BOLB   C4C25124  22.229   3.405  28.560 -0.0927  0.3484 -0.0128
 1047BOLB   C1D25125  22.203   2.241  28.981  0.0712 -0.1985  0.3176
 1047BOLB   C2D25126  21.811   2.565  28.868  0.2068  0.1254  0.2286
 1047BOLB   C3D25127  21.673   2.990  28.990 -0.0588  0.1912  0.2138
 1047BOLB   C4D25128  21.575   2.927  29.458 -0.0097 -0.3278  0.3119
 1048BOLB   NC125129  11.392  20.034  33.281  0.0744  0.2187 -0.1878
 1048BOLB   PO125130  11.158  20.405  33.056 -0.0411  0.0709  0.2219
 1048BOLB   GL125131  11.107  20.833  33.176  0.3100 -0.0041  0.1630
 1048BOLB   GL225132  11.388  20.871  33.420  0.2422  0.2272  0.0593
 1048BOLB   C1A25133  10.853  21.152  33.027 -0.4650 -0.0298 -0.1818
 1048BOLB   C2A25134  10.500  21.408  33.016 -0.1073  0.3061  0.0385
 1048BOLB   C3A25135  10.442  21.902  33.034 -0.0426  0.0891  0.4971
 1048BOLB   C4A25136  10.636  22.238  32.767 -0.1559 -0.1955 -0.0199
 1048BOLB   C1B25137  11.274  21.258  33.367 -0.1203 -0.5468 -0.2987
 1048BOLB   C2B25138  11.332  21.672  33.202  0.2411 -0.2290  0.3559
 1048BOLB   C3B25139  11.404  22.149  33.180  0.1142  0.1187 -0.0389
 1048BOLB   C4B25140  11.453  22.600  33.343 -0.1479  0.0387 -0.3403
 1048BOLB   NC225141  12.258  21.021  32.067  0.1401  0.1053 -0.0674
 1048BOLB   PO225142  11.897  20.974  31.798 -0.3341 -0.1732  0.1800
 1048BOLB   GL325143  11.845  21.249  32.113 -0.0830 -0.3886 -0.2283
 1048BOLB   GL425144  11.787  21.479  31.845 -0.0003 -0.0255  0.1187
 1048BOLB   C1C25145  12.039  21.683  32.284  0.0425  0.1232  0.1907
 1048BOLB   C2C25146  11.846  22.057  32.368 -0.1269  0.2986  0.1170
 1048BOLB   C3C25147  11.522  22.219  32.562  0.0920  0.2037 -0.1910
 1048BOLB   C4C25148  11.101  22.286  32.684  0.3157  0.2087 -0.0261
 1048BOLB   C1D25149  11.684  21.653  31.410 -0.0438  0.0024 -0.1512
 1048BOLB   C2D25150  11.389  21.901  31.348 -0.0992 -0.4235 -0.0431
 1048BOLB   C3D25151  11.119  22.195  31.594 -0.0826 -0.2794 -0.4388
 1048BOLB   C4D25152  11.314  22.467  31.921  0.0339  0.1424 -0.2061
 1049BOLB   NC125153  12.606   3.529  21.526 -0.0605  0.3018 -0.1602
 1049BOLB   PO125154  12.167   3.537  21.353  0.0252  0.2387 -0.0499
 1049BOLB   GL125155  12.505   3.939  21.284  0.0969 -0.4050 -0.4239
 1049BOLB   GL225156  12.796   3.949  21.489  0.2931 -0.0333  0.1455
 1049BOLB   C1A25157  12.622   4.348  21.239  0.0339 -0.0375 -0.2605
 1049BOLB   C2A25158  12.767   4.633  21.428 -0.1184 -0.0602 -0.0676
 1049BOLB   C3A25159  12.989   4.964  21.494 -0.2025 -0.2151 -0.2181
 1049BOLB   C4A25160  13.255   5.252  21.556  0.1111  0.2172 -0.2000
 1049BOLB   C1B25161  12.643   4.270  21.780  0.0693 -0.2206  0.0149
 1049BOLB   C2B25162  12.840   4.663  21.946 -0.0092  0.2113  0.1230
 1049BOLB   C3B25163  13.209   4.936  22.122 -0.0080  0.1480 -0.0783
 1049BOLB   C4B25164  13.380   5.024  22.481 -0.0971  0.0456  0.2087
 1049BOLB   NC225165  13.014   3.938  20.331  0.4606 -0.1502 -0.0557
 1049BOLB   PO225166  13.199   4.260  19.989  0.0294  0.0822  0.1852
 1049BOLB   GL325167  13.422   4.317  20.237  0.0222  0.0525 -0.0573
 1049BOLB   GL425168  13.541   4.642  20.161 -0.0111  0.1730  0.2154
 1049BOLB   C1C25169  13.564   4.418  20.633 -0.2348  0.3355  0.2297
 1049BOLB   C2C25170  13.726   4.691  20.979  0.2447  0.1767 -0.0647
 1049BOLB   C3C25171  13.762   5.150  21.205  0.5091  0.0825  0.0017
 1049BOLB   C4C25172  13.566   5.451  21.364  0.0776 -0.3652  0.1746
 1049BOLB   C1D25173  13.720   4.917  20.477 -0.1415  0.0584  0.0503
 1049BOLB   C2D25174  13.566   5.308  20.746 -0.0592 -0.2268 -0.2683
 1049BOLB   C3D25175  13.563   5.635  20.917 -0.1037 -0.0062  0.0076
 1049BOLB   C4D25176  13.870   5.820  21.191  0.1334  0.1198 -0.0805
 1050BOLB   NC125177  12.133  13.848  16.446  0.0133 -0.1127 -0.3532
 1050BOLB   PO125178  12.102  13.424  16.468  0.3850  0.1327 -0.0453
 1050BOLB   GL125179  12.443  13.575  16.758  0.0648  0.0839  0.1014
 1050BOLB   GL225180  12.544  13.940  16.756 -0.1528 -0.1164 -0.0336
 1050BOLB   C1A25181  12.805  13.485  17.087  0.3118  0.1068  0.0438
 1050BOLB   C2A25182  12.940  13.492  17.522  0.0897 -0.0015  0.0187
 1050BOLB   C3A25183  13.090  13.452  17.896 -0.0277  0.2116 -0.1004
 1050BOLB   C4A25184  13.017  13.363  18.300 -0.0230 -0.1051 -0.0022
 1050BOLB   C1B25185  12.723  14.153  17.185  0.0228 -0.0144  0.2265
 1050BOLB   C2B25186  13.046  14.071  17.402 -0.2109 -0.1272 -0.0427
 1050BOLB   C3B25187  13.241  13.906  17.799  0.0102 -0.0188 -0.3334
 1050BOLB   C4B25188  13.312  13.790  18.181  0.0005  0.2772  0.2376
 1050BOLB   NC225189  14.815  13.935  19.783 -0.1957 -0.2078 -0.1742
 1050BOLB   PO225190  15.130  13.622  19.627  0.3607 -0.3058  0.4004
 1050BOLB   GL325191  14.728  13.718  19.273 -0.1967 -0.4586 -0.0102
 1050BOLB   GL425192  14.655  14.051  19.215 -0.1661 -0.0121 -0.2704
 1050BOLB   C1C25193  14.431  13.540  18.967 -0.1176  0.5716 -0.0734
 1050BOLB   C2C25194  14.091  13.759  18.716  0.1453 -0.1427 -0.1898
 1050BOLB   C3C25195  13.607  13.729  18.667  0.0008 -0.0405 -0.1946
 1050BOLB   C4C25196  13.278  13.416  18.639  0.1409  0.2509 -0.3583
 1050BOLB   C1D25197  14.359  14.322  19.066  0.1791  0.2358 -0.1027
 1050BOLB   C2D25198  14.218  14.251  18.680 -0.0957 -0.1893 -0.1267
 1050BOLB   C3D25199  13.867  14.075  18.379 -0.0053  0.0569 -0.4536
 1050BOLB   C4D25200  13.699  14.127  18.036  0.1931  0.0359  0.0785
 1051BOLB   NC125201  12.016  19.567  33.955  0.0312 -0.1353 -0.1833
 1051BOLB   PO125202  11.534  19.462  33.976  0.1755  0.0295 -0.0084
 1051BOLB   GL125203  11.219  19.719  34.216  0.5896  0.0343  0.2875
 1051BOLB   GL225204  11.134  19.830  34.515 -0.0696  0.0037 -0.0621
 1051BOLB   C1A25205  11.112  20.188  34.134 -0.1365  0.2923  0.1370
 1051BOLB   C2A25206  11.045  20.613  34.231  0.0250 -0.4889 -0.1447
 1051BOLB   C3A25207  10.837  20.959  34.177 -0.2690 -0.0483  0.0356
 1051BOLB   C4A25208  10.957  21.375  34.257  0.3309 -0.2643  0.1917
 1051BOLB   C1B25209  11.022  20.134  34.956  0.0169  0.0728 -0.1683
 1051BOLB   C2B25210  11.199  20.189  35.349  0.1755  0.1761  0.0460
 1051BOLB   C3B25211  11.476  20.305  35.608  0.1194 -0.0754  0.1692
 1051BOLB   C4B25212  11.378  20.605  36.022 -0.0809 -0.1625  0.0893
 1051BOLB   NC225213   9.755  23.975  34.926 -0.2036 -0.1165  0.2864
 1051BOLB   PO225214   9.889  23.586  34.954  0.1257 -0.0988 -0.2687
 1051BOLB   GL325215  10.217  23.410  34.617  0.1095  0.1741  0.2448
 1051BOLB   GL425216  10.469  23.229  34.835  0.1587  0.2472  0.0879
 1051BOLB   C1C25217  10.363  23.128  34.356  0.0451 -0.0271 -0.4421
 1051BOLB   C2C25218  10.369  22.571  34.381  0.2680  0.1106 -0.0111
 1051BOLB   C3C25219  10.437  22.180  34.561  0.0278  0.0800 -0.0316
 1051BOLB   C4C25220  10.755  21.821  34.333  0.2915 -0.3409  0.2399
 1051BOLB   C1D25221  10.568  22.825  34.833 -0.0350  0.0412  0.1498
 1051BOLB   C2D25222  10.751  22.505  34.746 -0.0822  0.0843  0.0904
 1051BOLB   C3D25223  10.955  22.240  34.507  0.1420  0.2700 -0.0825
 1051BOLB   C4D25224  11.127  22.188  34.067  0.0029  0.3186  0.0147
 1052BOLB   NC125225  14.982   4.578  27.310  0.0999 -0.0170  0.1683
 1052BOLB   PO125226  15.252   4.131  27.486  0.0157  0.0368 -0.1319
 1052BOLB   GL125227  15.387   3.805  27.267  0.0567  0.0514  0.1154
 1052BOLB   GL225228  15.389   3.828  26.951  0.0030  0.0500  0.0338
 1052BOLB   C1A25229  15.488   3.367  27.233 -0.0910 -0.2639 -0.1039
 1052BOLB   C2A25230  15.291   3.037  27.513  0.0262 -0.0869 -0.1246
 1052BOLB   C3A25231  15.156   2.643  27.563  0.0595 -0.0939  0.3362
 1052BOLB   C4A25232  14.979   2.159  27.501 -0.0403  0.4680  0.0873
 1052BOLB   C1B25233  15.077   3.482  26.925 -0.2208 -0.0963  0.0355
 1052BOLB   C2B25234  14.688   3.221  26.700  0.0536 -0.1612  0.2458
 1052BOLB   C3B25235  14.719   2.806  26.619 -0.0862  0.2920  0.1148
 1052BOLB   C4B25236  14.496   2.436  26.761  0.1479 -0.1966 -0.0962
 1052BOLB   NC225237  13.561   0.416  27.904  0.0075 -0.0707  0.2079
 1052BOLB   PO225238  13.828   0.563  27.797 -0.0263 -0.0931  0.2234
 1052BOLB   GL325239  14.332   0.534  27.988  0.1874 -0.2810  0.1056
 1052BOLB   GL425240  14.378   0.618  28.323 -0.3673 -0.0720 -0.1755
 1052BOLB   C1C25241  14.741   0.815  27.757 -0.0718  0.0895 -0.3233
 1052BOLB   C2C25242  15.055   1.016  27.590  0.1033  0.1676 -0.1541
 1052BOLB   C3C25243  15.022   1.380  27.470 -0.1318 -0.0171 -0.0327
 1052BOLB   C4C25244  14.905   1.813  27.550 -0.0385  0.1542  0.5255
 1052BOLB   C1D25245  14.361   1.062  28.264  0.1173  0.2412 -0.0378
 1052BOLB   C2D25246  14.455   1.527  28.235 -0.4587  0.0278 -0.2033
 1052BOLB   C3D25247  14.775   1.756  28.552 -0.2140 -0.0861 -0.2128
 1052BOLB   C4D25248  15.113   2.082  28.569  0.0826  0.1583  0.0242
 1053BOLB   NC125249   6.320   9.973  21.857  0.3474 -0.0265 -0.0338
 1053BOLB   PO125250   6.479   9.980  22.212 -0.0412  0.1168 -0.1975
 1053BOLB   GL125251   6.642  10.083  22.636  0.0392  0.1327  0.1805
 1053BOLB   GL225252   6.552  10.443  22.768  0.1154 -0.1066  0.0742
 1053BOLB   C1A25253   6.915   9.824  22.881 -0.3796  0.1782 -0.0290
 1053BOLB   C2A25254   7.308   9.654  22.990 -0.0397 -0.3725 -0.0192
 1053BOLB   C3A25255   7.756   9.704  23.110  0.0016 -0.1249  0.1277
 1053BOLB   C4A25256   8.137   9.940  23.164 -0.0709  0.0579 -0.1822
 1053BOLB   C1B25257   6.839  10.676  23.030  0.0578 -0.0265  0.0244
 1053BOLB   C2B25258   7.193  10.819  23.190  0.2864 -0.2176 -0.1462
 1053BOLB   C3B25259   7.584  10.938  23.491 -0.2139  0.0048  0.3342
 1053BOLB   C4B25260   7.995  11.057  23.631 -0.1789  0.0518 -0.2465
 1053BOLB   NC225261  10.023   9.589  24.749  0.0644  0.1072  0.0735
 1053BOLB   PO225262   9.834   9.978  24.927 -0.3969 -0.1200  0.1005
 1053BOLB   GL325263   9.424   9.788  24.837  0.0537  0.0926  0.4356
 1053BOLB   GL425264   9.241   9.777  25.045  0.2640  0.2119  0.0333
 1053BOLB   C1C25265   9.167   9.858  24.445  0.0421  0.1497  0.0903
 1053BOLB   C2C25266   8.970  10.001  24.098 -0.2640  0.1234  0.2001
 1053BOLB   C3C25267   8.710   9.842  23.795  0.1681  0.2916 -0.4492
 1053BOLB   C4C25268   8.455   9.916  23.443 -0.0578  0.0319  0.3428
 1053BOLB   C1D25269   8.832   9.753  24.777 -0.1726 -0.3387  0.1071
 1053BOLB   C2D25270   8.588   9.724  24.391 -0.0323  0.2603  0.0099
 1053BOLB   C3D25271   8.231   9.774  24.164 -0.1284 -0.0017 -0.3126
 1053BOLB   C4D25272   8.141   9.670  23.722  0.2784 -0.0983  0.0567
 1054BOLB   NC125273   9.546   8.036  31.524 -0.1511 -0.2159  0.0376
 1054BOLB   PO125274   9.285   8.235  31.228 -0.3183  0.0096  0.2812
 1054BOLB   GL125275   8.976   8.043  31.384  0.4089 -0.2281  0.1613
 1054BOLB   GL225276   9.072   7.719  31.447 -0.0247 -0.1482  0.2184
 1054BOLB   C1A25277   8.506   7.940  31.343 -0.2607  0.0078 -0.0403
 1054BOLB   C2A25278   8.072   7.874  31.266  0.0795  0.1791 -0.0015
 1054BOLB   C3A25279   7.886   7.527  31.091  0.0425 -0.3108  0.0395
 1054BOLB   C4A25280   7.875   7.111  31.126  0.0495  0.1970  0.1071
 1054BOLB   C1B25281   8.703   7.736  31.775  0.3291  0.1796 -0.2451
 1054BOLB   C2B25282   8.445   7.570  32.022 -0.0966 -0.4675  0.0801
 1054BOLB   C3B25283   8.309   7.445  32.483  0.2606  0.0357 -0.4154
 1054BOLB   C4B25284   8.117   7.086  32.694 -0.0563 -0.1072  0.4221
 1054BOLB   NC225285   6.141   5.299  31.903  0.0802 -0.0394  0.2051
 1054BOLB   PO225286   6.202   5.679  32.213  0.2597 -0.1166  0.3037
 1054BOLB   GL325287   6.303   5.802  31.811 -0.1868  0.2259  0.0529
 1054BOLB   GL425288   6.277   5.755  31.518 -0.0961 -0.0333 -0.1459
 1054BOLB   C1C25289   6.678   6.140  31.755  0.1935  0.0237  0.0147
 1054BOLB   C2C25290   7.094   6.316  31.532  0.3225 -0.2774  0.1278
 1054BOLB   C3C25291   7.388   6.466  31.255 -0.1768  0.1536  0.0900
 1054BOLB   C4C25292   7.611   6.821  31.204  0.3314  0.3029 -0.0812
 1054BOLB   C1D25293   6.540   5.919  31.183 -0.1188 -0.0523 -0.4622
 1054BOLB   C2D25294   7.018   5.866  31.184  0.2190 -0.1530 -0.0663
 1054BOLB   C3D25295   7.233   6.155  30.865 -0.2153  0.1474  0.2623
 1054BOLB   C4D25296   7.211   6.578  30.808 -0.4267 -0.1301 -0.1289
 1055BOLB   NC125297  14.438  21.430  29.582  0.0930  0.1855 -0.0067
 1055BOLB   PO125298  14.891  20.994  29.639 -0.3582  0.3427  0.0426
 1055BOLB   GL125299  15.054  21.362  29.632 -0.2012 -0.1917 -0.0185
 1055BOLB   GL225300  14.855  21.524  29.934  0.3914  0.3256  0.2001
 1055BOLB   C1A25301  15.161  21.765  29.668  0.2063  0.0156  0.1517
 1055BOLB   C2A25302  15.023  22.170  29.729  0.2080  0.0341 -0.0344
 1055BOLB   C3A25303  15.127  22.520  29.464 -0.3178  0.2718  0.4089
 1055BOLB   C4A25304  15.152  22.927  29.251 -0.0273 -0.3010  0.1232
 1055BOLB   C1B25305  14.747  21.868  30.026 -0.1829  0.1064 -0.2476
 1055BOLB   C2B25306  14.887  22.305  30.226  0.0429 -0.0657 -0.1141
 1055BOLB   C3B25307  14.883  22.772  30.311  0.1245  0.0195 -0.1502
 1055BOLB   C4B25308  15.004  23.116  30.533  0.2286  0.0750 -0.4068
 1055BOLB   NC225309  15.629  25.201  28.256 -0.2936  0.1239 -0.1242
 1055BOLB   PO225310  15.694  25.120  28.741 -0.0539  0.2234 -0.0840
 1055BOLB   GL325311  15.882  24.723  28.997 -0.2775  0.0086 -0.0484
 1055BOLB   GL425312  15.933  24.780  29.354 -0.0841  0.1085 -0.0399
 1055BOLB   C1C25313  16.079  24.348  29.178 -0.2929  0.0075  0.2628
 1055BOLB   C2C25314  15.853  24.103  29.122 -0.1153 -0.0692 -0.1332
 1055BOLB   C3C25315  15.656  23.639  29.205  0.0791  0.0161 -0.0892
 1055BOLB   C4C25316  15.427  23.201  29.163  0.0522 -0.3123  0.1182
 1055BOLB   C1D25317  15.946  24.609  29.649  0.2375  0.1023 -0.0731
 1055BOLB   C2D25318  15.889  24.150  29.623 -0.0660 -0.4980  0.3049
 1055BOLB   C3D25319  16.132  23.778  29.680  0.0407 -0.0649 -0.0005
 1055BOLB   C4D25320  16.370  23.531  29.309  0.0043 -0.0321  0.1800
 1056BOLB   NC125321  22.783  19.139  24.686  0.1369 -0.2753 -0.0010
 1056BOLB   PO125322  22.779  18.922  25.068 -0.1447  0.0245  0.1705
 1056BOLB   GL125323  22.553  18.673  25.315  0.0482 -0.2684 -0.0596
 1056BOLB   GL225324  22.511  18.393  25.264 -0.0324 -0.2243  0.0344
 1056BOLB   C1A25325  22.295  18.631  25.663 -0.0375  0.1317  0.2242
 1056BOLB   C2A25326  21.960  18.400  25.806 -0.0881  0.0248  0.2152
 1056BOLB   C3A25327  21.662  18.284  26.118 -0.0420 -0.2187  0.3370
 1056BOLB   C4A25328  21.375  18.459  26.410  0.1652  0.0627  0.1267
 1056BOLB   C1B25329  22.293  18.058  25.242 -0.0850 -0.0887  0.2752
 1056BOLB   C2B25330  22.049  17.738  25.100 -0.0041  0.2583 -0.0617
 1056BOLB   C3B25331  21.606  17.594  25.249  0.1957 -0.0590 -0.0475
 1056BOLB   C4B25332  21.319  17.744  25.550 -0.2947  0.0352 -0.0450
 1056BOLB   NC225333  19.358  18.049  27.518  0.1039 -0.2173 -0.1139
 1056BOLB   PO225334  19.623  17.771  27.558 -0.3842  0.1593  0.1127
 1056BOLB   GL325335  20.000  17.982  27.462 -0.3370 -0.0736  0.1612
 1056BOLB   GL425336  19.927  18.167  27.185  0.0135 -0.6222  0.2010
 1056BOLB   C1C25337  20.365  17.858  27.182  0.1191 -0.1764 -0.0116
 1056BOLB   C2C25338  20.589  18.081  26.885  0.2733  0.0926  0.3015
 1056BOLB   C3C25339  20.559  18.368  26.563 -0.0751  0.1202 -0.2072
 1056BOLB   C4C25340  20.894  18.550  26.445  0.0925 -0.0308  0.0762
 1056BOLB   C1D25341  20.239  18.351  27.326 -0.2029  0.0265  0.1127
 1056BOLB   C2D25342  20.543  18.685  27.536  0.3351 -0.3490  0.3698
 1056BOLB   C3D25343  20.956  19.153  27.697 -0.0042 -0.0659  0.0342
 1056BOLB   C4D25344  21.310  19.384  27.626  0.1475 -0.0001 -0.0306
 1057BOLB   NC125345  10.918  17.003  35.831 -0.0301  0.1292  0.4262
 1057BOLB   PO125346  10.496  17.229  35.836  0.1796  0.2666 -0.2837
 1057BOLB   GL125347  10.215  17.431  36.043  0.2838 -0.2874  0.1671
 1057BOLB   GL225348   9.900  17.599  35.928  0.1610  0.0250 -0.3419
 1057BOLB   C1A25349  10.128  17.714  36.441 -0.2016 -0.0327  0.1069
 1057BOLB   C2A25350  10.009  18.036  36.712  0.2327 -0.1357  0.1129
 1057BOLB   C3A25351   9.940  18.151  37.094 -0.2315 -0.3991 -0.1359
 1057BOLB   C4A25352   9.733  18.481  37.319  0.3000 -0.2497 -0.0029
 1057BOLB   C1B25353   9.543  17.700  36.243  0.3434  0.1837  0.1384
 1057BOLB   C2B25354   9.358  17.768  36.622  0.3621  0.2062 -0.0999
 1057BOLB   C3B25355   8.965  17.859  36.726  0.0810  0.0860  0.0367
 1057BOLB   C4B25356   8.691  18.154  36.696  0.1821  0.0087 -0.2181
 1057BOLB   NC225357   8.233  19.523  38.825 -0.0995 -0.1255 -0.0632
 1057BOLB   PO225358   8.088  19.684  38.472  0.2175  0.2048 -0.0767
 1057BOLB   GL325359   8.397  19.411  38.366 -0.0142 -0.3086 -0.0378
 1057BOLB   GL425360   8.724  19.341  38.244  0.2011 -0.1667  0.0816
 1057BOLB   C1C25361   8.422  18.941  38.048  0.2531 -0.1395 -0.3631
 1057BOLB   C2C25362   8.919  18.828  37.904 -0.1095  0.1929 -0.1762
 1057BOLB   C3C25363   9.287  18.777  37.782 -0.3378  0.2768 -0.1381
 1057BOLB   C4C25364   9.554  18.817  37.528  0.2085 -0.1931  0.2484
 1057BOLB   C1D25365   8.836  18.917  38.506  0.0403 -0.0942 -0.3146
 1057BOLB   C2D25366   8.970  18.565  38.528 -0.0493 -0.1417  0.1407
 1057BOLB   C3D25367   9.191  18.408  38.207  0.4347  0.1877  0.1845
 1057BOLB   C4D25368   9.512  18.259  37.985 -0.2799 -0.0133  0.0753
 1058BOLB   NC125369  19.072  19.161  31.465 -0.0168  0.0015 -0.0898
 1058BOLB   PO125370  19.210  19.139  31.874 -0.0320 -0.1587 -0.1153
 1058BOLB   GL125371  19.504  19.461  32.067  0.0997  0.1346  0.2260
 1058BOLB   GL225372  19.362  19.581  32.366  0.3551  0.0585 -0.0163
 1058BOLB   C1A25373  19.861  19.794  32.048  0.1599 -0.4519 -0.1324
 1058BOLB   C2A25374  19.967  20.129  31.844  0.2395 -0.1094 -0.0157
 1058BOLB   C3A25375  19.898  20.407  31.511 -0.0594 -0.1381  0.1762
 1058BOLB   C4A25376  19.814  20.818  31.453  0.2127  0.0995  0.0291
 1058BOLB   C1B25377  19.457  19.901  32.590 -0.1775 -0.0332  0.1189
 1058BOLB   C2B25378  19.732  20.108  32.978 -0.0156  0.3550  0.0904
 1058BOLB   C3B25379  19.913  20.134  33.423 -0.1189  0.1324 -0.0742
 1058BOLB   C4B25380  19.744  20.173  33.862 -0.2809  0.0612 -0.0753
 1058BOLB   NC225381  19.593  23.353  31.429 -0.0502  0.0272  0.0603
 1058BOLB   PO225382  19.936  23.308  31.716 -0.1427 -0.0936 -0.0047
 1058BOLB   GL325383  19.842  22.944  31.622  0.3261  0.2197  0.0112
 1058BOLB   GL425384  19.435  22.962  31.752  0.1331 -0.0651 -0.2402
 1058BOLB   C1C25385  19.761  22.556  31.507 -0.1206 -0.1987  0.1367
 1058BOLB   C2C25386  19.729  22.056  31.398 -0.1574 -0.1545 -0.3374
 1058BOLB   C3C25387  19.599  21.646  31.589 -0.1683 -0.1642 -0.1981
 1058BOLB   C4C25388  19.704  21.197  31.699 -0.1109 -0.5214 -0.0799
 1058BOLB   C1D25389  19.093  22.812  31.754 -0.2872 -0.1248  0.0429
 1058BOLB   C2D25390  18.923  22.628  32.052  0.1427 -0.2140  0.0152
 1058BOLB   C3D25391  18.567  22.397  32.246 -0.0089  0.1219 -0.0631
 1058BOLB   C4D25392  18.299  21.959  32.279 -0.2443  0.0383  0.1238
 1059BOLB   NC125393  22.781   9.376  24.954 -0.0716  0.0878 -0.0075
 1059BOLB   PO125394  22.793   9.186  24.626 -0.1926  0.0906  0.1066
 1059BOLB   GL125395  23.225   8.985  24.544 -0.0400 -0.2900 -0.0230
 1059BOLB   GL225396  23.375   8.835  24.201  0.0969  0.0337 -0.1374
 1059BOLB   C1A25397  23.255   8.576  24.732  0.3561 -0.3055 -0.1498
 1059BOLB   C2A25398  23.551   8.417  24.664 -0.2285  0.1108 -0.2168
 1059BOLB   C3A25399  23.856   8.094  24.762 -0.1301  0.2192 -0.1976
 1059BOLB   C4A25400  24.097   7.775  24.700 -0.0085 -0.1615  0.3798
 1059BOLB   C1B25401  23.846   8.706  24.020 -0.2366  0.3601 -0.0515
 1059BOLB   C2B25402  24.189   8.882  23.844 -0.2287  0.2742 -0.0141
 1059BOLB   C3B25403  24.594   8.877  23.947  0.1013  0.2489 -0.1766
 1059BOLB   C4B25404  25.011   8.832  24.029 -0.3119  0.1966  0.5290
 1059BOLB   NC225405  26.390   6.835  24.484 -0.0313 -0.2580  0.2881
 1059BOLB   PO225406  26.535   7.153  24.181 -0.0029 -0.1421 -0.1662
 1059BOLB   GL325407  26.175   7.295  24.315  0.2691  0.0383 -0.2447
 1059BOLB   GL425408  26.066   7.167  24.581 -0.1765 -0.0841 -0.2745
 1059BOLB   C1C25409  25.659   7.332  24.275  0.0986  0.1625 -0.0383
 1059BOLB   C2C25410  25.274   7.503  24.508  0.0311  0.1456  0.0286
 1059BOLB   C3C25411  24.860   7.602  24.659  0.2135  0.0827  0.0051
 1059BOLB   C4C25412  24.432   7.706  24.821  0.3651 -0.3237  0.2534
 1059BOLB   C1D25413  25.693   7.278  24.745 -0.0428  0.1429 -0.1574
 1059BOLB   C2D25414  25.400   7.367  25.004  0.1138  0.1655  0.0441
 1059BOLB   C3D25415  25.212   7.822  25.038 -0.1844 -0.0654 -0.3385
 1059BOLB   C4D25416  24.771   8.090  24.838 -0.0722  0.1394  0.1908
 1060BOLB   NC125417  22.589  13.625  16.254 -0.2171 -0.0035 -0.0246
 1060BOLB   PO125418  22.084  13.864  16.162  0.2080  0.0743  0.2152
 1060BOLB   GL125419  22.186  13.632  16.584  0.1534 -0.0699  0.3080
 1060BOLB   GL225420  22.366  13.373  16.600  0.4409  0.1840  0.1030
 1060BOLB   C1A25421  21.911  13.541  16.970  0.2616 -0.1252  0.1156
 1060BOLB   C2A25422  21.909  13.343  17.250  0.0321  0.2657  0.1662
 1060BOLB   C3A25423  21.725  13.040  17.448  0.0990  0.1667 -0.0408
 1060BOLB   C4A25424  21.520  12.749  17.330 -0.0449 -0.1120 -0.2415
 1060BOLB   C1B25425  22.176  13.068  16.931  0.0653  0.2469  0.0640
 1060BOLB   C2B25426  22.090  12.696  17.294 -0.2507  0.1609  0.0169
 1060BOLB   C3B25427  22.308  12.395  17.494 -0.1507 -0.0762  0.0871
 1060BOLB   C4B25428  22.721  12.216  17.608 -0.0757 -0.1830 -0.2064
 1060BOLB   NC225429  23.252  12.358  16.588 -0.2618 -0.1306  0.0259
 1060BOLB   PO225430  23.070  12.277  16.126  0.1162 -0.4985 -0.1762
 1060BOLB   GL325431  22.840  11.998  16.372  0.0556 -0.1131 -0.1627
 1060BOLB   GL425432  22.527  11.852  16.225  0.1257 -0.0744  0.0830
 1060BOLB   C1C25433  22.472  11.945  16.710 -0.0776  0.1369 -0.2326
 1060BOLB   C2C25434  22.034  11.734  16.848 -0.0199 -0.0646  0.0095
 1060BOLB   C3C25435  21.655  11.935  17.096 -0.0059 -0.1873 -0.0394
 1060BOLB   C4C25436  21.667  12.361  17.305  0.0743  0.2147  0.1648
 1060BOLB   C1D25437  22.112  12.052  16.387 -0.3065 -0.1937  0.0230
 1060BOLB   C2D25438  21.732  12.072  16.629 -0.2178 -0.3363 -0.0028
 1060BOLB   C3D25439  21.641  12.451  16.819  0.0411 -0.0357  0.0046
 1060BOLB   C4D25440  21.749  12.867  16.843  0.0715  0.3081 -0.0675
 1061BOLB   NC125441  13.352   5.028  32.715 -0.1660  0.0484  0.0365
 1061BOLB   PO125442  13.778   4.934  32.723  0.1323  0.2638  0.1322
 1061BOLB   GL125443  13.709   4.563  32.598 -0.0874 -0.2192  0.1299
 1061BOLB   GL225444  13.961   4.301  32.431 -0.4242 -0.2456  0.1238
 1061BOLB   C1A25445  13.774   4.271  32.939 -0.0009 -0.1581  0.1122
 1061BOLB   C2A25446  13.733   3.860  33.246 -0.1634 -0.1667  0.0040
 1061BOLB   C3A25447  13.785   3.470  33.408  0.0599  0.0123  0.0411
 1061BOLB   C4A25448  13.785   2.941  33.243 -0.3494 -0.2667  0.2330
 1061BOLB   C1B25449  13.735   4.054  32.090 -0.1396  0.0896 -0.0858
 1061BOLB   C2B25450  13.510   3.666  32.085 -0.0517 -0.0175  0.1186
 1061BOLB   C3B25451  13.391   3.244  32.119 -0.1343 -0.2273  0.1719
 1061BOLB   C4B25452  13.497   2.825  32.244  0.3819 -0.1202  0.1093
 1061BOLB   NC225453  13.283   0.705  33.605 -0.3132 -0.0339  0.1587
 1061BOLB   PO225454  13.131   0.674  33.210 -0.0060  0.2546 -0.0016
 1061BOLB   GL325455  13.296   1.056  32.914 -0.0726  0.4611 -0.0897
 1061BOLB   GL425456  13.239   1.095  32.599  0.0961  0.1162  0.0805
 1061BOLB   C1C25457  13.379   1.413  33.115  0.0420  0.2870  0.2779
 1061BOLB   C2C25458  13.423   1.685  32.979 -0.1308 -0.0521 -0.1986
 1061BOLB   C3C25459  13.434   2.092  33.014  0.2363 -0.0258  0.2833
 1061BOLB   C4C25460  13.720   2.502  33.060  0.5243  0.3232  0.0042
 1061BOLB   C1D25461  13.418   1.527  32.558  0.0052 -0.0386  0.1218
 1061BOLB   C2D25462  13.473   1.913  32.523 -0.0289 -0.2265 -0.2538
 1061BOLB   C3D25463  13.490   2.362  32.523  0.1414  0.0792 -0.1096
 1061BOLB   C4D25464  13.316   2.741  32.721 -0.3183 -0.2422 -0.1969
 1062BOLB   NC125465  17.528  17.554  37.846  0.0208  0.1836  0.1460
 1062BOLB   PO125466  17.764  17.215  38.120  0.0323 -0.0543 -0.4080
 1062BOLB   GL125467  17.895  17.455  38.497 -0.0453  0.1377 -0.0705
 1062BOLB   GL225468  17.649  17.632  38.421  0.1652  0.2770 -0.1430
 1062BOLB   C1A25469  18.169  17.398  38.865 -0.1262 -0.0628 -0.0249
 1062BOLB   C2A25470  18.353  17.558  39.180 -0.0297 -0.2204 -0.1182
 1062BOLB   C3A25471  18.408  17.862  39.423 -0.1195 -0.0471  0.1580
 1062BOLB   C4A25472  18.074  17.831  39.784  0.0310  0.3417 -0.2132
 1062BOLB   C1B25473  17.768  17.646  38.973 -0.1519 -0.3213 -0.0480
 1062BOLB   C2B25474  17.937  17.884  39.259  0.0525  0.1036 -0.0637
 1062BOLB   C3B25475  17.966  18.245  39.415 -0.0036  0.4177 -0.1000
 1062BOLB   C4B25476  18.127  18.609  39.367 -0.0792  0.0063  0.0843
 1062BOLB   NC225477  18.237  19.245  41.820  0.0633 -0.3967 -0.0655
 1062BOLB   PO225478  18.267  18.857  41.959 -0.0603 -0.0179  0.1764
 1062BOLB   GL325479  18.427  18.537  41.797  0.1062 -0.0535  0.1808
 1062BOLB   GL425480  18.685  18.469  41.519 -0.1181 -0.2002  0.1291
 1062BOLB   C1C25481  18.248  18.474  41.334 -0.1226  0.1267  0.0276
 1062BOLB   C2C25482  18.139  18.368  40.979 -0.3250 -0.1669 -0.2342
 1062BOLB   C3C25483  17.996  18.215  40.694  0.0454  0.2247  0.3804
 1062BOLB   C4C25484  17.959  17.915  40.301 -0.2092  0.0527 -0.0697
 1062BOLB   C1D25485  18.636  18.260  41.142  0.0322 -0.0196  0.1212
 1062BOLB   C2D25486  18.633  18.145  40.731 -0.4053  0.0025  0.1872
 1062BOLB   C3D25487  18.523  17.848  40.499  0.1646  0.0601  0.1976
 1062BOLB   C4D25488  18.363  17.635  40.101 -0.3696  0.0927  0.1024
 1063BOLB   NC125489  24.418  14.915  17.852  0.1123  0.1668  0.1183
 1063BOLB   PO125490  24.289  14.844  18.290 -0.2622  0.1873  0.1983
 1063BOLB   GL125491  24.022  14.607  18.509 -0.0249 -0.0511 -0.3268
 1063BOLB   GL225492  24.085  14.532  18.824  0.0204  0.2121  0.2312
 1063BOLB   C1A25493  23.800  14.240  18.256 -0.1741 -0.1068  0.1238
 1063BOLB   C2A25494  23.662  13.878  18.555 -0.0994  0.2387  0.0808
 1063BOLB   C3A25495  23.492  13.950  18.916 -0.0486  0.1803 -0.2272
 1063BOLB   C4A25496  23.279  14.104  19.212 -0.1400  0.1079 -0.0528
 1063BOLB   C1B25497  24.016  14.501  19.246  0.2296  0.1452 -0.1471
 1063BOLB   C2B25498  24.321  14.330  19.542 -0.1779 -0.0759 -0.0956
 1063BOLB   C3B25499  24.544  14.017  19.962 -0.1428  0.1991 -0.0597
 1063BOLB   C4B25500  24.906  13.993  20.306  0.1158  0.1424  0.2362
 1063BOLB   NC225501  25.134  15.105  19.512 -0.0201  0.0752  0.0619
 1063BOLB   PO225502  24.721  15.295  19.627 -0.0649  0.0316  0.3623
 1063BOLB   GL325503  24.344  15.238  19.713 -0.0379 -0.0090  0.1097
 1063BOLB   GL425504  24.334  15.058  19.973 -0.4819  0.1169 -0.0684
 1063BOLB   C1C25505  23.855  15.277  19.755  0.2001 -0.0481  0.0281
 1063BOLB   C2C25506  23.474  15.018  19.811  0.3236  0.0097 -0.3396
 1063BOLB   C3C25507  23.267  14.644  19.759  0.2946  0.0775  0.0411
 1063BOLB   C4C25508  23.065  14.372  19.496 -0.0490 -0.3011 -0.4452
 1063BOLB   C1D25509  23.932  15.034  20.153 -0.5218  0.0282  0.1851
 1063BOLB   C2D25510  23.582  15.276  20.285  0.1121  0.4092  0.0802
 1063BOLB   C3D25511  23.716  15.679  20.553  0.1217  0.3417 -0.1669
 1063BOLB   C4D25512  23.912  16.012  20.338 -0.1449 -0.1289  0.2170
 1064BOLB   NC125513   9.876  12.966  37.257 -0.3078  0.0757 -0.2157
 1064BOLB   PO125514   9.688  13.284  37.111 -0.1137  0.2572  0.1220
 1064BOLB   GL125515   9.357  13.392  37.262  0.0801 -0.0296  0.1597
 1064BOLB   GL225516   9.224  13.705  37.229 -0.0159 -0.2174 -0.1785
 1064BOLB   C1A25517   9.087  13.150  37.406 -0.1510 -0.0042 -0.3058
 1064BOLB   C2A25518   8.727  13.014  37.751 -0.0155  0.1245  0.0308
 1064BOLB   C3A25519   8.408  12.838  38.027  0.3540  0.0000  0.0558
 1064BOLB   C4A25520   7.993  12.805  38.170 -0.3219  0.1533 -0.3667
 1064BOLB   C1B25521   8.994  14.136  37.164  0.0525 -0.0843 -0.2228
 1064BOLB   C2B25522   8.636  14.426  37.305 -0.0350 -0.1099  0.0987
 1064BOLB   C3B25523   8.320  14.703  37.356 -0.0591 -0.2298 -0.2107
 1064BOLB   C4B25524   7.895  14.901  37.537 -0.4803  0.0528  0.0239
 1064BOLB   NC225525   6.484  13.664  40.016 -0.1476 -0.0060  0.2301
 1064BOLB   PO225526   6.572  13.295  40.254  0.1608 -0.1256  0.2043
 1064BOLB   GL325527   6.858  13.270  39.964  0.1255  0.0241  0.1867
 1064BOLB   GL425528   6.982  13.489  39.806  0.0907  0.1030  0.2592
 1064BOLB   C1C25529   7.203  13.020  39.793 -0.1026 -0.4877  0.0229
 1064BOLB   C2C25530   7.517  12.874  39.425 -0.3333  0.3229 -0.0014
 1064BOLB   C3C25531   7.598  12.788  38.991 -0.0741 -0.0896  0.0504
 1064BOLB   C4C25532   7.813  12.916  38.580  0.1880  0.1219 -0.0611
 1064BOLB   C1D25533   7.427  13.426  39.591  0.1710  0.1257 -0.2471
 1064BOLB   C2D25534   7.886  13.222  39.569 -0.0523 -0.3707  0.0824
 1064BOLB   C3D25535   8.100  13.171  39.224 -0.2489  0.0708  0.2286
 1064BOLB   C4D25536   8.464  12.979  39.231  0.3763  0.0189 -0.2029
 1065BOLB   NC125537  17.846  19.714  29.110  0.1624  0.0499  0.1226
 1065BOLB   PO125538  17.364  19.743  29.215  0.1039  0.2822 -0.2458
 1065BOLB   GL125539  17.513  20.182  29.199 -0.0972  0.1924 -0.0727
 1065BOLB   GL225540  17.239  20.490  28.951 -0.2197 -0.0603  0.1822
 1065BOLB   C1A25541  17.756  20.549  29.006  0.1007  0.3696 -0.0644
 1065BOLB   C2A25542  17.982  20.838  28.826  0.0346 -0.3287  0.0092
 1065BOLB   C3A25543  18.270  21.252  28.766 -0.2084  0.0344  0.0328
 1065BOLB   C4A25544  18.398  21.691  28.615  0.0046 -0.2927 -0.2045
 1065BOLB   C1B25545  17.477  20.964  28.728  0.1023  0.1235 -0.3396
 1065BOLB   C2B25546  17.727  21.262  28.769  0.0399  0.0182  0.1953
 1065BOLB   C3B25547  17.889  21.518  28.525  0.3392  0.0194  0.0132
 1065BOLB   C4B25548  18.082  21.615  28.189 -0.0631  0.0996  0.0782
 1065BOLB   NC225549  20.609  23.073  27.936 -0.0648  0.1314 -0.0072
 1065BOLB   PO225550  20.186  23.172  28.202 -0.0755  0.0005  0.1767
 1065BOLB   GL325551  19.973  22.897  28.111  0.0116 -0.1836 -0.2183
 1065BOLB   GL425552  20.029  22.780  27.782  0.2176 -0.2015 -0.2226
 1065BOLB   C1C25553  19.712  22.475  28.074  0.2910 -0.1604  0.4904
 1065BOLB   C2C25554  19.332  22.177  27.925  0.4017 -0.0609  0.5776
 1065BOLB   C3C25555  18.868  22.164  27.932  0.0227  0.1135 -0.1611
 1065BOLB   C4C25556  18.595  21.978  28.255 -0.0217 -0.0921  0.0714
 1065BOLB   C1D25557  19.871  22.520  27.536 -0.0274 -0.1736 -0.0371
 1065BOLB   C2D25558  19.647  22.077  27.478 -0.3232  0.2886 -0.0746
 1065BOLB   C3D25559  19.491  21.615  27.527 -0.2495 -0.0614 -0.1896
 1065BOLB   C4D25560  19.357  21.349  27.291 -0.1998  0.1287 -0.1738
 1066BOLB   NC125561   3.595  12.702  28.021 -0.3863 -0.1890  0.3359
 1066BOLB   PO125562   3.515  12.379  28.398  0.0358  0.2898 -0.2789
 1066BOLB   GL125563   3.933  12.313  28.565  0.0370  0.0547 -0.2119
 1066BOLB   GL225564   3.863  12.202  28.889 -0.1349 -0.1587 -0.0513
 1066BOLB   C1A25565   4.189  12.588  28.761 -0.0512 -0.2173  0.5415
 1066BOLB   C2A25566   4.510  12.636  29.072 -0.0555  0.0034 -0.2306
 1066BOLB   C3A25567   4.903  12.768  29.344  0.2046  0.0065  0.1381
 1066BOLB   C4A25568   5.263  13.024  29.445  0.2748  0.0370  0.2515
 1066BOLB   C1B25569   3.867  11.861  29.275  0.0998 -0.2007  0.0935
 1066BOLB   C2B25570   4.098  11.963  29.749 -0.1309 -0.1819  0.0949
 1066BOLB   C3B25571   4.428  12.163  30.008 -0.0119  0.0595 -0.0451
 1066BOLB   C4B25572   4.818  12.053  30.425 -0.0187 -0.0323  0.1232
 1066BOLB   NC225573   3.867  14.905  28.945 -0.1769 -0.2982  0.1785
 1066BOLB   PO225574   3.860  14.507  29.030  0.4454 -0.0966 -0.0856
 1066BOLB   GL325575   4.257  14.469  29.106 -0.0052  0.1872  0.0510
 1066BOLB   GL425576   4.309  14.941  29.160 -0.1190  0.1138 -0.1723
 1066BOLB   C1C25577   4.640  14.358  29.246 -0.4444  0.3699 -0.0439
 1066BOLB   C2C25578   5.030  14.283  29.478 -0.1163  0.0251  0.3201
 1066BOLB   C3C25579   5.177  13.853  29.560 -0.3712  0.1563 -0.0600
 1066BOLB   C4C25580   5.377  13.487  29.711 -0.1376 -0.5202  0.2485
 1066BOLB   C1D25581   4.702  14.802  28.976 -0.1971 -0.2501 -0.3542
 1066BOLB   C2D25582   5.140  14.711  29.153  0.3087 -0.2179  0.2582
 1066BOLB   C3D25583   5.551  14.672  29.411  0.1934  0.1187 -0.0415
 1066BOLB   C4D25584   5.879  14.942  29.574  0.2176 -0.1995 -0.1737
 1067BOLB   NC125585  13.708   9.518  21.500  0.0748 -0.2382  0.0913
 1067BOLB   PO125586  13.272   9.551  21.364  0.1541 -0.0397  0.2179
 1067BOLB   GL125587  13.062   9.350  21.077 -0.0056 -0.2718  0.3386
 1067BOLB   GL225588  12.983   9.198  21.227  0.4969  0.0831  0.1388
 1067BOLB   C1A25589  12.780   9.506  20.791 -0.0445 -0.1280 -0.4571
 1067BOLB   C2A25590  12.472   9.181  20.528  0.1339  0.0319 -0.1859
 1067BOLB   C3A25591  12.092   9.294  20.432 -0.0520  0.2245  0.0521
 1067BOLB   C4A25592  11.937   9.460  20.084  0.1491 -0.1287  0.0766
 1067BOLB   C1B25593  12.795   8.972  20.819 -0.2699 -0.0050  0.0054
 1067BOLB   C2B25594  12.724   8.668  20.429 -0.1339  0.1500  0.1417
 1067BOLB   C3B25595  12.591   8.579  20.018 -0.2108 -0.0529  0.1998
 1067BOLB   C4B25596  12.634   8.472  19.604 -0.1476  0.0388 -0.3291
 1067BOLB   NC225597  10.268   8.931  18.050  0.0971 -0.2114  0.1638
 1067BOLB   PO225598  10.201   9.347  18.381 -0.4262  0.1956  0.2930
 1067BOLB   GL325599  10.489   9.337  18.772  0.0860  0.4311 -0.3243
 1067BOLB   GL425600  10.139   9.304  18.943 -0.1641 -0.0703  0.2408
 1067BOLB   C1C25601  10.762   9.459  19.109 -0.0055  0.0591 -0.0982
 1067BOLB   C2C25602  11.059   9.546  19.402  0.1058 -0.4427 -0.1436
 1067BOLB   C3C25603  11.458   9.536  19.422  0.3035  0.2114 -0.0887
 1067BOLB   C4C25604  11.762   9.610  19.652  0.0409 -0.0061  0.0232
 1067BOLB   C1D25605  10.371   9.239  19.342  0.0368 -0.0443 -0.1295
 1067BOLB   C2D25606  10.621   9.229  19.613  0.1332 -0.0497  0.1907
 1067BOLB   C3D25607  10.864   9.364  19.876  0.2253 -0.2549  0.1135
 1067BOLB   C4D25608  11.295   9.408  19.941  0.1435 -0.1226  0.0975
 1068BOLB   NC125609  19.040  18.718  27.613 -0.0295  0.0555 -0.1429
 1068BOLB   PO125610  18.967  18.436  27.273  0.4151 -0.1521 -0.4067
 1068BOLB   GL125611  19.281  18.713  27.096  0.0805  0.0349  0.0126
 1068BOLB   GL225612  19.698  18.612  26.925 -0.1734 -0.0738 -0.2022
 1068BOLB   C1A25613  19.525  18.966  27.222 -0.0133 -0.4823  0.2042
 1068BOLB   C2A25614  19.832  19.244  27.230 -0.0414 -0.1046 -0.1288
 1068BOLB   C3A25615  20.147  19.579  27.325 -0.4157  0.0348 -0.4178
 1068BOLB   C4A25616  20.352  19.812  27.623  0.1213  0.2175 -0.2066
 1068BOLB   C1B25617  19.989  18.960  26.737 -0.0828  0.0366  0.0550
 1068BOLB   C2B25618  20.400  18.916  26.570  0.3166 -0.2545 -0.0152
 1068BOLB   C3B25619  20.713  19.039  26.300  0.0340 -0.0983 -0.0394
 1068BOLB   C4B25620  20.576  19.168  25.883 -0.0344  0.1555  0.0422
 1068BOLB   NC225621  22.401  21.754  28.090  0.2472 -0.1151 -0.1968
 1068BOLB   PO225622  21.996  21.488  28.106  0.1691 -0.1044  0.0387
 1068BOLB   GL325623  21.895  21.109  28.081  0.2618 -0.2443 -0.1200
 1068BOLB   GL425624  22.057  20.971  28.369  0.6036  0.0316 -0.0030
 1068BOLB   C1C25625  21.532  20.796  28.053 -0.2141  0.3079  0.2107
 1068BOLB   C2C25626  21.326  20.445  27.939  0.1137  0.2861  0.0901
 1068BOLB   C3C25627  20.906  20.260  27.820  0.1010  0.3286 -0.0333
 1068BOLB   C4C25628  20.504  20.124  27.614  0.0151 -0.4188 -0.4444
 1068BOLB   C1D25629  21.698  20.843  28.517  0.0729 -0.5269  0.0804
 1068BOLB   C2D25630  21.505  20.738  28.947  0.0013 -0.5635  0.0459
 1068BOLB   C3D25631  21.145  20.748  29.208 -0.1364 -0.2291 -0.0411
 1068BOLB   C4D25632  20.646  20.745  29.434 -0.3319 -0.2023  0.3131
 1069BOLB   NC125633  13.027  20.563  32.015  0.3109  0.1475  0.3953
 1069BOLB   PO125634  12.714  20.847  32.197 -0.3436  0.2245  0.1115
 1069BOLB   GL125635  12.549  21.120  32.541 -0.0297 -0.0539  0.0725
 1069BOLB   GL225636  12.603  21.510  32.497 -0.0734 -0.1138 -0.0193
 1069BOLB   C1A25637  12.794  21.383  32.938  0.0789 -0.2175 -0.0148
 1069BOLB   C2A25638  12.584  21.656  33.213 -0.2409  0.2323  0.0461
 1069BOLB   C3A25639  12.379  21.937  33.558 -0.0189  0.5691  0.0578
 1069BOLB   C4A25640  12.103  22.111  33.811  0.0327  0.0675 -0.0963
 1069BOLB   C1B25641  12.773  21.925  32.680  0.0154  0.0007  0.2511
 1069BOLB   C2B25642  12.800  22.146  33.054  0.2783 -0.4024 -0.3410
 1069BOLB   C3B25643  12.802  22.437  33.397  0.0390 -0.1785  0.3630
 1069BOLB   C4B25644  12.509  22.349  33.805 -0.0326  0.3743  0.2395
 1069BOLB   NC225645  10.863  24.186  35.044 -0.0355  0.2251 -0.0203
 1069BOLB   PO225646  11.274  24.063  34.913  0.0738 -0.1535  0.0545
 1069BOLB   GL325647  11.247  23.599  34.839  0.0263 -0.1344 -0.1302
 1069BOLB   GL425648  10.956  23.440  34.947 -0.3486 -0.3452  0.0516
 1069BOLB   C1C25649  11.319  23.264  34.637  0.1250 -0.2449  0.0806
 1069BOLB   C2C25650  11.636  23.032  34.392 -0.3190 -0.0058  0.1115
 1069BOLB   C3C25651  11.917  22.683  34.381  0.3377  0.0726 -0.0364
 1069BOLB   C4C25652  11.911  22.376  34.061 -0.3029 -0.0596  0.2644
 1069BOLB   C1D25653  11.314  23.370  35.287 -0.0054  0.0795 -0.2483
 1069BOLB   C2D25654  11.505  22.948  35.434  0.4254  0.1654 -0.0952
 1069BOLB   C3D25655  11.708  22.509  35.514  0.0706  0.1944 -0.0016
 1069BOLB   C4D25656  11.646  22.151  35.386 -0.0876 -0.3267 -0.2870
 1070BOLB   NC125657   0.024  15.117  33.715  0.0490 -0.0859  0.1751
 1070BOLB   PO125658   0.059  15.081  33.254  0.1910  0.0917  0.0508
 1070BOLB   GL125659  26.646  14.917  33.361 -0.3370  0.3430 -0.0140
 1070BOLB   GL225660  26.424  15.072  33.160 -0.3379  0.1786  0.2887
 1070BOLB   C1A25661  26.321  14.669  33.406 -0.0188 -0.1120 -0.0102
 1070BOLB   C2A25662  25.896  14.615  33.546  0.1361 -0.2660 -0.3857
 1070BOLB   C3A25663  25.499  14.385  33.665  0.1983 -0.0801  0.0510
 1070BOLB   C4A25664  25.117  14.659  33.445 -0.0858 -0.0669  0.0544
 1070BOLB   C1B25665  26.222  15.038  32.773 -0.0680  0.2982 -0.0023
 1070BOLB   C2B25666  25.928  14.848  32.511 -0.2555  0.0855  0.0790
 1070BOLB   C3B25667  25.690  14.832  32.237  0.1062  0.0532  0.0418
 1070BOLB   C4B25668  25.305  14.561  32.069  0.1416 -0.0364 -0.2269
 1070BOLB   NC225669  22.666  15.342  32.615  0.6183  0.0807  0.0297
 1070BOLB   PO225670  22.629  14.971  33.029 -0.1218 -0.1533  0.2064
 1070BOLB   GL325671  23.070  15.180  33.000  0.0059 -0.0208  0.1986
 1070BOLB   GL425672  23.232  15.456  33.173  0.2900 -0.1691  0.3093
 1070BOLB   C1C25673  23.522  15.034  33.140  0.3212 -0.0281 -0.1005
 1070BOLB   C2C25674  23.893  14.975  33.396 -0.4617 -0.0460  0.0947
 1070BOLB   C3C25675  24.294  14.815  33.574  0.1597  0.0645 -0.2622
 1070BOLB   C4C25676  24.687  14.781  33.537  0.2688  0.1892 -0.0383
 1070BOLB   C1D25677  23.656  15.526  32.882 -0.0960  0.4467 -0.0228
 1070BOLB   C2D25678  24.095  15.790  32.921 -0.2285 -0.0616 -0.1673
 1070BOLB   C3D25679  24.527  15.647  32.904  0.0725  0.0389  0.0284
 1070BOLB   C4D25680  24.753  15.320  33.071  0.2409 -0.2561  0.5605
 1071BOLB   NC125681  11.555   6.442  35.128 -0.3577  0.2346  0.2695
 1071BOLB   PO125682  11.284   6.755  35.043 -0.1523 -0.0907  0.2354
 1071BOLB   GL125683  11.071   6.551  35.085  0.1953  0.0984 -0.1768
 1071BOLB   GL225684  10.736   6.648  35.190 -0.0201  0.1777  0.0093
 1071BOLB   C1A25685  10.890   6.198  35.338 -0.1909  0.1197  0.1734
 1071BOLB   C2A25686  10.527   5.884  35.452  0.2866 -0.1635  0.0431
 1071BOLB   C3A25687  10.219   5.988  35.811 -0.0292 -0.0827  0.0014
 1071BOLB   C4A25688   9.863   6.046  36.152  0.0949  0.0525  0.2997
 1071BOLB   C1B25689  10.397   6.659  34.954 -0.1725 -0.2485 -0.0746
 1071BOLB   C2B25690  10.018   6.462  34.976  0.3934  0.1676  0.1668
 1071BOLB   C3B25691   9.906   6.124  35.080  0.1465 -0.1213 -0.1747
 1071BOLB   C4B25692  10.025   5.794  35.214 -0.2313 -0.1445 -0.2930
 1071BOLB   NC225693   9.105   4.677  37.706 -0.1403  0.0319 -0.1496
 1071BOLB   PO225694   8.724   4.892  37.834 -0.1783 -0.1869  0.1334
 1071BOLB   GL325695   9.002   5.188  37.436 -0.4511 -0.1119  0.1017
 1071BOLB   GL425696   9.067   4.970  37.086 -0.1215 -0.2676 -0.0114
 1071BOLB   C1C25697   9.258   5.551  37.236 -0.0429 -0.0890  0.0119
 1071BOLB   C2C25698   9.195   5.923  37.042 -0.1671  0.1420 -0.0693
 1071BOLB   C3C25699   9.562   6.133  36.788  0.0974  0.0815  0.3031
 1071BOLB   C4C25700   9.613   6.262  36.429 -0.1346  0.2376 -0.1349
 1071BOLB   C1D25701   9.351   5.169  36.948  0.0314 -0.0805 -0.0654
 1071BOLB   C2D25702   9.642   5.217  37.160  0.0603  0.3395 -0.2288
 1071BOLB   C3D25703  10.088   5.311  37.315  0.2156  0.0919  0.0286
 1071BOLB   C4D25704  10.375   5.475  37.566  0.0798 -0.1499  0.0724
 1072BOLB   NC125705  15.318   4.509  28.831 -0.0585  0.0116 -0.0586
 1072BOLB   PO125706  15.117   4.235  29.084  0.0711 -0.0540  0.3239
 1072BOLB   GL125707  15.227   3.808  28.929 -0.0623 -0.2965  0.0320
 1072BOLB   GL225708  15.013   3.644  28.691  0.1202 -0.1024 -0.1418
 1072BOLB   C1A25709  15.425   3.398  28.875 -0.0783 -0.0661  0.4290
 1072BOLB   C2A25710  15.394   3.023  28.792  0.0274  0.0898  0.0654
 1072BOLB   C3A25711  15.348   2.811  29.129  0.1149 -0.1642 -0.0376
 1072BOLB   C4A25712  15.478   2.429  29.223 -0.2098  0.0435  0.2411
 1072BOLB   C1B25713  14.855   3.314  28.465  0.1443  0.0760 -0.0293
 1072BOLB   C2B25714  14.509   3.334  28.184 -0.1718 -0.1876  0.4682
 1072BOLB   C3B25715  14.233   3.001  27.930  0.0968 -0.1681  0.1795
 1072BOLB   C4B25716  14.087   2.895  27.552 -0.3485  0.1631  0.0821
 1072BOLB   NC225717  14.450   0.225  29.480  0.3099 -0.0389 -0.2077
 1072BOLB   PO225718  14.067   0.297  29.280  0.0862  0.1272 -0.0660
 1072BOLB   GL325719  14.321   0.649  29.370  0.3352 -0.2691  0.1912
 1072BOLB   GL425720  14.134   0.918  29.612  0.0857 -0.0107 -0.1660
 1072BOLB   C1C25721  14.828   0.953  29.476 -0.2468 -0.1872  0.1614
 1072BOLB   C2C25722  15.166   1.305  29.457  0.0735 -0.1184 -0.0149
 1072BOLB   C3C25723  15.315   1.604  29.348  0.0653  0.0567 -0.3574
 1072BOLB   C4C25724  15.445   1.971  29.243  0.3720  0.1880 -0.2795
 1072BOLB   C1D25725  14.411   1.332  29.611  0.0042 -0.1166 -0.1177
 1072BOLB   C2D25726  14.549   1.617  29.967  0.1065  0.0080  0.0021
 1072BOLB   C3D25727  14.694   1.954  30.063 -0.0475 -0.0223  0.1498
 1072BOLB   C4D25728  14.883   2.311  30.099  0.1883 -0.2849  0.1799
 1073BOLB   NC125729  22.879  12.369  42.008  0.0190 -0.1587  0.2533
 1073BOLB   PO125730  23.078  12.453  41.556  0.3012 -0.0795  0.1799
 1073BOLB   GL125731  22.983  12.261  41.204 -0.1697  0.0825 -0.3328
 1073BOLB   GL225732  22.943  12.480  41.017  0.2524 -0.4753  0.6475
 1073BOLB   C1A25733  22.863  12.044  40.799  0.1370 -0.4529 -0.2576
 1073BOLB   C2A25734  22.714  11.844  40.410 -0.4809 -0.3034 -0.3632
 1073BOLB   C3A25735  22.739  11.556  40.190 -0.0447  0.0056  0.1029
 1073BOLB   C4A25736  22.801  11.258  39.748 -0.3029  0.0124  0.1613
 1073BOLB   C1B25737  22.940  12.482  40.593  0.0935  0.1338 -0.1917
 1073BOLB   C2B25738  22.707  12.380  40.209 -0.2065  0.3671  0.4589
 1073BOLB   C3B25739  22.482  12.046  40.045  0.3185 -0.0897  0.3265
 1073BOLB   C4B25740  22.564  11.746  39.748 -0.2373 -0.0194 -0.0793
 1073BOLB   NC225741  24.137  10.679  40.278 -0.3370  0.1617  0.3612
 1073BOLB   PO225742  24.476  10.524  40.245 -0.0266  0.2316  0.3566
 1073BOLB   GL325743  24.077  10.370  39.899  0.1260 -0.3548  0.1000
 1073BOLB   GL425744  23.784  10.360  40.126  0.1111  0.3693 -0.1154
 1073BOLB   C1C25745  24.132  10.509  39.488 -0.0240 -0.0499  0.1663
 1073BOLB   C2C25746  23.819  10.609  39.135 -0.1853  0.2476 -0.1349
 1073BOLB   C3C25747  23.441  10.949  39.218 -0.1905  0.1153 -0.0945
 1073BOLB   C4C25748  23.105  10.887  39.558 -0.2015  0.0124  0.0445
 1073BOLB   C1D25749  23.483  10.100  39.894 -0.0244 -0.1979  0.2671
 1073BOLB   C2D25750  22.981   9.938  39.882  0.1242 -0.0978 -0.4312
 1073BOLB   C3D25751  22.549   9.830  39.786 -0.2423 -0.0724 -0.1458
 1073BOLB   C4D25752  22.255   9.776  39.348 -0.0684  0.0411 -0.1709
 1074BOLB   NC125753  22.845  11.933  36.049 -0.2140 -0.0873  0.2973
 1074BOLB   PO125754  22.815  11.680  36.418 -0.0489 -0.0151  0.0100
 1074BOLB   GL125755  23.073  11.356  36.509 -0.2653 -0.0583 -0.1833
 1074BOLB   GL225756  22.760  11.154  36.698 -0.1951 -0.0880 -0.2131
 1074BOLB   C1A25757  23.447  11.289  36.310 -0.3108  0.0449 -0.0609
 1074BOLB   C2A25758  23.650  10.839  36.487  0.2342  0.1595 -0.2047
 1074BOLB   C3A25759  23.874  10.694  36.851 -0.0385 -0.0111  0.0674
 1074BOLB   C4A25760  24.123  10.672  37.320 -0.2526 -0.0150  0.2066
 1074BOLB   C1B25761  23.194  11.145  36.909 -0.0930 -0.0313  0.1457
 1074BOLB   C2B25762  23.466  10.888  37.116 -0.1795  0.2054  0.3833
 1074BOLB   C3B25763  23.558  10.557  37.505 -0.1922 -0.1659  0.1042
 1074BOLB   C4B25764  23.803  10.356  37.864  0.3309  0.0145  0.0979
 1074BOLB   NC225765  24.740  10.793  39.788  0.0639 -0.2202  0.0204
 1074BOLB   PO225766  25.026  10.532  39.533 -0.0233  0.3311 -0.0379
 1074BOLB   GL325767  24.922  10.829  39.235  0.1501 -0.5909  0.0026
 1074BOLB   GL425768  25.174  10.899  38.967 -0.1098  0.2229  0.0638
 1074BOLB   C1C25769  24.693  10.873  38.756  0.2545 -0.1036  0.0283
 1074BOLB   C2C25770  24.539  10.881  38.314  0.0029  0.1507  0.0350
 1074BOLB   C3C25771  24.559  10.596  38.031  0.2512 -0.2275  0.1545
 1074BOLB   C4C25772  24.236  10.544  37.746 -0.2160 -0.1368  0.0790
 1074BOLB   C1D25773  24.908  11.248  38.981 -0.2223 -0.3223 -0.0464
 1074BOLB   C2D25774  24.402  11.297  38.872 -0.0110 -0.0797 -0.0520
 1074BOLB   C3D25775  23.956  11.309  38.844  0.0620  0.0883  0.0781
 1074BOLB   C4D25776  23.627  11.330  38.526 -0.1759 -0.1515  0.3674
 1075BOLB   NC125777   8.539  13.789  27.635 -0.1469  0.1725 -0.0020
 1075BOLB   PO125778   8.106  13.771  27.836 -0.0031  0.3181 -0.3282
 1075BOLB   GL125779   7.715  13.742  27.637 -0.0170 -0.1699 -0.2393
 1075BOLB   GL225780   7.512  13.706  27.943 -0.0215  0.2805  0.0906
 1075BOLB   C1A25781   7.372  13.534  27.337 -0.0936  0.1305 -0.1908
 1075BOLB   C2A25782   6.926  13.335  27.292 -0.0489 -0.1417  0.1139
 1075BOLB   C3A25783   6.565  13.117  27.249 -0.1837  0.1081  0.3915
 1075BOLB   C4A25784   6.133  13.003  27.214  0.0422  0.1108  0.1482
 1075BOLB   C1B25785   7.130  13.402  27.810  0.1115  0.1031 -0.1017
 1075BOLB   C2B25786   6.761  13.114  27.713 -0.1960 -0.1049 -0.3390
 1075BOLB   C3B25787   6.442  13.097  27.701  0.0131 -0.2244 -0.0807
 1075BOLB   C4B25788   6.148  13.335  27.575 -0.1374 -0.2299 -0.1994
 1075BOLB   NC225789   3.976  13.309  26.282 -0.1025  0.0251 -0.1572
 1075BOLB   PO225790   4.014  13.666  25.999 -0.1227 -0.0714 -0.1231
 1075BOLB   GL325791   4.389  13.858  25.961  0.0702 -0.1082 -0.2460
 1075BOLB   GL425792   4.403  13.979  26.228 -0.3847  0.0557 -0.0135
 1075BOLB   C1C25793   4.852  13.616  26.031  0.2815 -0.3271 -0.0082
 1075BOLB   C2C25794   5.319  13.486  26.240  0.0345 -0.1480 -0.1603
 1075BOLB   C3C25795   5.640  13.102  26.427  0.2484 -0.0476 -0.2927
 1075BOLB   C4C25796   5.730  12.990  26.925  0.2512  0.1207 -0.0258
 1075BOLB   C1D25797   4.775  14.249  26.368 -0.2599 -0.1046 -0.0224
 1075BOLB   C2D25798   4.995  14.327  26.815  0.0124  0.1013  0.0381
 1075BOLB   C3D25799   5.388  14.261  27.066  0.0922 -0.0958 -0.0864
 1075BOLB   C4D25800   5.692  14.427  27.369 -0.2338 -0.1234 -0.1802
 1076BOLB   NC125801  13.533  11.601  26.951 -0.1625 -0.0452 -0.0760
 1076BOLB   PO125802  13.659  11.895  26.566  0.0833  0.2614  0.1281
 1076BOLB   GL125803  13.958  12.182  26.465  0.1850  0.1880  0.1989
 1076BOLB   GL225804  13.938  12.182  26.098 -0.1633 -0.0086 -0.3348
 1076BOLB   C1A25805  14.469  12.165  26.523 -0.3945 -0.0378  0.0839
 1076BOLB   C2A25806  14.828  12.452  26.475  0.1896 -0.0780  0.0063
 1076BOLB   C3A25807  15.155  12.536  26.331 -0.1561  0.1428  0.5028
 1076BOLB   C4A25808  15.429  12.628  26.003 -0.1638 -0.1073 -0.2336
 1076BOLB   C1B25809  14.463  12.015  26.079 -0.0108 -0.0925  0.1694
 1076BOLB   C2B25810  14.897  12.111  26.145  0.1194 -0.2744  0.1735
 1076BOLB   C3B25811  15.268  12.161  25.862 -0.1889  0.1963 -0.1925
 1076BOLB   C4B25812  15.616  12.190  25.525  0.3600  0.1652 -0.1987
 1076BOLB   NC225813  15.386  11.341  23.492 -0.0610 -0.2557 -0.0527
 1076BOLB   PO225814  15.458  11.532  23.821 -0.1055  0.0419  0.0835
 1076BOLB   GL325815  15.454  11.716  24.173  0.2921  0.1276  0.1296
 1076BOLB   GL425816  15.480  12.066  24.002 -0.3918 -0.5043  0.1182
 1076BOLB   C1C25817  15.239  11.802  24.495  0.1220  0.1680  0.0101
 1076BOLB   C2C25818  15.301  12.016  24.822 -0.0408  0.4473  0.0457
 1076BOLB   C3C25819  15.250  12.348  25.191  0.1170 -0.1550 -0.0117
 1076BOLB   C4C25820  15.338  12.614  25.550  0.1476 -0.0341  0.0109
 1076BOLB   C1D25821  15.031  12.113  24.204 -0.2455 -0.3951  0.3039
 1076BOLB   C2D25822  14.719  12.415  24.173 -0.1885 -0.0314 -0.2737
 1076BOLB   C3D25823  14.414  12.728  24.214  0.0277 -0.2055  0.1437
 1076BOLB   C4D25824  14.223  12.826  24.550  0.0034  0.0804 -0.0796
 1077BOLB   NC125825   8.467  14.432  25.433  0.2548  0.2919  0.0348
 1077BOLB   PO125826   8.577  14.024  25.546 -0.0216 -0.0025  0.2433
 1077BOLB   GL125827   8.285  13.932  25.240 -0.2297  0.1779  0.1788
 1077BOLB   GL225828   8.064  14.150  25.173 -0.3038 -0.1936  0.1901
 1077BOLB   C1A25829   8.002  13.679  24.928  0.0170  0.0736  0.0471
 1077BOLB   C2A25830   7.853  13.255  24.810  0.0438  0.0783 -0.1433
 1077BOLB   C3A25831   7.623  12.914  24.779  0.0486  0.0995 -0.2568
 1077BOLB   C4A25832   7.254  12.581  24.571  0.0888  0.1457  0.0736
 1077BOLB   C1B25833   7.693  14.051  25.106  0.1374 -0.0451 -0.0109
 1077BOLB   C2B25834   7.600  13.650  25.196  0.0238  0.0014  0.2280
 1077BOLB   C3B25835   7.391  13.301  24.998 -0.0087 -0.0071  0.2443
 1077BOLB   C4B25836   7.021  13.083  24.804 -0.1040  0.0778  0.0843
 1077BOLB   NC225837   5.655  11.328  23.143  0.0193  0.0124  0.1923
 1077BOLB   PO225838   5.638  11.788  23.269  0.0089 -0.1440 -0.1024
 1077BOLB   GL325839   5.974  12.026  23.477  0.0013 -0.3125  0.0038
 1077BOLB   GL425840   6.304  11.958  23.370 -0.1014  0.0317 -0.1415
 1077BOLB   C1C25841   5.965  12.279  23.706 -0.2921 -0.0093  0.1397
 1077BOLB   C2C25842   6.313  12.398  23.818 -0.0144 -0.1381 -0.2972
 1077BOLB   C3C25843   6.563  12.311  24.124  0.1042 -0.0812  0.1738
 1077BOLB   C4C25844   6.845  12.485  24.502  0.0323 -0.0071 -0.1446
 1077BOLB   C1D25845   6.556  11.683  23.352  0.0497  0.3446 -0.3797
 1077BOLB   C2D25846   6.947  11.614  23.472  0.1098 -0.3613 -0.0612
 1077BOLB   C3D25847   7.278  11.752  23.396  0.3353  0.3001  0.1008
 1077BOLB   C4D25848   7.669  11.671  23.247 -0.2096 -0.2383  0.0838
 1078BOLB   NC125849  12.251   9.245  22.358 -0.0671  0.2025 -0.2263
 1078BOLB   PO125850  12.247   8.942  22.725 -0.0200 -0.1557  0.0198
 1078BOLB   GL125851  11.966   8.794  22.356  0.2249  0.0413 -0.3740
 1078BOLB   GL225852  11.851   9.054  22.169 -0.3382  0.0472 -0.0140
 1078BOLB   C1A25853  11.951   8.584  21.975 -0.0447 -0.0789  0.0636
 1078BOLB   C2A25854  11.604   8.384  21.711 -0.0812 -0.0314 -0.0792
 1078BOLB   C3A25855  11.352   8.379  21.316  0.2230 -0.0246  0.1497
 1078BOLB   C4A25856  11.059   8.601  21.001  0.3089 -0.0280  0.1405
 1078BOLB   C1B25857  11.520   8.860  21.910 -0.0077  0.0075 -0.3793
 1078BOLB   C2B25858  11.180   8.613  21.962  0.0085  0.0554  0.0976
 1078BOLB   C3B25859  10.849   8.545  22.197  0.0276 -0.0133 -0.0171
 1078BOLB   C4B25860  10.573   8.335  22.463 -0.2629  0.2870  0.1605
 1078BOLB   NC225861   9.223   7.956  19.622 -0.2779  0.0263 -0.0881
 1078BOLB   PO225862   9.605   7.862  19.613 -0.1451 -0.0985  0.1882
 1078BOLB   GL325863   9.756   8.142  19.883  0.4238 -0.1065  0.0937
 1078BOLB   GL425864   9.577   8.200  20.130  0.2717 -0.0146  0.1009
 1078BOLB   C1C25865   9.991   8.475  20.060 -0.0278 -0.1069  0.1277
 1078BOLB   C2C25866  10.303   8.627  20.314  0.0237  0.1216 -0.0242
 1078BOLB   C3C25867  10.545   8.880  20.495  0.1610  0.2503  0.2613
 1078BOLB   C4C25868  10.940   8.907  20.757  0.0279 -0.2719  0.1256
 1078BOLB   C1D25869   9.696   8.463  20.543  0.1839  0.3160  0.1011
 1078BOLB   C2D25870  10.035   8.547  20.734 -0.1803 -0.1395  0.1045
 1078BOLB   C3D25871  10.455   8.656  20.883 -0.2204 -0.0607  0.0937
 1078BOLB   C4D25872  10.661   8.725  21.179  0.1239  0.1466 -0.1922
 1079BOLB   NC125873  11.293  20.059  25.751 -0.2030  0.0561  0.2209
 1079BOLB   PO125874  11.183  19.887  25.417  0.0729  0.1935  0.0093
 1079BOLB   GL125875  11.205  20.268  25.347  0.3129 -0.1594  0.1828
 1079BOLB   GL225876  10.927  20.407  25.674 -0.0067  0.0761  0.1216
 1079BOLB   C1A25877  11.042  20.666  25.222  0.2142  0.1870  0.1241
 1079BOLB   C2A25878  10.843  20.958  25.215  0.0465 -0.0860 -0.1330
 1079BOLB   C3A25879  10.562  21.284  25.093  0.2941 -0.0120  0.0971
 1079BOLB   C4A25880  10.432  21.550  24.828 -0.1718  0.1673 -0.2335
 1079BOLB   C1B25881  10.616  20.651  25.539  0.1845 -0.2469 -0.0663
 1079BOLB   C2B25882  10.258  20.864  25.348  0.0199 -0.0891  0.2728
 1079BOLB   C3B25883   9.851  20.874  25.355 -0.0503  0.2505 -0.3038
 1079BOLB   C4B25884   9.619  20.858  25.700 -0.2890 -0.1046  0.1615
 1079BOLB   NC225885   9.345  23.249  24.299  0.0214 -0.0992  0.1773
 1079BOLB   PO225886   8.984  23.175  24.137  0.0423 -0.1517  0.0998
 1079BOLB   GL325887   9.169  22.762  24.210 -0.0991  0.1380  0.3077
 1079BOLB   GL425888   9.237  22.832  24.568  0.1822  0.1170  0.1455
 1079BOLB   C1C25889   9.365  22.474  23.930  0.2076  0.1445  0.3347
 1079BOLB   C2C25890   9.760  22.282  24.051 -0.0233 -0.1890 -0.0417
 1079BOLB   C3C25891  10.154  22.080  24.175 -0.3208 -0.0733  0.0346
 1079BOLB   C4C25892  10.459  21.855  24.500  0.0476  0.4100  0.3936
 1079BOLB   C1D25893   9.397  22.445  24.616  0.0420  0.0472 -0.2187
 1079BOLB   C2D25894   9.586  22.055  24.545 -0.2111  0.5970  0.0409
 1079BOLB   C3D25895   9.791  21.804  24.410  0.2621 -0.0278 -0.1047
 1079BOLB   C4D25896   9.994  21.447  24.543 -0.1587  0.0436 -0.0765
 1080BOLB   NC125897  14.807   5.891  36.169 -0.1332  0.1799  0.0609
 1080BOLB   PO125898  14.352   6.000  36.091  0.2390  0.1029  0.0047
 1080BOLB   GL125899  14.266   5.610  35.889 -0.1131  0.3247  0.0921
 1080BOLB   GL225900  14.567   5.422  36.084  0.1760 -0.1780 -0.3653
 1080BOLB   C1A25901  14.061   5.233  35.848 -0.1478 -0.1795  0.2291
 1080BOLB   C2A25902  13.667   4.946  35.677  0.3100  0.1042  0.1490
 1080BOLB   C3A25903  13.578   4.660  35.925 -0.0640 -0.0386 -0.1549
 1080BOLB   C4A25904  13.409   4.253  36.039 -0.0212  0.0493 -0.1463
 1080BOLB   C1B25905  14.567   4.958  36.086 -0.2383 -0.1754  0.2445
 1080BOLB   C2B25906  14.457   4.596  36.179  0.1757  0.0202  0.1919
 1080BOLB   C3B25907  14.217   4.340  36.430  0.0396  0.5233  0.0769
 1080BOLB   C4B25908  13.733   4.440  36.449  0.0669  0.1242 -0.3799
 1080BOLB   NC225909  13.076   1.804  37.034  0.2419 -0.0949  0.2614
 1080BOLB   PO225910  13.356   2.065  36.785 -0.1013 -0.1113 -0.1414
 1080BOLB   GL325911  13.235   2.505  36.868  0.1618 -0.1548  0.1449
 1080BOLB   GL425912  13.194   2.698  36.657  0.2250 -0.1971  0.3919
 1080BOLB   C1C25913  13.065   2.936  37.041 -0.0663  0.1666 -0.0041
 1080BOLB   C2C25914  13.236   3.346  36.914 -0.1532 -0.0767  0.0544
 1080BOLB   C3C25915  13.334   3.662  36.608  0.0185  0.0513 -0.4053
 1080BOLB   C4C25916  13.521   3.931  36.287  0.1220  0.2042 -0.0147
 1080BOLB   C1D25917  13.456   3.074  36.456  0.1757  0.2073 -0.3064
 1080BOLB   C2D25918  13.716   3.439  36.338  0.0645 -0.1156  0.2904
 1080BOLB   C3D25919  14.128   3.560  36.286 -0.2396 -0.3363 -0.0857
 1080BOLB   C4D25920  14.499   3.808  36.488  0.1847 -0.2084 -0.1568
 1081BOLB   NC125921  15.246   0.685  33.661 -0.0932 -0.0373  0.3133
 1081BOLB   PO125922  15.382   0.694  33.187  0.0515 -0.2828  0.2639
 1081BOLB   GL125923  15.385   1.084  33.015  0.2269  0.0891  0.0704
 1081BOLB   GL225924  15.361   0.997  32.632 -0.2349 -0.2382 -0.1106
 1081BOLB   C1A25925  15.164   1.437  32.844  0.0176 -0.0330 -0.0711
 1081BOLB   C2A25926  15.298   1.788  33.008  0.1427 -0.0749  0.0538
 1081BOLB   C3A25927  15.609   2.173  33.032  0.2006  0.3722  0.2043
 1081BOLB   C4A25928  15.722   2.569  32.863  0.0926 -0.0805  0.0578
 1081BOLB   C1B25929  15.597   1.362  32.583  0.1006 -0.2095  0.0960
 1081BOLB   C2B25930  15.420   1.757  32.530  0.3633  0.1727 -0.0086
 1081BOLB   C3B25931  15.544   2.222  32.555  0.0075  0.1376  0.2096
 1081BOLB   C4B25932  15.714   2.581  32.376 -0.0922 -0.2002  0.0088
 1081BOLB   NC225933  15.886   4.849  32.211 -0.0655  0.2460  0.1616
 1081BOLB   PO225934  16.323   4.718  32.091 -0.1783  0.2840 -0.0010
 1081BOLB   GL325935  16.298   4.247  32.268 -0.2269 -0.2276  0.1743
 1081BOLB   GL425936  16.383   4.143  32.551  0.0061  0.3600 -0.3120
 1081BOLB   C1C25937  16.083   3.841  32.255 -0.3170 -0.1198  0.0063
 1081BOLB   C2C25938  15.700   3.690  32.454 -0.1066  0.0326 -0.3909
 1081BOLB   C3C25939  15.587   3.332  32.616 -0.3770  0.1360 -0.0144
 1081BOLB   C4C25940  15.721   2.943  32.809  0.3594 -0.1176 -0.3905
 1081BOLB   C1D25941  16.507   3.734  32.572  0.0595  0.1938 -0.2536
 1081BOLB   C2D25942  16.739   3.351  32.496  0.0880 -0.1470  0.0254
 1081BOLB   C3D25943  16.662   2.982  32.536  0.1750 -0.0091 -0.0742
 1081BOLB   C4D25944  16.959   2.716  32.619 -0.1949  0.0915  0.0557
 1082BOLB   NC125945  15.211  14.176  20.065  0.1934  0.0392 -0.1730
 1082BOLB   PO125946  15.485  13.992  19.838 -0.0681  0.0740 -0.0196
 1082BOLB   GL125947  15.191  14.107  19.426  0.3026 -0.0762  0.1967
 1082BOLB   GL225948  15.064  14.339  19.491  0.1171  0.0071 -0.0088
 1082BOLB   C1A25949  15.035  13.981  18.971  0.0764 -0.2144 -0.4785
 1082BOLB   C2A25950  14.640  13.913  18.679  0.1693  0.0055 -0.0730
 1082BOLB   C3A25951  14.555  13.881  18.252 -0.4542 -0.2309 -0.2110
 1082BOLB   C4A25952  14.595  14.085  17.803 -0.2806 -0.0099  0.1171
 1082BOLB   C1B25953  14.880  14.486  19.059 -0.3255  0.4808 -0.2424
 1082BOLB   C2B25954  14.741  14.408  18.730 -0.0892  0.0775 -0.1493
 1082BOLB   C3B25955  14.591  14.381  18.355  0.1679 -0.2107 -0.0050
 1082BOLB   C4B25956  14.163  14.389  18.066 -0.1082  0.0715 -0.0556
 1082BOLB   NC225957  13.755  15.334  15.804 -0.3185  0.0944 -0.2206
 1082BOLB   PO225958  13.797  15.800  15.970 -0.2872  0.0751  0.1198
 1082BOLB   GL325959  13.798  15.445  16.311  0.3121  0.0890  0.1964
 1082BOLB   GL425960  14.159  15.422  16.381 -0.0941 -0.1776 -0.1136
 1082BOLB   C1C25961  13.634  14.966  16.467 -0.1936 -0.1250 -0.2125
 1082BOLB   C2C25962  13.777  14.742  16.782 -0.4790 -0.0457  0.2720
 1082BOLB   C3C25963  13.970  14.522  17.184  0.2053 -0.2638 -0.0536
 1082BOLB   C4C25964  14.391  14.436  17.467  0.5953  0.3947 -0.1904
 1082BOLB   C1D25965  14.089  15.271  16.893 -0.1501 -0.1404 -0.0840
 1082BOLB   C2D25966  14.047  15.328  17.432 -0.1278 -0.0763  0.0405
 1082BOLB   C3D25967  14.122  15.371  17.893  0.1579  0.1100  0.0637
 1082BOLB   C4D25968  14.243  15.774  18.120  0.0065 -0.1656 -0.4771
 1083BOLB   NC125969  13.925  18.838  22.728 -0.4011 -0.1759  0.2228
 1083BOLB   PO125970  14.101  19.104  22.482  0.0715  0.1889  0.2322
 1083BOLB   GL125971  13.989  19.494  22.363  0.0800  0.0161 -0.0414
 1083BOLB   GL225972  14.039  19.760  22.594  0.0081 -0.0002 -0.0901
 1083BOLB   C1A25973  14.226  19.739  22.122  0.0072 -0.0237 -0.0172
 1083BOLB   C2A25974  14.161  19.846  21.745  0.0676 -0.1521 -0.0914
 1083BOLB   C3A25975  13.913  20.088  21.481  0.0373  0.0793 -0.1587
 1083BOLB   C4A25976  13.723  20.523  21.350  0.3470 -0.1714 -0.4578
 1083BOLB   C1B25977  13.801  19.939  22.240 -0.1083  0.1609  0.0566
 1083BOLB   C2B25978  13.710  20.179  21.922  0.3696 -0.1038 -0.0743
 1083BOLB   C3B25979  13.428  20.581  21.864  0.2388 -0.1378 -0.0679
 1083BOLB   C4B25980  13.382  21.026  22.060 -0.1497  0.2121  0.0744
 1083BOLB   NC225981  13.765  22.507  19.641 -0.1554 -0.3054  0.1502
 1083BOLB   PO225982  13.386  22.395  19.963  0.1886 -0.2478  0.0384
 1083BOLB   GL325983  13.188  22.034  19.979 -0.3113  0.3195 -0.0394
 1083BOLB   GL425984  13.010  22.064  20.220 -0.0800  0.2529  0.0794
 1083BOLB   C1C25985  13.245  21.626  20.173 -0.0670  0.1136  0.0571
 1083BOLB   C2C25986  13.103  21.394  20.442  0.0813 -0.1722 -0.1555
 1083BOLB   C3C25987  13.370  21.143  20.728  0.1360 -0.1038  0.1372
 1083BOLB   C4C25988  13.543  20.845  21.104 -0.3120  0.2044  0.3157
 1083BOLB   C1D25989  13.160  21.845  20.618  0.3158  0.1289  0.3201
 1083BOLB   C2D25990  12.834  21.637  20.813  0.0040 -0.1511  0.2887
 1083BOLB   C3D25991  12.375  21.625  20.961  0.0154 -0.1485 -0.1611
 1083BOLB   C4D25992  11.994  21.686  21.403 -0.4124  0.1244  0.2191
 1084BOLB   NC125993  17.020  10.645  19.638 -0.0783 -0.2454  0.1989
 1084BOLB   PO125994  16.992  10.185  19.572  0.2306 -0.2232  0.0375
 1084BOLB   GL125995  16.918  10.015  19.058  0.0402 -0.1048 -0.0010
 1084BOLB   GL225996  16.826   9.763  19.192  0.1048 -0.0334  0.2298
 1084BOLB   C1A25997  16.631   9.957  18.788  0.0200  0.3230  0.0194
 1084BOLB   C2A25998  16.316   9.957  18.513  0.0042 -0.2069  0.0039
 1084BOLB   C3A25999  15.963   9.839  18.253 -0.2571  0.1709 -0.1040
 1084BOLB   C4A26000  15.881   9.915  17.856 -0.4657  0.1736 -0.2712
 1084BOLB   C1B26001  17.041   9.585  18.740  0.0768  0.0636 -0.4262
 1084BOLB   C2B26002  16.930   9.327  18.398  0.0988 -0.0289 -0.0439
 1084BOLB   C3B26003  16.734   9.030  18.338 -0.2845 -0.1332 -0.0485
 1084BOLB   C4B26004  16.857   8.736  18.051 -0.0464 -0.1328 -0.1365
 1084BOLB   NC226005  14.772  10.777  14.999 -0.2267 -0.0342  0.1099
 1084BOLB   PO226006  14.995  10.756  15.361 -0.0084 -0.1277 -0.1052
 1084BOLB   GL326007  15.306  10.648  15.800  0.0378  0.2696 -0.0060
 1084BOLB   GL426008  15.481  10.462  15.710  0.1427  0.1339 -0.0213
 1084BOLB   C1C26009  15.779  10.548  16.106  0.0745  0.0951 -0.0162
 1084BOLB   C2C26010  15.804  10.325  16.437  0.0970  0.4807 -0.1958
 1084BOLB   C3C26011  15.754  10.164  16.759 -0.2390 -0.0895 -0.2433
 1084BOLB   C4C26012  15.812  10.121  17.278  0.0582  0.0754  0.2026
 1084BOLB   C1D26013  15.397  10.250  16.113 -0.0333 -0.0709 -0.0506
 1084BOLB   C2D26014  15.606   9.933  16.290  0.0259  0.3488 -0.3384
 1084BOLB   C3D26015  15.737   9.570  16.605  0.1580  0.0744 -0.2962
 1084BOLB   C4D26016  15.892   9.242  16.791 -0.4056 -0.2536 -0.0949
 1085BOLB   NC126017  22.600   8.703  24.667  0.3689  0.1605 -0.2350
 1085BOLB   PO126018  22.442   8.449  24.982  0.3050 -0.0583  0.0060
 1085BOLB   GL126019  22.908   8.365  24.956  0.2177 -0.1878 -0.2802
 1085BOLB   GL226020  22.988   8.070  24.780 -0.1022 -0.1850  0.2769
 1085BOLB   C1A26021  23.349   8.052  25.100  0.0952  0.0334  0.1973
 1085BOLB   C2A26022  23.643   7.729  24.994  0.0837 -0.0890  0.0460
 1085BOLB   C3A26023  23.883   7.477  25.186  0.3625 -0.1565 -0.2897
 1085BOLB   C4A26024  23.869   7.002  25.080  0.0806 -0.1228  0.3592
 1085BOLB   C1B26025  23.352   7.948  24.557 -0.1657 -0.2536 -0.0285
 1085BOLB   C2B26026  23.699   7.807  24.349 -0.1888  0.0200  0.0237
 1085BOLB   C3B26027  23.923   7.797  23.975 -0.0078 -0.0121  0.3822
 1085BOLB   C4B26028  24.253   7.827  23.799 -0.2704 -0.0800  0.1115
 1085BOLB   NC226029  25.602   5.357  24.124  0.0106  0.1038 -0.0811
 1085BOLB   PO226030  25.298   5.190  24.493 -0.0938  0.3007 -0.1688
 1085BOLB   GL326031  24.987   5.327  24.665 -0.2033  0.1812  0.1838
 1085BOLB   GL426032  25.029   5.660  24.779  0.0788 -0.1293  0.0903
 1085BOLB   C1C26033  24.649   5.420  25.018 -0.0677  0.1840 -0.0611
 1085BOLB   C2C26034  24.522   5.831  24.975  0.2267  0.0194 -0.1041
 1085BOLB   C3C26035  24.437   6.310  24.813 -0.1441  0.3755 -0.2790
 1085BOLB   C4C26036  24.196   6.700  24.884 -0.4447  0.1162 -0.0396
 1085BOLB   C1D26037  24.948   6.093  25.044  0.3386 -0.1500  0.2397
 1085BOLB   C2D26038  24.676   6.235  25.265 -0.0585 -0.0742  0.0441
 1085BOLB   C3D26039  24.548   6.647  25.297  0.0411  0.1405 -0.2918
 1085BOLB   C4D26040  24.206   6.931  25.418  0.2284  0.5180 -0.1347
 1086BOLB   NC126041  20.201  21.497  20.153  0.2447  0.0182  0.1639
 1086BOLB   PO126042  19.727  21.742  20.208  0.1232 -0.1768  0.0215
 1086BOLB   GL126043  19.508  21.398  20.537  0.3027  0.0014 -0.0314
 1086BOLB   GL226044  19.589  21.112  20.666  0.1087  0.1142  0.0445
 1086BOLB   C1A26045  19.114  21.097  20.620 -0.0619 -0.0725  0.0158
 1086BOLB   C2A26046  18.728  20.995  20.917 -0.0068  0.2563 -0.2352
 1086BOLB   C3A26047  18.324  21.088  20.939  0.2718 -0.1274  0.1289
 1086BOLB   C4A26048  18.229  21.474  21.071  0.3153 -0.0487 -0.1453
 1086BOLB   C1B26049  19.351  20.975  21.071 -0.1113  0.3226  0.0670
 1086BOLB   C2B26050  19.063  20.827  21.270  0.0657 -0.4357  0.2077
 1086BOLB   C3B26051  18.834  20.678  21.678  0.1654 -0.1177  0.2135
 1086BOLB   C4B26052  18.704  20.276  21.891 -0.0032  0.2923  0.0756
 1086BOLB   NC226053  18.352  23.536  21.810 -0.2266 -0.0852 -0.1569
 1086BOLB   PO226054  17.897  23.441  21.820 -0.0820  0.1984 -0.0826
 1086BOLB   GL326055  17.730  23.087  21.895  0.1823 -0.1703  0.0960
 1086BOLB   GL426056  17.382  22.923  21.704  0.0024  0.2029  0.2883
 1086BOLB   C1C26057  17.838  22.670  21.930 -0.4583  0.1250 -0.0836
 1086BOLB   C2C26058  17.940  22.237  21.990  0.2872  0.0732 -0.1010
 1086BOLB   C3C26059  17.825  21.899  21.753  0.0697 -0.0879 -0.0614
 1086BOLB   C4C26060  17.979  21.572  21.507  0.0008  0.1142 -0.1302
 1086BOLB   C1D26061  17.341  22.581  22.050 -0.1961 -0.2520  0.0659
 1086BOLB   C2D26062  17.453  22.373  22.316 -0.0737 -0.1742  0.0883
 1086BOLB   C3D26063  17.348  22.159  22.586  0.2187  0.0868 -0.3823
 1086BOLB   C4D26064  17.011  21.919  22.875  0.2809  0.0577  0.0828
 1087BOLB   NC126065   6.135  10.167  39.159 -0.0171  0.0309  0.0675
 1087BOLB   PO126066   6.540  10.002  39.219  0.3878  0.1443  0.1544
 1087BOLB   GL126067   6.957  10.115  39.047 -0.0595  0.2200 -0.1452
 1087BOLB   GL226068   7.196   9.850  39.034 -0.1157 -0.3788 -0.2673
 1087BOLB   C1A26069   7.401  10.323  38.985 -0.0001  0.2350  0.0306
 1087BOLB   C2A26070   7.900  10.272  38.771 -0.2079 -0.0007  0.2026
 1087BOLB   C3A26071   8.353  10.389  38.610  0.0754 -0.0952  0.1538
 1087BOLB   C4A26072   8.397  10.450  38.148 -0.1237  0.3836 -0.1351
 1087BOLB   C1B26073   7.340   9.572  38.627 -0.2151 -0.0285  0.0959
 1087BOLB   C2B26074   7.368   9.471  38.261  0.2895 -0.0097 -0.0530
 1087BOLB   C3B26075   7.685   9.451  37.955 -0.0583 -0.0924  0.2265
 1087BOLB   C4B26076   8.133   9.414  37.962  0.1490  0.3024 -0.4136
 1087BOLB   NC226077   6.690   9.112  39.021  0.0664 -0.1509 -0.2496
 1087BOLB   PO226078   6.620   9.192  38.653  0.1315 -0.1759  0.0623
 1087BOLB   GL326079   6.847   9.550  38.408  0.1210  0.0183 -0.1952
 1087BOLB   GL426080   6.821   9.668  38.701  0.0763  0.0667  0.2463
 1087BOLB   C1C26081   7.047   9.917  38.077 -0.0386  0.0232  0.0519
 1087BOLB   C2C26082   7.313  10.249  37.772  0.1801 -0.0619  0.3510
 1087BOLB   C3C26083   7.662  10.463  37.678  0.2030 -0.0268  0.1466
 1087BOLB   C4C26084   8.052  10.455  37.743 -0.0279 -0.3026  0.0914
 1087BOLB   C1D26085   7.011  10.091  38.547 -0.1211  0.0746  0.0143
 1087BOLB   C2D26086   7.015  10.369  38.210 -0.1906  0.2062  0.3051
 1087BOLB   C3D26087   7.028  10.662  37.761 -0.0746 -0.1934  0.0844
 1087BOLB   C4D26088   6.607  10.645  37.492 -0.3339  0.0689  0.0459
 1088BOLB   NC126089  10.535  17.442  35.363  0.3215 -0.1454 -0.2428
 1088BOLB   PO126090  10.398  17.765  35.711 -0.0383 -0.0540 -0.3465
 1088BOLB   GL126091  10.297  17.932  36.067  0.0787  0.1813 -0.1425
 1088BOLB   GL226092  10.664  17.800  36.294  0.0708 -0.3213  0.1247
 1088BOLB   C1A26093   9.839  18.099  36.230 -0.2907 -0.1011 -0.1402
 1088BOLB   C2A26094   9.631  18.438  36.451  0.0452  0.1726  0.4465
 1088BOLB   C3A26095   9.460  18.546  36.940  0.0856 -0.2167  0.0438
 1088BOLB   C4A26096   9.171  18.640  37.293  0.1297  0.0748 -0.0640
 1088BOLB   C1B26097  10.479  18.130  36.518  0.0412 -0.0476 -0.4409
 1088BOLB   C2B26098  10.424  18.398  36.852 -0.0637  0.1144 -0.0810
 1088BOLB   C3B26099  10.406  18.768  37.026 -0.0409 -0.0386 -0.2377
 1088BOLB   C4B26100  10.433  19.216  36.864  0.1635  0.1216 -0.2235
 1088BOLB   NC226101   7.511  20.723  37.602  0.2041 -0.0461  0.0587
 1088BOLB   PO226102   7.754  20.395  37.698  0.1952  0.2831 -0.0487
 1088BOLB   GL326103   7.877  19.951  37.604  0.1009 -0.3718 -0.4098
 1088BOLB   GL426104   7.581  19.886  37.703 -0.0088 -0.0594 -0.0083
 1088BOLB   C1C26105   8.011  19.587  37.575 -0.1134 -0.0740  0.0285
 1088BOLB   C2C26106   8.157  19.158  37.622  0.2425 -0.0442  0.0730
 1088BOLB   C3C26107   8.569  18.921  37.559 -0.1490  0.0648  0.0026
 1088BOLB   C4C26108   8.892  18.667  37.394  0.0780 -0.0606 -0.0131
 1088BOLB   C1D26109   7.583  19.695  37.310  0.4382  0.0453  0.0660
 1088BOLB   C2D26110   7.606  19.640  36.905 -0.1723  0.3054  0.1792
 1088BOLB   C3D26111   7.729  19.325  36.620  0.1463 -0.3017  0.2453
 1088BOLB   C4D26112   7.920  18.942  36.445  0.1678  0.1072 -0.0656
 1089BOLB   NC126113  19.443   6.876  36.793  0.0779 -0.1759 -0.0900
 1089BOLB   PO126114  19.157   6.725  37.241  0.2209 -0.2966 -0.1606
 1089BOLB   GL126115  19.006   6.523  37.537  0.2254 -0.0565  0.0125
 1089BOLB   GL226116  18.706   6.535  37.636 -0.1896  0.3175 -0.0258
 1089BOLB   C1A26117  19.026   6.063  37.557  0.1050 -0.3187 -0.2691
 1089BOLB   C2A26118  18.945   5.605  37.468 -0.0310 -0.1856 -0.0842
 1089BOLB   C3A26119  18.979   5.163  37.477  0.0139  0.0214 -0.1237
 1089BOLB   C4A26120  19.045   4.727  37.534  0.1696  0.0962  0.1572
 1089BOLB   C1B26121  18.636   6.207  37.874  0.3298 -0.1201 -0.3157
 1089BOLB   C2B26122  18.656   5.955  38.360  0.0184  0.1788  0.0066
 1089BOLB   C3B26123  18.767   5.763  38.737  0.2552 -0.1089 -0.0689
 1089BOLB   C4B26124  18.866   5.541  39.148 -0.0774  0.1004 -0.1028
 1089BOLB   NC226125  19.272   2.644  38.433 -0.2098 -0.3943  0.2109
 1089BOLB   PO226126  18.883   2.685  38.219  0.1835  0.0759  0.3556
 1089BOLB   GL326127  18.970   2.927  37.879  0.1651 -0.2985  0.0304
 1089BOLB   GL426128  18.805   3.234  37.785  0.1592  0.0249  0.0507
 1089BOLB   C1C26129  19.257   3.208  37.569 -0.0350  0.1775  0.0496
 1089BOLB   C2C26130  19.205   3.641  37.589  0.1337 -0.2015 -0.0416
 1089BOLB   C3C26131  19.231   3.966  37.933  0.2936 -0.3312 -0.0096
 1089BOLB   C4C26132  19.094   4.368  37.846 -0.1492 -0.1256 -0.0154
 1089BOLB   C1D26133  18.811   3.460  37.362  0.2420 -0.2247  0.0666
 1089BOLB   C2D26134  18.927   3.835  37.184 -0.1736  0.1253 -0.0590
 1089BOLB   C3D26135  18.624   4.130  36.931  0.1939  0.1859 -0.6148
 1089BOLB   C4D26136  18.740   4.426  36.687  0.0498  0.0726 -0.1192
 1090BOLB   NC126137  13.061  13.806  20.906  0.2256 -0.3482 -0.2565
 1090BOLB   PO126138  13.296  13.566  20.491 -0.1384  0.1881 -0.3366
 1090BOLB   GL126139  13.035  13.785  20.279  0.0896  0.0362  0.1707
 1090BOLB   GL226140  12.764  13.831  20.515  0.5011 -0.1963  0.0639
 1090BOLB   C1A26141  12.748  13.817  19.984 -0.1380 -0.2965 -0.0221
 1090BOLB   C2A26142  12.401  13.706  19.654  0.1652  0.2725  0.2250
 1090BOLB   C3A26143  12.211  13.495  19.316 -0.2050 -0.1897 -0.1780
 1090BOLB   C4A26144  12.249  13.421  18.908  0.2941  0.1757  0.2392
 1090BOLB   C1B26145  12.483  13.974  20.376 -0.1457 -0.5167 -0.0196
 1090BOLB   C2B26146  12.277  14.129  20.036 -0.1878 -0.1830 -0.1398
 1090BOLB   C3B26147  11.896  14.250  19.930  0.0147  0.0937  0.0603
 1090BOLB   C4B26148  11.502  14.293  19.749 -0.0616 -0.1587  0.1060
 1090BOLB   NC226149  11.710  13.118  16.551 -0.1319  0.0339 -0.0848
 1090BOLB   PO226150  11.496  12.881  16.930  0.2169 -0.0755 -0.0465
 1090BOLB   GL326151  11.451  12.787  17.378  0.0359  0.1152 -0.0429
 1090BOLB   GL426152  11.473  13.120  17.544 -0.1277 -0.1179  0.3033
 1090BOLB   C1C26153  11.660  12.744  17.808 -0.0845  0.0313  0.2452
 1090BOLB   C2C26154  11.940  12.892  18.128 -0.0518  0.2910  0.1451
 1090BOLB   C3C26155  12.161  13.085  18.270 -0.1557  0.0132 -0.1956
 1090BOLB   C4C26156  12.330  13.306  18.432 -0.0177 -0.0589 -0.2624
 1090BOLB   C1D26157  11.956  13.098  17.506 -0.0212 -0.3047 -0.1574
 1090BOLB   C2D26158  12.325  12.851  17.769 -0.1611  0.1113 -0.1018
 1090BOLB   C3D26159  12.750  12.571  17.970  0.0924 -0.1141  0.2707
 1090BOLB   C4D26160  13.127  12.629  18.127 -0.2960 -0.2489  0.0093
 1091BOLB   NC126161  12.007   6.785  34.195 -0.1266  0.2580  0.1849
 1091BOLB   PO126162  11.833   6.358  34.229  0.5057  0.1245  0.0089
 1091BOLB   GL126163  11.541   6.004  34.409  0.1266  0.2136 -0.2481
 1091BOLB   GL226164  11.335   6.154  34.683  0.1525 -0.0477  0.0764
 1091BOLB   C1A26165  11.111   5.707  34.453 -0.5949  0.1326  0.3201
 1091BOLB   C2A26166  10.766   5.402  34.538  0.1076 -0.0614 -0.2233
 1091BOLB   C3A26167  10.551   5.103  34.792 -0.1282 -0.1233  0.0406
 1091BOLB   C4A26168  10.556   4.731  34.767  0.0764 -0.0692 -0.1842
 1091BOLB   C1B26169  11.290   5.781  34.897 -0.1021  0.0598  0.0704
 1091BOLB   C2B26170  11.406   5.319  34.835  0.0515  0.1057  0.2471
 1091BOLB   C3B26171  11.554   4.932  34.595  0.0678 -0.4579 -0.2437
 1091BOLB   C4B26172  11.816   4.458  34.581  0.0500 -0.0725 -0.0236
 1091BOLB   NC226173  10.038   3.314  36.584 -0.0508 -0.2237 -0.2708
 1091BOLB   PO226174   9.941   3.655  36.368 -0.0748 -0.1925  0.1307
 1091BOLB   GL326175  10.304   3.970  36.400 -0.0629 -0.0630 -0.0108
 1091BOLB   GL426176  10.550   3.776  36.734 -0.1679 -0.0522 -0.1093
 1091BOLB   C1C26177  10.571   3.870  36.012 -0.4165 -0.1682 -0.0386
 1091BOLB   C2C26178  10.559   3.732  35.504 -0.0232  0.1286 -0.1262
 1091BOLB   C3C26179  10.598   4.065  35.285  0.1816  0.1200 -0.3738
 1091BOLB   C4C26180  10.489   4.360  34.912 -0.0774  0.0424 -0.1323
 1091BOLB   C1D26181  10.824   3.961  36.400 -0.2350  0.4047 -0.0541
 1091BOLB   C2D26182  11.029   4.141  35.988  0.0346 -0.0008 -0.4295
 1091BOLB   C3D26183  10.830   4.418  35.772  0.2058  0.0125  0.2683
 1091BOLB   C4D26184  10.920   4.794  35.658  0.1491  0.2346  0.0934
 1092BOLB   NC126185   5.472   6.659  34.401  0.3029  0.1296 -0.1866
 1092BOLB   PO126186   5.386   6.814  33.976 -0.5262  0.5032 -0.2120
 1092BOLB   GL126187   5.647   7.100  33.661  0.0279  0.2043 -0.0922
 1092BOLB   GL226188   5.764   6.961  33.337  0.0009 -0.1123 -0.0859
 1092BOLB   C1A26189   6.069   7.319  33.637 -0.0001  0.0254  0.2093
 1092BOLB   C2A26190   6.352   7.571  33.322 -0.1581  0.0257 -0.3724
 1092BOLB   C3A26191   6.698   7.747  33.168 -0.2514 -0.0025 -0.0969
 1092BOLB   C4A26192   7.127   7.726  33.255  0.0746  0.1121 -0.1647
 1092BOLB   C1B26193   5.955   7.351  33.190  0.0325 -0.0914 -0.0983
 1092BOLB   C2B26194   6.208   7.536  32.863 -0.0962  0.0020 -0.2841
 1092BOLB   C3B26195   6.537   7.717  32.688 -0.0374  0.2434 -0.2012
 1092BOLB   C4B26196   6.896   7.742  32.565  0.0884 -0.0689  0.1111
 1092BOLB   NC226197   9.148   8.637  32.861 -0.2891 -0.2992  0.1347
 1092BOLB   PO226198   9.121   9.128  32.919  0.1442  0.1319  0.2906
 1092BOLB   GL326199   8.737   8.756  33.114  0.1721  0.3734 -0.2501
 1092BOLB   GL426200   8.699   8.741  33.435  0.1246  0.2140 -0.3906
 1092BOLB   C1C26201   8.573   8.428  33.044  0.1783 -0.0295 -0.0487
 1092BOLB   C2C26202   8.133   8.287  32.983  0.1925  0.1379  0.0790
 1092BOLB   C3C26203   7.899   8.089  33.192  0.1834  0.0263 -0.2347
 1092BOLB   C4C26204   7.506   7.881  33.156  0.0073 -0.3710 -0.0634
 1092BOLB   C1D26205   8.237   8.581  33.437  0.2837 -0.2523  0.1140
 1092BOLB   C2D26206   8.063   8.442  33.799 -0.1328 -0.1434 -0.3604
 1092BOLB   C3D26207   7.793   8.160  34.092 -0.1262  0.1865 -0.2859
 1092BOLB   C4D26208   7.784   7.816  34.435  0.4241  0.0374  0.1755
 1093BOLB   NC126209  22.700  13.468  33.960 -0.0229  0.0574 -0.1733
 1093BOLB   PO126210  22.917  13.577  34.406  0.0944 -0.1701 -0.1173
 1093BOLB   GL126211  23.366  13.610  34.522 -0.1303  0.0940  0.1765
 1093BOLB   GL226212  23.597  13.678  34.716 -0.0603 -0.0134 -0.3109
 1093BOLB   C1A26213  23.805  13.484  34.303 -0.1601  0.0797 -0.0393
 1093BOLB   C2A26214  24.163  13.494  34.469  0.2608 -0.1685 -0.1508
 1093BOLB   C3A26215  24.548  13.728  34.570 -0.3037  0.0711  0.3009
 1093BOLB   C4A26216  24.948  13.867  34.577 -0.0849 -0.3296  0.1716
 1093BOLB   C1B26217  23.942  13.567  34.971 -0.1074 -0.2098  0.4094
 1093BOLB   C2B26218  24.386  13.411  34.969  0.0655  0.2746  0.1458
 1093BOLB   C3B26219  24.564  13.328  35.345  0.0010  0.1136 -0.1526
 1093BOLB   C4B26220  24.698  13.004  35.719  0.1468 -0.0876 -0.1923
 1093BOLB   NC226221   0.731  13.789  34.372  0.0153 -0.1683 -0.1988
 1093BOLB   PO226222   0.255  13.805  34.405 -0.0254 -0.0855  0.1587
 1093BOLB   GL326223  26.929  13.857  34.204 -0.1404  0.0578 -0.0347
 1093BOLB   GL426224  26.916  13.581  34.072  0.0323 -0.1865 -0.1381
 1093BOLB   C1C26225  26.653  14.025  34.327  0.2151 -0.1793  0.0366
 1093BOLB   C2C26226  26.163  14.041  34.304 -0.4029 -0.1670  0.2698
 1093BOLB   C3C26227  25.704  14.066  34.171 -0.2472 -0.0573 -0.0510
 1093BOLB   C4C26228  25.271  13.949  34.327  0.1522  0.0718  0.2403
 1093BOLB   C1D26229  26.417  13.625  34.169 -0.3326  0.1154  0.1556
 1093BOLB   C2D26230  26.115  13.779  33.918 -0.1291 -0.1944  0.1752
 1093BOLB   C3D26231  25.984  14.093  33.752  0.1879  0.2681  0.2802
 1093BOLB   C4D26232  25.802  14.062  33.309 -0.0149  0.0631 -0.1258
 1094BOLB   NC126233  20.244   6.391  35.327 -0.1293 -0.2487 -0.1738
 1094BOLB   PO126234  20.133   6.665  35.657  0.0658 -0.2510  0.0325
 1094BOLB   GL126235  20.216   6.218  35.795  0.1673  0.0179  0.0277
 1094BOLB   GL226236  20.036   6.003  35.706 -0.1347 -0.0459  0.1382
 1094BOLB   C1A26237  20.409   5.949  36.046 -0.1808  0.2005  0.0072
 1094BOLB   C2A26238  20.687   5.643  35.991 -0.1509  0.0422  0.0608
 1094BOLB   C3A26239  21.105   5.413  36.164  0.0013 -0.3094 -0.1223
 1094BOLB   C4A26240  21.424   5.651  36.399 -0.3134 -0.1817  0.2035
 1094BOLB   C1B26241  20.362   5.612  35.540  0.0370  0.3174  0.0779
 1094BOLB   C2B26242  20.541   5.309  35.645  0.0474 -0.5874 -0.2863
 1094BOLB   C3B26243  20.899   4.983  35.755  0.1700 -0.0751  0.0690
 1094BOLB   C4B26244  21.183   4.656  35.632 -0.1050  0.1733  0.0821
 1094BOLB   NC226245  22.650   4.205  37.364 -0.3285 -0.1426  0.0032
 1094BOLB   PO226246  23.030   4.195  37.194 -0.1325  0.0019  0.0209
 1094BOLB   GL326247  22.860   4.537  36.939  0.1514 -0.1472 -0.1097
 1094BOLB   GL426248  22.567   4.384  36.921  0.1690 -0.1144  0.1235
 1094BOLB   C1C26249  22.740   4.867  36.652  0.0635  0.3437  0.4102
 1094BOLB   C2C26250  22.439   5.168  36.646  0.0405  0.3258  0.0723
 1094BOLB   C3C26251  22.101   5.220  36.329  0.2335  0.0525 -0.3227
 1094BOLB   C4C26252  21.831   5.605  36.310 -0.2047  0.0140 -0.3134
 1094BOLB   C1D26253  22.406   4.505  36.476  0.0204  0.0470 -0.2084
 1094BOLB   C2D26254  22.442   4.762  36.075 -0.2722 -0.0328 -0.0620
 1094BOLB   C3D26255  22.588   5.181  36.152  0.0231 -0.1193 -0.2836
 1094BOLB   C4D26256  22.390   5.615  36.052  0.2620  0.0387  0.0346
 1095BOLB   NC126257  17.042  17.354  15.142  0.0026 -0.2122 -0.0720
 1095BOLB   PO126258  17.149  17.195  15.621 -0.0244  0.0587  0.2067
 1095BOLB   GL126259  16.966  17.027  16.015  0.0779 -0.1421  0.0132
 1095BOLB   GL226260  16.774  16.755  16.069  0.0122  0.1991 -0.2917
 1095BOLB   C1A26261  17.049  16.849  16.431 -0.0256 -0.0342  0.0575
 1095BOLB   C2A26262  17.066  16.966  16.877  0.1229  0.0204  0.1850
 1095BOLB   C3A26263  17.457  16.841  17.098  0.3387 -0.0480  0.2897
 1095BOLB   C4A26264  17.819  16.816  17.292  0.0984  0.0257 -0.0312
 1095BOLB   C1B26265  16.584  16.538  16.455  0.3182  0.2530  0.2078
 1095BOLB   C2B26266  16.636  16.401  16.872 -0.1133  0.1113  0.0254
 1095BOLB   C3B26267  16.334  16.527  17.155  0.1856 -0.1564 -0.1906
 1095BOLB   C4B26268  16.201  16.395  17.557 -0.4017  0.3786  0.2776
 1095BOLB   NC226269  19.464  18.011  16.094  0.2276  0.2888 -0.1422
 1095BOLB   PO226270  19.269  17.639  16.256 -0.1189  0.0122  0.0989
 1095BOLB   GL326271  19.164  17.853  16.590 -0.2960 -0.2592  0.0777
 1095BOLB   GL426272  19.093  18.056  16.680 -0.0602  0.1035  0.0598
 1095BOLB   C1C26273  19.063  17.552  16.981 -0.1181  0.0806 -0.1238
 1095BOLB   C2C26274  18.873  17.521  17.307  0.2900  0.1959 -0.1154
 1095BOLB   C3C26275  18.638  17.193  17.253  0.2653  0.1563  0.0323
 1095BOLB   C4C26276  18.323  16.897  17.317  0.0261 -0.0887 -0.0402
 1095BOLB   C1D26277  18.885  18.085  16.955 -0.2815 -0.2344  0.3226
 1095BOLB   C2D26278  18.509  17.771  17.037  0.0074  0.1267 -0.3511
 1095BOLB   C3D26279  18.095  17.824  16.956 -0.3919 -0.2989  0.0632
 1095BOLB   C4D26280  17.651  17.813  16.756  0.1703  0.0748  0.1011
 1096BOLB   NC126281  21.677   9.646  35.064 -0.2409 -0.0634 -0.0697
 1096BOLB   PO126282  21.881   9.748  35.484  0.0624 -0.1053 -0.2489
 1096BOLB   GL126283  22.385   9.726  35.758  0.1908 -0.1923 -0.1367
 1096BOLB   GL226284  22.569   9.413  35.864 -0.0857 -0.1041  0.0621
 1096BOLB   C1A26285  22.742   9.871  36.023 -0.0018 -0.1154  0.0161
 1096BOLB   C2A26286  23.044   9.899  36.105 -0.0015 -0.0769 -0.1427
 1096BOLB   C3A26287  23.406   9.890  36.228 -0.1340 -0.0976 -0.0586
 1096BOLB   C4A26288  23.845   9.775  36.398  0.2077 -0.2078  0.1521
 1096BOLB   C1B26289  22.928   9.438  36.189 -0.3131  0.4210  0.2564
 1096BOLB   C2B26290  23.392   9.425  36.370  0.1517 -0.2774  0.0453
 1096BOLB   C3B26291  23.668   9.394  36.702 -0.3668 -0.2475  0.0678
 1096BOLB   C4B26292  24.035   9.378  36.911 -0.3526 -0.4342  0.0059
 1096BOLB   NC226293  26.070   9.996  37.713  0.1512  0.0622  0.0425
 1096BOLB   PO226294  26.156  10.459  37.583 -0.0074 -0.4654  0.0557
 1096BOLB   GL326295  25.762  10.357  37.409 -0.1025  0.0150  0.1174
 1096BOLB   GL426296  25.661  10.619  37.199  0.2754  0.5083  0.0637
 1096BOLB   C1C26297  25.441  10.190  37.351  0.1170 -0.0117  0.3867
 1096BOLB   C2C26298  25.118   9.984  36.942 -0.0514  0.0044  0.2012
 1096BOLB   C3C26299  24.685  10.041  36.860  0.0111 -0.1025 -0.1080
 1096BOLB   C4C26300  24.233   9.835  36.586 -0.1795 -0.0372 -0.0824
 1096BOLB   C1D26301  25.329  10.668  36.914  0.3472  0.2614  0.0839
 1096BOLB   C2D26302  24.978  10.831  36.747  0.2908  0.0061 -0.0868
 1096BOLB   C3D26303  24.820  10.966  37.109  0.0496 -0.1033  0.1454
 1096BOLB   C4D26304  24.614  10.746  37.381  0.2119  0.1255  0.0239
 1097BOLB   NC126305  21.290  12.440  37.427  0.0586 -0.2007  0.1704
 1097BOLB   PO126306  21.766  12.449  37.298 -0.2315  0.0142  0.0076
 1097BOLB   GL126307  22.098  12.370  37.567  0.1388 -0.0045  0.0746
 1097BOLB   GL226308  22.456  12.365  37.510 -0.3586 -0.0303  0.0117
 1097BOLB   C1A26309  22.120  12.430  37.936 -0.2962  0.2561  0.0784
 1097BOLB   C2A26310  22.275  12.583  38.311 -0.1587  0.2340 -0.0071
 1097BOLB   C3A26311  22.449  12.821  38.624  0.1665  0.0570 -0.0132
 1097BOLB   C4A26312  22.566  12.916  39.008  0.1681  0.1547 -0.1519
 1097BOLB   C1B26313  22.837  12.194  37.684  0.2631 -0.2878 -0.0399
 1097BOLB   C2B26314  23.157  12.064  37.898 -0.3350  0.1091  0.0663
 1097BOLB   C3B26315  23.530  11.897  37.813 -0.2114 -0.2635 -0.2684
 1097BOLB   C4B26316  23.845  12.020  38.025 -0.0281 -0.0670  0.0149
 1097BOLB   NC226317  24.580  14.036  39.956  0.0404  0.0822  0.3671
 1097BOLB   PO226318  24.212  14.211  40.075  0.0368  0.3345 -0.0075
 1097BOLB   GL326319  23.742  13.960  40.090  0.2404  0.3029 -0.0049
 1097BOLB   GL426320  23.504  14.106  40.309  0.1059  0.0495  0.0052
 1097BOLB   C1C26321  23.315  13.670  40.083  0.1805  0.1021 -0.0623
 1097BOLB   C2C26322  23.028  13.689  39.779  0.0039 -0.1224  0.0873
 1097BOLB   C3C26323  22.976  13.455  39.460 -0.4063  0.0354  0.0579
 1097BOLB   C4C26324  22.668  13.168  39.392  0.0122  0.1377  0.2216
 1097BOLB   C1D26325  23.331  14.494  39.971 -0.0057 -0.3031 -0.2669
 1097BOLB   C2D26326  23.451  14.627  39.677  0.0815  0.1148  0.1227
 1097BOLB   C3D26327  23.444  14.780  39.207 -0.1348  0.1180 -0.0043
 1097BOLB   C4D26328  23.575  15.066  38.964  0.0998 -0.0495  0.3074
 1098BOLB   NC126329  19.760   6.317  23.371 -0.0459 -0.1189 -0.1287
 1098BOLB   PO126330  19.780   6.087  23.705 -0.3416  0.0653  0.3849
 1098BOLB   GL126331  20.086   5.964  23.578 -0.1193  0.1137 -0.1606
 1098BOLB   GL226332  20.055   5.693  23.373 -0.1543 -0.3918  0.0076
 1098BOLB   C1A26333  20.567   5.781  23.574  0.0300 -0.0117  0.0382
 1098BOLB   C2A26334  20.777   5.376  23.473 -0.0427 -0.0614  0.3076
 1098BOLB   C3A26335  21.046   5.038  23.719 -0.0090 -0.1131 -0.1225
 1098BOLB   C4A26336  21.198   4.608  23.515 -0.1736  0.4772  0.2592
 1098BOLB   C1B26337  20.336   5.514  23.147  0.0439 -0.1874  0.2076
 1098BOLB   C2B26338  20.664   5.254  22.847 -0.1053 -0.1545  0.5886
 1098BOLB   C3B26339  20.916   5.564  22.676  0.1152  0.1290  0.0344
 1098BOLB   C4B26340  20.761   5.984  22.664 -0.0549  0.0890 -0.5534
 1098BOLB   NC226341  21.245   2.207  23.083  0.1269  0.0769 -0.1065
 1098BOLB   PO226342  21.508   2.447  22.770 -0.0027  0.1221 -0.4837
 1098BOLB   GL326343  21.650   2.829  22.721 -0.2598  0.1021  0.2999
 1098BOLB   GL426344  21.307   2.951  22.732  0.0646 -0.1475  0.0820
 1098BOLB   C1C26345  21.655   3.313  22.655  0.0012  0.0591 -0.1389
 1098BOLB   C2C26346  21.509   3.694  22.771  0.0427  0.0174  0.1463
 1098BOLB   C3C26347  21.245   4.016  23.133 -0.0768 -0.0939 -0.0699
 1098BOLB   C4C26348  21.073   4.221  23.444 -0.0373 -0.0390  0.2671
 1098BOLB   C1D26349  20.851   3.033  23.002  0.2397 -0.2006  0.0759
 1098BOLB   C2D26350  20.472   3.239  23.178 -0.0900  0.0038 -0.2626
 1098BOLB   C3D26351  20.510   3.411  23.600 -0.0670 -0.1322  0.3836
 1098BOLB   C4D26352  20.487   3.697  23.893 -0.1158 -0.0982 -0.0572
 1099BOLB   NC126353  21.921   6.997  26.150 -0.2030  0.2809 -0.0698
 1099BOLB   PO126354  22.303   7.367  26.202 -0.0796 -0.4432  0.0328
 1099BOLB   GL126355  22.697   7.278  26.146 -0.2909  0.1682  0.0464
 1099BOLB   GL226356  22.914   7.189  26.368  0.0700 -0.2307  0.1674
 1099BOLB   C1A26357  23.031   6.859  26.048  0.4293 -0.0321  0.1034
 1099BOLB   C2A26358  23.245   6.515  25.842  0.1130 -0.0544  0.3216
 1099BOLB   C3A26359  23.100   5.989  25.673  0.0973 -0.1931  0.0519
 1099BOLB   C4A26360  23.357   5.744  25.531  0.0390  0.0547  0.0118
 1099BOLB   C1B26361  23.412   7.098  26.311  0.0610 -0.0040 -0.1452
 1099BOLB   C2B26362  23.684   7.029  26.650  0.3332 -0.1982 -0.0558
 1099BOLB   C3B26363  24.122   7.074  26.651 -0.2354  0.1489 -0.0326
 1099BOLB   C4B26364  24.512   6.945  26.435  0.2107 -0.5877  0.3593
 1099BOLB   NC226365  24.983   3.979  25.657  0.0136 -0.3556 -0.1093
 1099BOLB   PO226366  24.912   3.908  25.179  0.2174  0.1410  0.2398
 1099BOLB   GL326367  24.573   4.166  25.266 -0.1082 -0.0424  0.0317
 1099BOLB   GL426368  24.491   4.005  25.583  0.0991  0.3498 -0.2630
 1099BOLB   C1C26369  24.419   4.563  25.547 -0.0095  0.1103 -0.3785
 1099BOLB   C2C26370  24.102   4.905  25.606 -0.1858 -0.2317 -0.1912
 1099BOLB   C3C26371  23.840   5.107  25.304  0.1610  0.1889 -0.1687
 1099BOLB   C4C26372  23.685   5.584  25.297 -0.1703  0.3787  0.3102
 1099BOLB   C1D26373  24.089   4.190  25.572 -0.0489 -0.1965  0.0131
 1099BOLB   C2D26374  23.814   4.471  25.480  0.0390 -0.7591  0.0496
 1099BOLB   C3D26375  23.430   4.743  25.546 -0.1213  0.4759 -0.1713
 1099BOLB   C4D26376  23.211   4.879  25.855 -0.2155  0.2416  0.2946
 1100BOLB   NC126377   7.775  13.825  29.327  0.2419  0.2233  0.1777
 1100BOLB   PO126378   7.914  13.515  29.585 -0.2584 -0.2113 -0.0966
 1100BOLB   GL126379   7.487  13.427  29.491 -0.1602 -0.1806  0.1706
 1100BOLB   GL226380   7.384  13.173  29.617  0.0650  0.0442 -0.2637
 1100BOLB   C1A26381   7.033  13.449  29.300  0.1928 -0.2209 -0.0004
 1100BOLB   C2A26382   6.647  13.456  29.109 -0.0099  0.0897  0.2725
 1100BOLB   C3A26383   6.311  13.400  28.750  0.1267  0.4817 -0.2354
 1100BOLB   C4A26384   5.803  13.399  28.601 -0.2745  0.0498 -0.0418
 1100BOLB   C1B26385   7.041  12.960  29.491 -0.2501 -0.2769  0.0308
 1100BOLB   C2B26386   6.593  12.982  29.380 -0.1803  0.1293  0.3061
 1100BOLB   C3B26387   6.258  13.011  29.103  0.2143 -0.1244 -0.3100
 1100BOLB   C4B26388   5.844  13.035  28.947  0.5222 -0.0872  0.1844
 1100BOLB   NC226389   3.758  13.669  28.050 -0.2896 -0.1337 -0.3346
 1100BOLB   PO226390   3.750  13.904  28.495  0.3847  0.3376 -0.1642
 1100BOLB   GL326391   4.161  14.084  28.357 -0.1466 -0.4073  0.2033
 1100BOLB   GL426392   4.214  13.748  28.249  0.1830  0.2689 -0.2187
 1100BOLB   C1C26393   4.571  13.981  28.471 -0.1613 -0.1276  0.1359
 1100BOLB   C2C26394   4.918  14.099  28.387  0.2209 -0.3804  0.1445
 1100BOLB   C3C26395   5.164  13.720  28.239  0.2169 -0.0888 -0.1735
 1100BOLB   C4C26396   5.654  13.571  28.249  0.2184 -0.1556 -0.1317
 1100BOLB   C1D26397   4.567  13.657  28.047  0.0081  0.1063 -0.1741
 1100BOLB   C2D26398   4.919  13.385  28.020 -0.1678  0.3403  0.2183
 1100BOLB   C3D26399   5.310  13.218  28.243 -0.1245  0.3361 -0.1068
 1100BOLB   C4D26400   5.601  12.853  28.487  0.2798  0.0868 -0.1005
 1101BOLB   NC126401  11.996  17.948  35.931 -0.1652 -0.1868  0.1067
 1101BOLB   PO126402  11.918  18.069  36.371  0.0945 -0.0970 -0.3907
 1101BOLB   GL126403  11.607  18.176  36.557  0.1002  0.1159  0.0144
 1101BOLB   GL226404  11.574  18.504  36.506 -0.0689 -0.1022  0.2142
 1101BOLB   C1A26405  11.480  18.263  36.942 -0.0224  0.0074 -0.1212
 1101BOLB   C2A26406  11.480  18.572  37.287 -0.0105  0.1003  0.0858
 1101BOLB   C3A26407  11.215  18.772  37.582  0.1619 -0.3792  0.1505
 1101BOLB   C4A26408  10.881  19.019  37.852  0.0987 -0.2254 -0.0784
 1101BOLB   C1B26409  11.293  18.706  36.757  0.2780 -0.1164  0.0435
 1101BOLB   C2B26410  10.982  18.628  37.117 -0.1711  0.0126  0.1589
 1101BOLB   C3B26411  10.735  18.661  37.537 -0.1829  0.4062  0.0214
 1101BOLB   C4B26412  10.461  18.601  37.892  0.0402  0.2395 -0.0111
 1101BOLB   NC226413   9.049  20.548  38.300  0.0301  0.0915  0.4229
 1101BOLB   PO226414   8.993  20.240  38.654  0.1135  0.1308 -0.0074
 1101BOLB   GL326415   9.180  19.993  38.350 -0.2974  0.0838 -0.1052
 1101BOLB   GL426416   9.154  20.134  38.095  0.0537  0.2373 -0.0179
 1101BOLB   C1C26417   9.481  19.757  38.215 -0.0222  0.0335  0.4518
 1101BOLB   C2C26418   9.712  19.273  38.304 -0.3417  0.0071 -0.1537
 1101BOLB   C3C26419  10.149  19.215  38.348 -0.0672 -0.2343  0.0846
 1101BOLB   C4C26420  10.518  19.153  38.094 -0.2268  0.0726  0.0979
 1101BOLB   C1D26421   9.223  19.870  37.737  0.2977  0.1570 -0.0909
 1101BOLB   C2D26422   9.351  19.536  37.628  0.0679  0.4652 -0.0479
 1101BOLB   C3D26423   9.741  19.319  37.850  0.0609  0.1582  0.2634
 1101BOLB   C4D26424  10.111  19.016  37.887  0.1060 -0.1065  0.0775
 1102BOLB   NC126425  15.419   6.541  23.104 -0.0203 -0.1951  0.0705
 1102BOLB   PO126426  15.027   6.231  23.278  0.1623 -0.1143  0.1619
 1102BOLB   GL126427  14.893   5.782  23.082  0.0499  0.0393  0.0642
 1102BOLB   GL226428  14.806   5.473  23.355 -0.2133  0.1290  0.3228
 1102BOLB   C1A26429  14.953   5.641  22.616  0.1287  0.1109  0.1790
 1102BOLB   C2A26430  14.826   5.339  22.289  0.1115  0.2396 -0.0129
 1102BOLB   C3A26431  14.993   5.133  21.959 -0.0111 -0.0956 -0.0618
 1102BOLB   C4A26432  14.764   4.776  21.831 -0.0683 -0.0854 -0.3167
 1102BOLB   C1B26433  14.608   5.375  22.991 -0.0634  0.1381 -0.0629
 1102BOLB   C2B26434  14.285   5.025  23.014  0.0003 -0.2321  0.1079
 1102BOLB   C3B26435  13.960   4.749  23.123 -0.1592  0.1907  0.3500
 1102BOLB   C4B26436  13.566   4.615  23.367 -0.1676  0.1149 -0.0976
 1102BOLB   NC226437  14.274   3.298  20.097  0.0742 -0.0871  0.1270
 1102BOLB   PO226438  14.204   3.112  20.462  0.1690 -0.1785  0.2262
 1102BOLB   GL326439  14.459   3.301  20.693  0.0392 -0.0732 -0.0852
 1102BOLB   GL426440  14.660   3.494  20.509 -0.1982  0.0509 -0.5384
 1102BOLB   C1C26441  14.683   3.393  20.994  0.1938 -0.2520  0.0976
 1102BOLB   C2C26442  14.729   3.788  21.215  0.0667 -0.0853 -0.3931
 1102BOLB   C3C26443  14.518   4.124  21.544 -0.1059 -0.2491  0.2919
 1102BOLB   C4C26444  14.495   4.499  21.732  0.1693 -0.3232  0.2056
 1102BOLB   C1D26445  14.815   3.834  20.704  0.2166 -0.1050  0.1260
 1102BOLB   C2D26446  15.130   4.037  20.946  0.2764 -0.2258 -0.0335
 1102BOLB   C3D26447  15.169   4.172  21.366 -0.0206  0.0590 -0.0070
 1102BOLB   C4D26448  15.646   4.469  21.527  0.2365  0.1227 -0.0409
 1103BOLB   NC126449  17.058  22.789  20.522 -0.1865 -0.0602  0.3039
 1103BOLB   PO126450  17.384  22.427  20.579 -0.0265 -0.0421  0.0973
 1103BOLB   GL126451  17.372  22.005  20.671  0.0361 -0.1861 -0.1825
 1103BOLB   GL226452  17.661  22.026  20.772 -0.0019 -0.0019 -0.0581
 1103BOLB   C1A26453  17.121  21.703  20.900  0.1243  0.1296 -0.2068
 1103BOLB   C2A26454  16.838  21.646  21.177  0.1896  0.0759 -0.1944
 1103BOLB   C3A26455  16.407  21.510  21.157 -0.2556  0.0124 -0.0979
 1103BOLB   C4A26456  15.993  21.391  21.250  0.0284  0.0807  0.3532
 1103BOLB   C1B26457  17.720  21.587  20.814  0.0708 -0.0816  0.1458
 1103BOLB   C2B26458  17.784  21.292  21.135 -0.0150  0.0715 -0.1342
 1103BOLB   C3B26459  17.657  20.914  21.376 -0.2928 -0.0931  0.1921
 1103BOLB   C4B26460  17.611  20.636  21.778  0.1030  0.1247  0.3958
 1103BOLB   NC226461  16.127  22.502  19.965  0.0322  0.1596 -0.1302
 1103BOLB   PO226462  16.509  22.408  19.960 -0.3096 -0.0252  0.2796
 1103BOLB   GL326463  16.666  22.048  20.086 -0.2407  0.2968 -0.2943
 1103BOLB   GL426464  16.525  21.817  19.935  0.3284 -0.1693 -0.1075
 1103BOLB   C1C26465  16.404  21.761  20.426  0.0186  0.0761  0.0749
 1103BOLB   C2C26466  16.305  21.311  20.480 -0.0292 -0.1910  0.1196
 1103BOLB   C3C26467  16.028  21.043  20.668  0.1395 -0.5155 -0.2378
 1103BOLB   C4C26468  15.760  21.219  20.938 -0.2721  0.0650 -0.2432
 1103BOLB   C1D26469  16.151  21.588  19.960  0.2475 -0.0587  0.1043
 1103BOLB   C2D26470  15.956  21.179  20.146 -0.2864 -0.2885  0.5547
 1103BOLB   C3D26471  15.608  20.865  19.975  0.0643 -0.0182  0.2930
 1103BOLB   C4D26472  15.462  20.598  19.625 -0.1049  0.3986 -0.1401
 1104BOLB   NC126473   7.865  21.826  36.129 -0.4268 -0.0960  0.0195
 1104BOLB   PO126474   8.024  21.510  36.393  0.0182 -0.0259  0.1126
 1104BOLB   GL126475   8.322  21.291  36.447  0.6654 -0.0287  0.2008
 1104BOLB   GL226476   8.092  20.955  36.393 -0.2753 -0.0892  0.1674
 1104BOLB   C1A26477   8.602  20.986  36.598  0.1579  0.2780 -0.1532
 1104BOLB   C2A26478   8.692  20.532  36.738  0.1927 -0.2221  0.1906
 1104BOLB   C3A26479   8.978  20.176  36.838  0.3445 -0.3428 -0.0451
 1104BOLB   C4A26480   9.097  19.814  36.714 -0.0708  0.0414 -0.1266
 1104BOLB   C1B26481   8.331  21.007  35.993  0.0744  0.1331  0.0982
 1104BOLB   C2B26482   8.385  20.790  35.549  0.0236 -0.0199  0.0955
 1104BOLB   C3B26483   8.677  20.596  35.201  0.1700  0.1533  0.0522
 1104BOLB   C4B26484   9.049  20.495  35.010  0.1593 -0.1534 -0.0844
 1104BOLB   NC226485   9.898  17.949  34.941  0.0425  0.0291  0.0354
 1104BOLB   PO226486  10.193  18.193  35.108 -0.1686  0.2297 -0.1258
 1104BOLB   GL326487   9.870  18.437  35.298 -0.0855 -0.0226 -0.3093
 1104BOLB   GL426488   9.620  18.633  35.045 -0.2324  0.1378 -0.1723
 1104BOLB   C1C26489   9.530  18.444  35.681  0.0090 -0.1734  0.0494
 1104BOLB   C2C26490   9.325  18.628  36.096 -0.1398 -0.0180  0.1149
 1104BOLB   C3C26491   9.155  18.870  36.423 -0.1530 -0.1498  0.2148
 1104BOLB   C4C26492   9.173  19.360  36.445 -0.1207  0.2030  0.2047
 1104BOLB   C1D26493   9.592  19.061  35.277  0.1665  0.0318  0.3763
 1104BOLB   C2D26494   9.459  19.338  35.628 -0.0334  0.3443  0.0332
 1104BOLB   C3D26495   9.424  19.425  36.009 -0.0681 -0.3849 -0.0828
 1104BOLB   C4D26496   9.228  19.844  36.217  0.0774 -0.0863  0.2948
 1105BOLB   NC126497  22.566  16.043  33.110 -0.2680  0.0067  0.2708
 1105BOLB   PO126498  22.531  15.889  32.696 -0.2487  0.2957  0.1246
 1105BOLB   GL126499  22.947  16.031  32.510 -0.0246 -0.3327 -0.3582
 1105BOLB   GL226500  23.121  16.386  32.553  0.1101 -0.3141 -0.0390
 1105BOLB   C1A26501  23.163  16.059  32.101  0.0654  0.0570  0.2442
 1105BOLB   C2A26502  23.533  16.120  32.039 -0.0081  0.4040  0.0272
 1105BOLB   C3A26503  23.835  16.422  31.918  0.1958  0.0291 -0.1035
 1105BOLB   C4A26504  24.205  16.572  31.833  0.2434 -0.1246 -0.1586
 1105BOLB   C1B26505  23.446  16.662  32.426 -0.0795 -0.0614 -0.0980
 1105BOLB   C2B26506  23.708  17.025  32.353  0.1199  0.2272 -0.0023
 1105BOLB   C3B26507  23.606  17.417  32.490  0.0674  0.2404 -0.0308
 1105BOLB   C4B26508  23.643  17.819  32.654  0.1140 -0.0550 -0.0689
 1105BOLB   NC226509  25.899  18.358  30.742  0.0103 -0.1533 -0.2921
 1105BOLB   PO226510  26.132  18.016  30.879 -0.0663  0.2685 -0.0172
 1105BOLB   GL326511  25.870  17.743  30.977  0.2665 -0.0386  0.1016
 1105BOLB   GL426512  25.689  17.766  31.313 -0.0681  0.1595 -0.1642
 1105BOLB   C1C26513  25.409  17.637  30.933 -0.0529 -0.1989 -0.0404
 1105BOLB   C2C26514  25.132  17.315  31.138  0.4343 -0.1920 -0.1981
 1105BOLB   C3C26515  24.836  17.098  31.442  0.4284  0.2549  0.0894
 1105BOLB   C4C26516  24.428  16.859  31.643 -0.0620 -0.0150 -0.0107
 1105BOLB   C1D26517  25.366  17.633  31.528 -0.0560 -0.0554  0.0754
 1105BOLB   C2D26518  25.151  17.368  31.644 -0.1467  0.1667 -0.0464
 1105BOLB   C3D26519  25.256  17.226  32.097 -0.2598 -0.1483  0.0032
 1105BOLB   C4D26520  25.681  17.232  32.298  0.4478  0.0601 -0.1322
 1106BOLB   NC126521   9.515  15.348  35.572 -0.2641  0.2580  0.0978
 1106BOLB   PO126522   9.775  15.303  35.896 -0.2765  0.0522 -0.2738
 1106BOLB   GL126523   9.514  15.466  36.095  0.2664 -0.3308  0.3007
 1106BOLB   GL226524   9.755  15.670  36.359 -0.0155  0.0027 -0.2556
 1106BOLB   C1A26525   9.068  15.415  36.057 -0.1235  0.2174 -0.0106
 1106BOLB   C2A26526   8.693  15.483  36.482  0.0959  0.0736 -0.0109
 1106BOLB   C3A26527   8.370  15.640  36.793  0.3228 -0.2676  0.0598
 1106BOLB   C4A26528   8.050  15.580  37.062 -0.0786  0.4196  0.3154
 1106BOLB   C1B26529   9.655  16.120  36.592 -0.0271 -0.0990  0.3635
 1106BOLB   C2B26530   9.314  16.255  36.643  0.0559 -0.0682  0.1082
 1106BOLB   C3B26531   9.247  16.471  37.003  0.3954  0.1649 -0.0805
 1106BOLB   C4B26532   8.906  16.339  37.246 -0.1621  0.0031  0.0937
 1106BOLB   NC226533   6.804  15.395  39.161  0.0670 -0.2092 -0.0020
 1106BOLB   PO226534   6.525  15.802  39.023  0.1846 -0.3403  0.0653
 1106BOLB   GL326535   6.872  15.869  38.780  0.0988  0.0205  0.0762
 1106BOLB   GL426536   6.962  16.160  38.601 -0.1395  0.1210  0.1742
 1106BOLB   C1C26537   7.045  15.861  38.224 -0.0827 -0.0432 -0.4884
 1106BOLB   C2C26538   7.211  15.690  37.862  0.1659  0.0982 -0.1325
 1106BOLB   C3C26539   7.431  15.516  37.567  0.3412  0.0408 -0.0196
 1106BOLB   C4C26540   7.808  15.392  37.350  0.0085  0.0588  0.1371
 1106BOLB   C1D26541   6.772  16.309  38.151  0.0208  0.0052 -0.1042
 1106BOLB   C2D26542   6.938  16.121  37.758  0.0688  0.1382  0.0526
 1106BOLB   C3D26543   7.059  15.817  37.446 -0.2157 -0.2366  0.2142
 1106BOLB   C4D26544   7.042  15.511  37.252 -0.0369 -0.1265 -0.1725
 1107BOLB   NC126545  20.792   5.865  25.233 -0.0733  0.0111 -0.0630
 1107BOLB   PO126546  20.988   6.087  24.829  0.4079 -0.2324 -0.1876
 1107BOLB   GL126547  21.237   5.927  24.668 -0.2121 -0.1213 -0.0382
 1107BOLB   GL226548  21.516   5.872  24.861 -0.0524  0.0909 -0.0268
 1107BOLB   C1A26549  21.555   5.690  24.369 -0.2733 -0.3103  0.0267
 1107BOLB   C2A26550  21.711   5.240  24.457 -0.1322 -0.1302 -0.1429
 1107BOLB   C3A26551  21.733   4.794  24.424  0.2950  0.2903  0.0443
 1107BOLB   C4A26552  21.673   4.460  24.279  0.0607  0.2312  0.1470
 1107BOLB   C1B26553  21.816   5.542  24.931 -0.1212  0.3562 -0.0210
 1107BOLB   C2B26554  21.982   5.118  24.923 -0.0312 -0.1991  0.0238
 1107BOLB   C3B26555  21.861   4.788  25.141 -0.3101  0.1294  0.0995
 1107BOLB   C4B26556  21.907   4.253  25.236  0.1663 -0.0986 -0.0277
 1107BOLB   NC226557  23.112   2.356  23.559  0.0116 -0.1659  0.1777
 1107BOLB   PO226558  22.614   2.320  23.441 -0.0274  0.3490 -0.1506
 1107BOLB   GL326559  22.471   2.774  23.575  0.1863  0.0617 -0.3235
 1107BOLB   GL426560  22.591   2.913  23.848  0.0039 -0.0885  0.0926
 1107BOLB   C1C26561  22.181   3.109  23.637  0.1406  0.1358  0.4230
 1107BOLB   C2C26562  21.987   3.528  23.737 -0.2755 -0.4943  0.1214
 1107BOLB   C3C26563  21.809   3.706  24.158  0.0805  0.1027  0.4635
 1107BOLB   C4C26564  21.858   4.038  24.264  0.1313 -0.0706  0.0292
 1107BOLB   C1D26565  22.433   3.146  24.091 -0.0415  0.1209 -0.2329
 1107BOLB   C2D26566  22.174   3.002  24.464 -0.1125  0.0252  0.0970
 1107BOLB   C3D26567  21.729   2.938  24.599  0.2163  0.0990  0.1607
 1107BOLB   C4D26568  21.324   2.809  24.709  0.2520  0.4663  0.0899
 1108BOLB   NC126569  21.442   7.054  32.997 -0.1380 -0.2624 -0.0127
 1108BOLB   PO126570  21.803   6.989  32.882 -0.0061  0.3284 -0.0472
 1108BOLB   GL126571  22.080   6.751  33.035  0.1418 -0.1442 -0.2915
 1108BOLB   GL226572  22.398   6.915  33.206 -0.1213  0.2573  0.1946
 1108BOLB   C1A26573  22.124   6.358  33.121 -0.3563  0.0052 -0.0671
 1108BOLB   C2A26574  22.338   5.959  33.253 -0.5213  0.7066 -0.1170
 1108BOLB   C3A26575  22.571   5.723  33.545  0.4288  0.3163  0.0490
 1108BOLB   C4A26576  22.912   5.543  33.694 -0.0676 -0.1836 -0.3829
 1108BOLB   C1B26577  22.606   6.577  33.377 -0.0190 -0.3418 -0.2537
 1108BOLB   C2B26578  22.698   6.355  33.763  0.1215 -0.0492 -0.0976
 1108BOLB   C3B26579  22.721   6.017  34.081 -0.2788 -0.0369  0.0540
 1108BOLB   C4B26580  22.822   5.649  34.306 -0.2453 -0.0594 -0.3681
 1108BOLB   NC226581  25.473   4.459  34.096 -0.1894 -0.0666  0.0486
 1108BOLB   PO226582  25.156   4.509  34.438  0.0972  0.4336 -0.0715
 1108BOLB   GL326583  24.815   4.711  34.214 -0.3162 -0.1896  0.1581
 1108BOLB   GL426584  24.704   4.990  33.911 -0.1076  0.4420  0.1689
 1108BOLB   C1C26585  24.345   4.784  34.226  0.0567  0.1908  0.0565
 1108BOLB   C2C26586  23.979   5.017  34.000  0.0699  0.1650  0.2096
 1108BOLB   C3C26587  23.680   5.355  34.113  0.0790  0.0215 -0.0789
 1108BOLB   C4C26588  23.359   5.625  33.931 -0.1745  0.0878 -0.2309
 1108BOLB   C1D26589  24.424   5.110  33.638  0.0907  0.0705  0.0493
 1108BOLB   C2D26590  24.085   5.155  33.433  0.5071 -0.1948 -0.0403
 1108BOLB   C3D26591  23.616   5.320  33.556  0.0852  0.1384  0.0348
 1108BOLB   C4D26592  23.324   5.633  33.449 -0.0358 -0.5259  0.1027
 1109BOLB   NC126593  13.825  20.289  26.207 -0.4071 -0.1083 -0.1170
 1109BOLB   PO126594  13.495  20.664  26.361 -0.2201 -0.3660 -0.2043
 1109BOLB   GL126595  13.565  21.042  26.146 -0.1948  0.0027 -0.0588
 1109BOLB   GL226596  13.441  21.305  26.324  0.2801  0.2235 -0.0530
 1109BOLB   C1A26597  13.660  21.323  25.813 -0.1082  0.1331 -0.0335
 1109BOLB   C2A26598  13.773  21.582  25.492 -0.0994 -0.0431 -0.0688
 1109BOLB   C3A26599  13.720  21.901  25.225  0.1937 -0.2810 -0.0887
 1109BOLB   C4A26600  13.479  22.221  25.020 -0.2987 -0.0687 -0.0497
 1109BOLB   C1B26601  13.283  21.707  26.187  0.0338  0.0813 -0.1337
 1109BOLB   C2B26602  13.319  22.085  26.020  0.0424  0.0864  0.2120
 1109BOLB   C3B26603  13.302  22.141  25.572  0.0937  0.0668  0.0766
 1109BOLB   C4B26604  12.851  22.080  25.525  0.1676 -0.1800  0.2767
 1109BOLB   NC226605  14.622  24.562  24.873  0.0347  0.0497  0.0609
 1109BOLB   PO226606  14.339  24.682  24.565 -0.1813  0.0546  0.3950
 1109BOLB   GL326607  14.270  24.247  24.594  0.1464  0.0163  0.4792
 1109BOLB   GL426608  14.438  24.090  24.848  0.0348  0.2630 -0.1001
 1109BOLB   C1C26609  13.999  23.870  24.651  0.0320  0.1971 -0.2053
 1109BOLB   C2C26610  13.899  23.450  24.838 -0.2237 -0.3169 -0.4298
 1109BOLB   C3C26611  13.729  23.001  24.861 -0.1533  0.0237  0.0312
 1109BOLB   C4C26612  13.633  22.615  24.871 -0.1537  0.0920  0.0208
 1109BOLB   C1D26613  14.419  23.673  24.776 -0.3075 -0.3577  0.1307
 1109BOLB   C2D26614  14.502  23.264  24.550  0.0698 -0.1468 -0.2114
 1109BOLB   C3D26615  14.619  22.816  24.710 -0.2606 -0.1012  0.0736
 1109BOLB   C4D26616  14.922  22.555  24.585  0.1288 -0.5356  0.1642
 1110BOLB   NC126617  15.849   5.826  23.220  0.2917  0.0635 -0.5563
 1110BOLB   PO126618  16.218   5.895  22.853  0.0538 -0.2622 -0.1380
 1110BOLB   GL126619  16.105   5.694  22.506 -0.4942  0.0648  0.2650
 1110BOLB   GL226620  16.333   5.680  22.211 -0.0046  0.3418  0.1260
 1110BOLB   C1A26621  16.000   5.253  22.595 -0.0656  0.0217 -0.1390
 1110BOLB   C2A26622  15.749   5.020  22.308 -0.1058  0.0397 -0.1852
 1110BOLB   C3A26623  15.536   4.751  21.998 -0.1194  0.1774  0.0016
 1110BOLB   C4A26624  15.219   4.688  21.737 -0.4760  0.1084  0.1889
 1110BOLB   C1B26625  16.635   5.322  22.255  0.0027 -0.0464 -0.1909
 1110BOLB   C2B26626  16.672   4.890  21.963  0.0639 -0.1543  0.1597
 1110BOLB   C3B26627  16.521   4.551  21.800 -0.1896 -0.1610 -0.2727
 1110BOLB   C4B26628  16.291   4.312  21.516  0.1093 -0.0640  0.1258
 1110BOLB   NC226629  14.666   3.597  19.439  0.1906  0.3582 -0.1807
 1110BOLB   PO226630  14.401   3.578  19.743  0.1555 -0.1920  0.1027
 1110BOLB   GL326631  14.452   3.766  20.122 -0.3669  0.0435  0.1928
 1110BOLB   GL426632  14.623   4.078  20.107  0.0230  0.3184 -0.2159
 1110BOLB   C1C26633  14.388   4.047  20.485  0.0883  0.2177 -0.1371
 1110BOLB   C2C26634  14.549   4.346  20.801 -0.1370 -0.0267 -0.1133
 1110BOLB   C3C26635  14.762   4.375  21.163 -0.1385  0.1379  0.3380
 1110BOLB   C4C26636  15.027   4.585  21.428  0.1259 -0.0132  0.0306
 1110BOLB   C1D26637  14.569   4.502  20.270 -0.1018 -0.2103  0.2127
 1110BOLB   C2D26638  14.462   5.006  20.450  0.0096  0.1063  0.1246
 1110BOLB   C3D26639  14.548   5.270  20.814  0.1524  0.2917  0.3000
 1110BOLB   C4D26640  14.629   5.575  21.174 -0.3078  0.2645 -0.0063
 1111BOLB   NC126641  19.426  22.599  38.107 -0.0682 -0.0385  0.0573
 1111BOLB   PO126642  19.360  22.411  37.745 -0.0114  0.4186 -0.1426
 1111BOLB   GL126643  18.958  22.245  37.682  0.2665  0.0264  0.0803
 1111BOLB   GL226644  18.977  21.968  37.745  0.0513 -0.2005 -0.2204
 1111BOLB   C1A26645  18.742  22.047  37.298 -0.0863  0.0810 -0.0686
 1111BOLB   C2A26646  18.641  21.668  37.030 -0.0563  0.0938 -0.2269
 1111BOLB   C3A26647  18.673  21.349  36.898  0.0748 -0.2273 -0.0345
 1111BOLB   C4A26648  18.573  20.957  36.657 -0.3726 -0.2623 -0.2292
 1111BOLB   C1B26649  18.830  21.664  38.053 -0.0850  0.0950 -0.0476
 1111BOLB   C2B26650  18.583  21.308  38.045 -0.2746 -0.0814 -0.0655
 1111BOLB   C3B26651  18.424  21.198  38.220  0.1910 -0.1354 -0.1770
 1111BOLB   C4B26652  18.358  20.785  38.315  0.0545  0.2626 -0.0283
 1111BOLB   NC226653  18.550  18.467  35.906  0.0691 -0.1939  0.0742
 1111BOLB   PO226654  18.546  18.900  35.719 -0.1193  0.4139  0.2257
 1111BOLB   GL326655  18.819  19.317  35.742  0.0243  0.1059 -0.2455
 1111BOLB   GL426656  19.123  19.516  35.540  0.3197 -0.2249  0.1782
 1111BOLB   C1C26657  18.982  19.781  35.902 -0.2126  0.0233  0.0370
 1111BOLB   C2C26658  18.721  20.141  36.006 -0.1555  0.3158  0.1411
 1111BOLB   C3C26659  18.766  20.481  36.313 -0.0689 -0.1067 -0.1196
 1111BOLB   C4C26660  18.593  20.548  36.703 -0.2540  0.0075  0.1004
 1111BOLB   C1D26661  19.434  19.804  35.791  0.0877  0.0075 -0.0216
 1111BOLB   C2D26662  19.769  19.869  35.985 -0.1819  0.3171 -0.0715
 1111BOLB   C3D26663  19.868  19.792  36.376 -0.0038  0.2447 -0.0122
 1111BOLB   C4D26664  19.706  19.762  36.748  0.3572  0.1633  0.0341
 1112BOLB   NC126665  16.451   5.193  34.261 -0.1073 -0.1254  0.0388
 1112BOLB   PO126666  16.451   5.015  33.919  0.3711 -0.3303  0.1411
 1112BOLB   GL126667  16.518   4.595  34.028  0.0774 -0.4274  0.2739
 1112BOLB   GL226668  16.766   4.706  34.244  0.1961  0.1205 -0.2078
 1112BOLB   C1A26669  16.434   4.108  34.073 -0.2911  0.1728 -0.3447
 1112BOLB   C2A26670  16.335   3.698  34.122  0.1225 -0.1393  0.2611
 1112BOLB   C3A26671  16.492   3.261  34.288 -0.0206 -0.0655  0.0918
 1112BOLB   C4A26672  16.406   2.819  34.304  0.2066 -0.4011  0.2676
 1112BOLB   C1B26673  16.854   4.337  34.334 -0.0138  0.0131 -0.0989
 1112BOLB   C2B26674  16.825   3.959  34.353 -0.4345  0.1513  0.1442
 1112BOLB   C3B26675  16.847   3.529  34.557  0.1709 -0.0069 -0.0702
 1112BOLB   C4B26676  16.923   3.085  34.439 -0.0447  0.2429 -0.0950
 1112BOLB   NC226677  16.239   1.225  35.278  0.1701  0.1982  0.0380
 1112BOLB   PO226678  15.953   1.248  35.685  0.4949  0.1238  0.3864
 1112BOLB   GL326679  15.861   1.663  35.503 -0.0014  0.0242 -0.0394
 1112BOLB   GL426680  15.542   1.905  35.597 -0.0539  0.2117 -0.0007
 1112BOLB   C1C26681  16.059   1.831  35.194  0.2550  0.1821 -0.2586
 1112BOLB   C2C26682  15.926   2.052  34.768 -0.2007 -0.2933  0.2324
 1112BOLB   C3C26683  15.946   2.094  34.320 -0.0141 -0.5354 -0.1537
 1112BOLB   C4C26684  16.148   2.501  34.158  0.1004  0.2788  0.1558
 1112BOLB   C1D26685  15.443   2.377  35.653 -0.1113  0.0462  0.0968
 1112BOLB   C2D26686  15.523   2.690  35.433 -0.2603  0.1150  0.1355
 1112BOLB   C3D26687  15.445   2.946  35.087  0.2020  0.1096 -0.1533
 1112BOLB   C4D26688  15.603   3.277  34.767  0.2137 -0.4466 -0.3021
 1113BOLB   NC126689  21.917  16.502  17.328  0.1114  0.0674  0.2540
 1113BOLB   PO126690  21.788  16.368  16.992 -0.1743  0.1754 -0.0707
 1113BOLB   GL126691  21.575  16.132  17.193 -0.0457 -0.1337 -0.0381
 1113BOLB   GL226692  21.211  16.109  17.069 -0.3358  0.1781 -0.2043
 1113BOLB   C1A26693  21.674  15.903  17.496 -0.1971 -0.0042 -0.2080
 1113BOLB   C2A26694  21.801  15.747  17.883  0.0924  0.0530 -0.1691
 1113BOLB   C3A26695  22.037  15.547  18.163 -0.0088  0.0807 -0.1827
 1113BOLB   C4A26696  22.232  15.721  18.586 -0.2464 -0.3322  0.3977
 1113BOLB   C1B26697  21.436  15.606  17.164  0.0954  0.0781  0.0098
 1113BOLB   C2B26698  21.254  15.184  17.303  0.0368  0.0251 -0.0280
 1113BOLB   C3B26699  21.286  14.924  17.595 -0.1030 -0.0022  0.0220
 1113BOLB   C4B26700  21.280  14.872  18.022  0.2980  0.0880  0.1490
 1113BOLB   NC226701  24.431  16.721  19.495  0.0185 -0.0796 -0.1327
 1113BOLB   PO226702  24.408  16.275  19.424 -0.0123  0.1338 -0.6037
 1113BOLB   GL326703  23.987  16.083  19.407 -0.3166 -0.1527 -0.0855
 1113BOLB   GL426704  23.764  16.028  19.682 -0.1268 -0.2810 -0.0095
 1113BOLB   C1C26705  23.542  16.171  19.251 -0.3328  0.1533 -0.2157
 1113BOLB   C2C26706  23.310  15.940  18.990  0.1132  0.0418 -0.2250
 1113BOLB   C3C26707  22.964  15.737  19.044 -0.2137 -0.1834  0.0993
 1113BOLB   C4C26708  22.562  15.815  18.916 -0.3411 -0.0597  0.0164
 1113BOLB   C1D26709  23.354  15.904  19.667 -0.1106 -0.1312  0.0242
 1113BOLB   C2D26710  23.004  15.806  20.015 -0.2176  0.1536  0.1290
 1113BOLB   C3D26711  22.535  15.780  19.996  0.1097 -0.0127  0.1591
 1113BOLB   C4D26712  22.123  15.535  20.060  0.0370 -0.3330 -0.1434
 1114BOLB   NC126713  10.097  18.798  26.432 -0.1805 -0.1149 -0.0263
 1114BOLB   PO126714   9.815  18.568  26.595 -0.2425 -0.3668 -0.1149
 1114BOLB   GL126715   9.621  18.872  26.364  0.1933  0.3751 -0.0449
 1114BOLB   GL226716   9.336  18.835  26.304 -0.3251  0.0472 -0.0217
 1114BOLB   C1A26717   9.567  19.351  26.214  0.0917 -0.2119  0.2065
 1114BOLB   C2A26718   9.253  19.533  25.944  0.0975 -0.3826 -0.0436
 1114BOLB   C3A26719   9.057  19.758  25.623 -0.3325  0.0166 -0.1184
 1114BOLB   C4A26720   8.796  20.128  25.539  0.3148  0.0158  0.0208
 1114BOLB   C1B26721   9.013  19.070  26.133 -0.2689 -0.0284 -0.0041
 1114BOLB   C2B26722   8.702  19.370  25.873  0.1120 -0.1583 -0.1731
 1114BOLB   C3B26723   8.586  19.675  25.556 -0.3552  0.1962 -0.2331
 1114BOLB   C4B26724   8.486  20.012  25.196  0.3070 -0.0608 -0.0993
 1114BOLB   NC226725   7.161  21.397  24.286 -0.3687  0.0698  0.0575
 1114BOLB   PO226726   7.032  21.640  24.614  0.1421  0.0188  0.0269
 1114BOLB   GL326727   7.288  21.296  24.789 -0.0226 -0.0470 -0.3947
 1114BOLB   GL426728   7.592  21.375  25.103  0.1207  0.1105 -0.2571
 1114BOLB   C1C26729   7.559  20.852  24.740 -0.3481 -0.0135  0.3726
 1114BOLB   C2C26730   7.866  20.658  24.914  0.1387 -0.2283 -0.0774
 1114BOLB   C3C26731   8.103  20.431  25.269 -0.0884  0.0601  0.0040
 1114BOLB   C4C26732   8.443  20.428  25.531 -0.1750  0.0483 -0.2036
 1114BOLB   C1D26733   7.835  21.320  24.816  0.2806  0.0751  0.0101
 1114BOLB   C2D26734   8.089  21.134  24.679 -0.1954  0.3059 -0.2194
 1114BOLB   C3D26735   8.225  20.678  24.578 -0.1073 -0.0100  0.0808
 1114BOLB   C4D26736   8.410  20.339  24.809 -0.0027  0.1159 -0.1653
 1115BOLB   NC126737  17.845  10.349  39.337 -0.2310 -0.2972 -0.0065
 1115BOLB   PO126738  17.890  10.700  39.693 -0.1353  0.2191  0.1689
 1115BOLB   GL126739  18.124  10.849  40.105 -0.0302 -0.4340 -0.2350
 1115BOLB   GL226740  18.380  11.070  40.140 -0.2015 -0.2508 -0.1938
 1115BOLB   C1A26741  18.095  10.705  40.533  0.0019 -0.0983 -0.0761
 1115BOLB   C2A26742  18.104  10.622  40.982  0.2507 -0.2909 -0.3299
 1115BOLB   C3A26743  17.938  10.388  41.200  0.1157 -0.1305 -0.2488
 1115BOLB   C4A26744  17.831  10.186  41.527 -0.4436 -0.0985 -0.4365
 1115BOLB   C1B26745  18.564  11.001  40.480 -0.1684 -0.0394  0.1194
 1115BOLB   C2B26746  18.833  10.721  40.704 -0.0767 -0.0948  0.0150
 1115BOLB   C3B26747  19.030  10.473  40.975  0.0409  0.1704  0.2541
 1115BOLB   C4B26748  19.263  10.247  41.162  0.0407 -0.0259  0.3233
 1115BOLB   NC226749  19.025   9.554  43.815 -0.2359 -0.2231 -0.2085
 1115BOLB   PO226750  19.134   9.547  43.354 -0.2649  0.0513  0.1077
 1115BOLB   GL326751  18.819   9.626  43.096 -0.1153  0.2019 -0.0309
 1115BOLB   GL426752  18.901   9.753  42.802  0.0930 -0.2294  0.0704
 1115BOLB   C1C26753  18.465   9.463  42.823 -0.2615 -0.0324  0.1141
 1115BOLB   C2C26754  18.095   9.604  42.566 -0.1830  0.1015  0.0935
 1115BOLB   C3C26755  17.995   9.833  42.255 -0.0094  0.1129  0.1603
 1115BOLB   C4C26756  17.762   9.954  41.831 -0.2353 -0.0400  0.0002
 1115BOLB   C1D26757  18.744   9.646  42.394  0.1621  0.2499  0.1607
 1115BOLB   C2D26758  18.748   9.718  41.905  0.2373  0.0701 -0.2958
 1115BOLB   C3D26759  18.660   9.634  41.533 -0.4950  0.1807 -0.0698
 1115BOLB   C4D26760  18.557   9.763  41.124 -0.0726  0.0450 -0.0915
 1116BOLB   NC126761  11.794   0.912  33.599 -0.1034 -0.2263 -0.2114
 1116BOLB   PO126762  12.028   0.783  33.284  0.0619 -0.0739  0.1441
 1116BOLB   GL126763  12.085   1.238  33.259  0.1027  0.0541  0.0978
 1116BOLB   GL226764  11.877   1.251  32.949 -0.2551  0.3154  0.1314
 1116BOLB   C1A26765  12.413   1.498  33.107 -0.0826 -0.2443 -0.1061
 1116BOLB   C2A26766  12.532   1.763  33.066 -0.0472  0.1935 -0.0137
 1116BOLB   C3A26767  12.588   2.229  33.114  0.0704 -0.1551  0.0045
 1116BOLB   C4A26768  12.119   2.559  33.026 -0.0794 -0.0008 -0.2816
 1116BOLB   C1B26769  12.090   1.572  32.739  0.2088  0.1159 -0.5308
 1116BOLB   C2B26770  12.145   1.903  32.359 -0.0370 -0.0185  0.1312
 1116BOLB   C3B26771  11.959   2.240  32.207  0.1481 -0.1788  0.0591
 1116BOLB   C4B26772  11.896   2.656  32.286 -0.1655  0.0306  0.0776
 1116BOLB   NC226773  10.756   1.036  33.143 -0.1950 -0.3803  0.1555
 1116BOLB   PO226774  10.572   1.282  33.480 -0.1299  0.0765 -0.0766
 1116BOLB   GL326775  10.872   1.591  33.423  0.1623 -0.2424  0.0193
 1116BOLB   GL426776  11.131   1.496  33.529  0.1220 -0.1579  0.6980
 1116BOLB   C1C26777  11.024   1.894  33.081  0.5645 -0.0151  0.2249
 1116BOLB   C2C26778  11.213   2.082  32.744 -0.0388 -0.3167 -0.2926
 1116BOLB   C3C26779  11.504   2.513  32.591  0.0960 -0.0715  0.0989
 1116BOLB   C4C26780  11.818   2.647  32.777 -0.5390 -0.3148 -0.2258
 1116BOLB   C1D26781  11.281   1.932  33.457  0.2176 -0.1974  0.0458
 1116BOLB   C2D26782  11.325   2.343  33.604 -0.1435  0.2484  0.2411
 1116BOLB   C3D26783  11.085   2.619  33.924 -0.0404 -0.0670  0.0717
 1116BOLB   C4D26784  11.193   2.817  34.394 -0.0509 -0.0565  0.0585
 1117BOLB   NC126785   8.259  11.472  34.025 -0.1815  0.1730 -0.1345
 1117BOLB   PO126786   8.376  11.059  34.334 -0.1820  0.0142 -0.4362
 1117BOLB   GL126787   8.086  10.954  34.570 -0.0255 -0.1700  0.5266
 1117BOLB   GL226788   8.029  11.121  34.832 -0.3463  0.1068 -0.0753
 1117BOLB   C1A26789   7.675  10.961  34.590 -0.4474  0.1722  0.2200
 1117BOLB   C2A26790   7.317  10.751  34.674 -0.0873 -0.1846  0.0751
 1117BOLB   C3A26791   6.897  10.401  34.712 -0.2557 -0.1213 -0.1115
 1117BOLB   C4A26792   6.533  10.392  34.946 -0.3349 -0.2541 -0.1299
 1117BOLB   C1B26793   7.752  10.793  35.055 -0.2090 -0.1596  0.2205
 1117BOLB   C2B26794   7.621  10.607  35.477  0.1925  0.1414 -0.4758
 1117BOLB   C3B26795   7.407  10.540  35.878  0.2473 -0.1063  0.1153
 1117BOLB   C4B26796   7.608  10.614  36.322  0.2108  0.1805 -0.1276
 1117BOLB   NC226797   4.615   8.987  35.874  0.2939 -0.5853 -0.1029
 1117BOLB   PO226798   4.791   9.474  35.747  0.2527  0.1340 -0.0613
 1117BOLB   GL326799   5.254   9.421  35.769 -0.2265 -0.2391 -0.2772
 1117BOLB   GL426800   5.501   9.136  35.717 -0.1748 -0.6753 -0.0155
 1117BOLB   C1C26801   5.582   9.651  35.778  0.0759  0.0303  0.4439
 1117BOLB   C2C26802   5.552   9.993  35.536  0.3526 -0.1644 -0.1105
 1117BOLB   C3C26803   5.857  10.214  35.431  0.0683  0.1431 -0.2586
 1117BOLB   C4C26804   6.186  10.297  35.228  0.1600 -0.4054  0.1071
 1117BOLB   C1D26805   5.843   9.310  35.528  0.3747  0.2207  0.0197
 1117BOLB   C2D26806   6.012   9.764  35.442  0.0652  0.0756  0.0117
 1117BOLB   C3D26807   6.404   9.898  35.142  0.0098  0.0079 -0.3122
 1117BOLB   C4D26808   6.883  10.040  35.167 -0.0397  0.2660  0.1364
 1118BOLB   NC126809  10.031   6.761  31.051 -0.1998  0.1081 -0.0389
 1118BOLB   PO126810   9.798   6.971  30.738 -0.1091  0.0015  0.0530
 1118BOLB   GL126811   9.684   6.623  30.627 -0.0659 -0.1193 -0.2213
 1118BOLB   GL226812   9.804   6.668  30.296  0.2575 -0.3437 -0.0153
 1118BOLB   C1A26813   9.272   6.523  30.589 -0.1247  0.2057 -0.1875
 1118BOLB   C2A26814   8.908   6.366  30.758  0.2479 -0.0745  0.0368
 1118BOLB   C3A26815   8.578   6.172  30.972 -0.3425  0.2451  0.1871
 1118BOLB   C4A26816   8.302   5.919  30.931  0.1882 -0.0926 -0.2418
 1118BOLB   C1B26817   9.433   6.600  30.129  0.1960 -0.0142 -0.2387
 1118BOLB   C2B26818   9.079   6.483  29.955 -0.3455  0.1383 -0.1588
 1118BOLB   C3B26819   8.759   6.137  30.016 -0.3750 -0.4335 -0.3007
 1118BOLB   C4B26820   8.493   6.068  30.222 -0.6178 -0.0830  0.0876
 1118BOLB   NC226821   6.859   3.609  31.620  0.0001 -0.0914  0.2230
 1118BOLB   PO226822   7.011   3.739  31.256 -0.1859  0.2121  0.2877
 1118BOLB   GL326823   7.042   4.120  31.010 -0.2035  0.0078 -0.4921
 1118BOLB   GL426824   6.968   4.157  30.607 -0.0638  0.2838  0.2301
 1118BOLB   C1C26825   7.276   4.468  30.915 -0.0619 -0.0582 -0.0832
 1118BOLB   C2C26826   7.477   4.811  31.158  0.0852 -0.0645  0.0436
 1118BOLB   C3C26827   7.607   5.247  31.178  0.0637 -0.0786  0.0326
 1118BOLB   C4C26828   7.921   5.580  30.970 -0.0925  0.0270  0.1133
 1118BOLB   C1D26829   7.041   4.555  30.449 -0.4772 -0.1501 -0.1885
 1118BOLB   C2D26830   7.373   4.871  30.513  0.1375  0.1299 -0.2328
 1118BOLB   C3D26831   7.746   5.086  30.734 -0.2455 -0.0163  0.1504
 1118BOLB   C4D26832   8.055   5.003  31.050 -0.2297 -0.5105  0.2918
 1119BOLB   NC126833  10.477  19.059  25.965  0.1978  0.0320 -0.0016
 1119BOLB   PO126834  10.567  19.479  26.037  0.0760  0.1039 -0.3044
 1119BOLB   GL126835  10.280  19.701  25.877 -0.0043  0.2482  0.0109
 1119BOLB   GL226836  10.229  19.991  25.990  0.0448  0.1378 -0.1491
 1119BOLB   C1A26837  10.028  19.955  25.563  0.2480 -0.0794  0.4631
 1119BOLB   C2A26838   9.949  19.927  25.221  0.1123 -0.0483 -0.0410
 1119BOLB   C3A26839   9.809  20.233  25.051 -0.3884 -0.0178  0.3515
 1119BOLB   C4A26840   9.608  20.623  24.961  0.1408  0.0395  0.2190
 1119BOLB   C1B26841   9.802  20.284  26.163 -0.2030 -0.0924 -0.1091
 1119BOLB   C2B26842   9.927  20.642  26.407  0.1709 -0.2745 -0.1247
 1119BOLB   C3B26843   9.924  21.048  26.423  0.3983 -0.1960 -0.0349
 1119BOLB   C4B26844   9.972  21.548  26.437 -0.1002  0.0087  0.2386
 1119BOLB   NC226845   8.525  22.539  23.754 -0.4439  0.0966  0.1728
 1119BOLB   PO226846   8.429  22.204  23.354  0.1703  0.2610  0.1721
 1119BOLB   GL326847   8.475  21.903  23.629  0.1206 -0.0983  0.0630
 1119BOLB   GL426848   8.878  21.776  23.586 -0.3494  0.0434  0.1481
 1119BOLB   C1C26849   8.661  21.370  23.819 -0.4958  0.1867  0.1305
 1119BOLB   C2C26850   8.926  21.264  24.061 -0.3205  0.0253 -0.1812
 1119BOLB   C3C26851   9.114  21.293  24.523  0.0626  0.2009  0.0123
 1119BOLB   C4C26852   9.250  20.863  24.788 -0.3119 -0.0623  0.0196
 1119BOLB   C1D26853   9.187  21.726  24.031 -0.0244  0.0682 -0.1131
 1119BOLB   C2D26854   9.418  21.467  24.212  0.1594  0.2179 -0.2349
 1119BOLB   C3D26855   9.538  21.098  24.393 -0.3556 -0.0110 -0.3079
 1119BOLB   C4D26856   9.907  20.836  24.628  0.1478 -0.1154  0.0048
 1120BOLB   NC126857  16.526  17.390  37.492 -0.2380 -0.2078 -0.1034
 1120BOLB   PO126858  16.427  17.648  37.866  0.0110  0.3312  0.0908
 1120BOLB   GL126859  16.350  17.867  38.199 -0.1175 -0.0922  0.1249
 1120BOLB   GL226860  16.112  17.905  38.418  0.0549  0.0948 -0.2112
 1120BOLB   C1A26861  16.568  18.137  38.621 -0.0465 -0.0543 -0.1012
 1120BOLB   C2A26862  16.422  18.469  38.836 -0.1281  0.2247 -0.2369
 1120BOLB   C3A26863  16.529  18.883  38.884  0.1250  0.3289 -0.0956
 1120BOLB   C4A26864  16.378  19.212  39.008 -0.0158 -0.0867 -0.3914
 1120BOLB   C1B26865  16.009  18.330  38.647  0.1055  0.2343  0.2618
 1120BOLB   C2B26866  15.724  18.551  38.936 -0.0871  0.0317  0.0268
 1120BOLB   C3B26867  15.343  18.655  39.158  0.3383 -0.1245  0.1344
 1120BOLB   C4B26868  15.158  19.196  39.127  0.0818  0.1883 -0.0930
 1120BOLB   NC226869  16.630  20.520  40.617 -0.2066  0.3572  0.2352
 1120BOLB   PO226870  16.569  20.929  40.436  0.0199 -0.1269 -0.1292
 1120BOLB   GL326871  16.196  20.858  40.210  0.0911 -0.0253 -0.1944
 1120BOLB   GL426872  15.925  20.987  40.037  0.4429 -0.0062  0.2183
 1120BOLB   C1C26873  15.846  20.509  40.110 -0.2202  0.2290 -0.0788
 1120BOLB   C2C26874  15.699  20.261  39.710 -0.2331 -0.2261  0.1489
 1120BOLB   C3C26875  15.923  19.989  39.345  0.0169 -0.1446 -0.0187
 1120BOLB   C4C26876  16.021  19.556  39.122 -0.1614 -0.1008  0.2113
 1120BOLB   C1D26877  15.833  20.946  39.569  0.2177  0.1974  0.0608
 1120BOLB   C2D26878  15.878  20.752  39.220 -0.3185  0.0428 -0.0010
 1120BOLB   C3D26879  15.958  20.550  38.866  0.1662  0.1751  0.0181
 1120BOLB   C4D26880  16.190  20.305  38.697 -0.2583  0.0794  0.1573
 1121BOLB   NC126881  17.145   5.564  25.209  0.0920  0.1536 -0.0143
 1121BOLB   PO126882  16.897   5.288  24.919  0.1779 -0.1100 -0.1942
 1121BOLB   GL126883  17.070   4.882  24.741 -0.0147 -0.0957 -0.2894
 1121BOLB   GL226884  16.922   4.547  24.899  0.0362 -0.0801  0.0139
 1121BOLB   C1A26885  17.047   4.483  24.456  0.3567  0.0699 -0.1304
 1121BOLB   C2A26886  17.245   4.133  24.464 -0.2853 -0.1982 -0.0002
 1121BOLB   C3A26887  17.669   4.019  24.284  0.1085 -0.0274 -0.2063
 1121BOLB   C4A26888  17.795   3.637  24.339 -0.0079 -0.0015  0.0147
 1121BOLB   C1B26889  16.975   4.161  24.870  0.1041 -0.1590 -0.0696
 1121BOLB   C2B26890  16.925   3.743  24.784  0.4145  0.1077 -0.1756
 1121BOLB   C3B26891  16.778   3.397  24.669 -0.1161 -0.3284 -0.1735
 1121BOLB   C4B26892  16.527   2.978  24.719 -0.0812 -0.2592 -0.1379
 1121BOLB   NC226893  18.423   1.266  24.014  0.4021  0.0230 -0.2589
 1121BOLB   PO226894  18.027   1.265  24.178  0.0602 -0.2024 -0.0638
 1121BOLB   GL326895  18.045   1.600  24.194 -0.0535  0.0272  0.3231
 1121BOLB   GL426896  18.341   1.782  23.988  0.2240 -0.1515 -0.0603
 1121BOLB   C1C26897  17.951   2.072  24.006  0.3040  0.0041 -0.3417
 1121BOLB   C2C26898  17.756   2.486  23.946  0.0714 -0.0475 -0.1929
 1121BOLB   C3C26899  17.924   2.870  24.158  0.2482 -0.1298 -0.2210
 1121BOLB   C4C26900  17.845   3.285  24.241  0.1687 -0.0364  0.4127
 1121BOLB   C1D26901  18.469   2.194  24.134  0.2713  0.1090 -0.1578
 1121BOLB   C2D26902  18.446   2.650  24.198 -0.1455  0.1413  0.1065
 1121BOLB   C3D26903  18.295   3.055  24.479  0.3473  0.0388 -0.0022
 1121BOLB   C4D26904  18.247   3.435  24.624  0.0591 -0.1851 -0.2595
 1122BOLB   NC126905  24.946  19.404  30.934 -0.0632 -0.0959  0.1085
 1122BOLB   PO126906  24.644  19.599  30.608  0.0988 -0.0259  0.0706
 1122BOLB   GL126907  24.277  19.377  30.762 -0.1307  0.0798  0.0150
 1122BOLB   GL226908  24.153  19.510  31.010  0.2724  0.4030  0.0842
 1122BOLB   C1A26909  24.043  19.003  30.910 -0.1656  0.1586  0.2080
 1122BOLB   C2A26910  23.683  18.807  31.013  0.2430  0.1058 -0.1065
 1122BOLB   C3A26911  23.277  18.779  31.169  0.1168 -0.0210 -0.3398
 1122BOLB   C4A26912  22.832  18.957  30.962 -0.2841 -0.0773 -0.1108
 1122BOLB   C1B26913  24.336  19.098  31.266  0.0324  0.0294 -0.2955
 1122BOLB   C2B26914  23.959  18.887  31.437  0.0896 -0.2550  0.1396
 1122BOLB   C3B26915  23.777  18.447  31.408 -0.0198 -0.0231  0.0927
 1122BOLB   C4B26916  23.509  18.101  31.354 -0.1083 -0.0838 -0.0092
 1122BOLB   NC226917  23.691  20.679  30.369  0.0854  0.0945 -0.1470
 1122BOLB   PO226918  23.650  20.779  30.645 -0.0843 -0.3689 -0.3494
 1122BOLB   GL326919  23.240  20.588  30.606  0.0801 -0.0071 -0.0913
 1122BOLB   GL426920  23.045  20.528  30.829  0.0612  0.3701  0.0272
 1122BOLB   C1C26921  22.873  20.241  30.427 -0.2809  0.1940  0.2682
 1122BOLB   C2C26922  22.544  19.935  30.644 -0.3592  0.0812 -0.1762
 1122BOLB   C3C26923  22.348  19.603  30.861 -0.0519 -0.0756 -0.0110
 1122BOLB   C4C26924  22.376  19.114  30.939  0.0707 -0.1063  0.3977
 1122BOLB   C1D26925  23.007  20.082  30.863  0.2062  0.0494  0.1384
 1122BOLB   C2D26926  22.881  19.595  30.965 -0.1067 -0.1767  0.1894
 1122BOLB   C3D26927  22.642  19.410  31.222 -0.2432  0.4071  0.0214
 1122BOLB   C4D26928  22.366  19.253  31.611 -0.1807 -0.0425 -0.1519
 1123BOLB   NC126929   8.268  16.803  29.096 -0.2525  0.0649 -0.1329
 1123BOLB   PO126930   8.011  16.977  28.789  0.1312  0.0365 -0.0959
 1123BOLB   GL126931   7.647  17.054  28.630 -0.0239  0.3116 -0.0551
 1123BOLB   GL226932   7.644  17.396  28.778  0.1005  0.2880 -0.1986
 1123BOLB   C1A26933   7.275  17.213  28.363 -0.0518  0.1309 -0.0478
 1123BOLB   C2A26934   6.919  17.216  28.307  0.2434  0.2595  0.1181
 1123BOLB   C3A26935   6.589  17.376  27.985 -0.1288  0.0042  0.0225
 1123BOLB   C4A26936   6.511  17.762  27.853 -0.0942 -0.3202 -0.2744
 1123BOLB   C1B26937   7.805  17.819  28.661  0.0981 -0.0631  0.1806
 1123BOLB   C2B26938   7.378  18.074  28.803 -0.1704 -0.0967 -0.0870
 1123BOLB   C3B26939   6.927  18.050  28.664  0.0958  0.3191 -0.0926
 1123BOLB   C4B26940   6.488  18.060  28.743 -0.1462  0.2202  0.3098
 1123BOLB   NC226941   4.710  19.089  27.612 -0.0426  0.0471  0.2058
 1123BOLB   PO226942   4.525  18.736  27.458  0.1328  0.0630  0.0781
 1123BOLB   GL326943   4.716  18.692  27.850 -0.1559  0.2344 -0.1296
 1123BOLB   GL426944   4.823  18.893  28.145 -0.2589  0.0621  0.1829
 1123BOLB   C1C26945   5.208  18.527  28.030 -0.0264 -0.1337 -0.1889
 1123BOLB   C2C26946   5.617  18.522  27.882 -0.0534 -0.0798 -0.0893
 1123BOLB   C3C26947   5.998  18.383  27.824  0.0062  0.0960  0.1008
 1123BOLB   C4C26948   6.447  18.181  27.799 -0.3135  0.3624  0.2236
 1123BOLB   C1D26949   5.276  19.077  28.161  0.3184  0.3784 -0.5606
 1123BOLB   C2D26950   5.684  18.935  28.147 -0.0317 -0.0540 -0.4350
 1123BOLB   C3D26951   6.016  18.740  28.180 -0.0535  0.0245 -0.1309
 1123BOLB   C4D26952   6.341  18.665  28.066 -0.2788 -0.1555 -0.0963
 1124BOLB   NC126953  20.982   6.164  31.285  0.4714 -0.1501 -0.1544
 1124BOLB   PO126954  21.007   5.735  31.104  0.1434 -0.2056  0.0597
 1124BOLB   GL126955  21.112   5.340  31.409 -0.3068 -0.3560  0.0048
 1124BOLB   GL226956  21.382   5.100  31.279  0.0413  0.0432  0.0077
 1124BOLB   C1A26957  21.230   5.009  31.795  0.0483 -0.0738  0.0996
 1124BOLB   C2A26958  21.547   4.887  32.127 -0.2188 -0.1376  0.0893
 1124BOLB   C3A26959  21.667   4.610  32.524 -0.0564  0.1484 -0.0865
 1124BOLB   C4A26960  22.082   4.541  32.653  0.0939 -0.1063  0.0712
 1124BOLB   C1B26961  21.563   4.641  31.526  0.0976 -0.2063  0.2230
 1124BOLB   C2B26962  21.843   4.293  31.563 -0.2734 -0.1639  0.0912
 1124BOLB   C3B26963  22.268   4.154  31.396  0.0840  0.0037 -0.0808
 1124BOLB   C4B26964  22.368   3.843  30.980  0.3781 -0.0585 -0.1330
 1124BOLB   NC226965  23.924   2.629  32.667 -0.0603 -0.0749 -0.3429
 1124BOLB   PO226966  23.554   2.893  32.812  0.1553 -0.0169 -0.2053
 1124BOLB   GL326967  23.168   3.251  33.013 -0.0631  0.0461  0.1813
 1124BOLB   GL426968  23.384   3.335  32.643 -0.0564 -0.0456 -0.3208
 1124BOLB   C1C26969  23.011   3.550  33.139  0.6656 -0.1825  0.3247
 1124BOLB   C2C26970  22.801   3.953  33.170 -0.0771 -0.1418 -0.1788
 1124BOLB   C3C26971  22.692   4.337  33.047 -0.0780 -0.0116  0.0389
 1124BOLB   C4C26972  22.484   4.619  32.840  0.0203 -0.1781 -0.1044
 1124BOLB   C1D26973  23.104   3.645  32.619  0.0906  0.2026  0.1122
 1124BOLB   C2D26974  22.804   3.842  32.263 -0.0915 -0.3038  0.2131
 1124BOLB   C3D26975  22.576   4.090  31.960  0.0824  0.0503  0.2004
 1124BOLB   C4D26976  22.329   4.422  31.832  0.0259  0.0933  0.1176
 1125BOLB   NC126977  11.641  20.568  33.099 -0.0849  0.0028 -0.0244
 1125BOLB   PO126978  11.582  20.594  32.626 -0.2159 -0.0253 -0.0317
 1125BOLB   GL126979  11.206  20.872  32.696  0.2000 -0.0424  0.1485
 1125BOLB   GL226980  10.867  20.680  32.695  0.0967  0.2010 -0.4510
 1125BOLB   C1A26981  11.129  21.312  32.625 -0.0490  0.0424  0.0079
 1125BOLB   C2A26982  10.934  21.689  32.774 -0.2132  0.1189 -0.0469
 1125BOLB   C3A26983  10.910  21.962  33.157  0.0725 -0.1905  0.0338
 1125BOLB   C4A26984  11.014  22.185  33.501  0.2541  0.3239 -0.1027
 1125BOLB   C1B26985  10.500  20.886  32.760  0.1802 -0.1782 -0.0388
 1125BOLB   C2B26986  10.136  21.135  32.737  0.2178 -0.2993  0.0833
 1125BOLB   C3B26987  10.011  21.603  32.907 -0.0336  0.0912  0.0310
 1125BOLB   C4B26988   9.734  21.903  32.992 -0.3591  0.0219  0.1801
 1125BOLB   NC226989  11.980  24.493  34.346  0.0180  0.2335  0.1200
 1125BOLB   PO226990  12.027  24.478  33.942 -0.4105  0.0331  0.1215
 1125BOLB   GL326991  11.888  24.084  33.766  0.4999 -0.3113 -0.0344
 1125BOLB   GL426992  12.107  23.937  33.615  0.1848  0.0433 -0.2973
 1125BOLB   C1C26993  11.617  23.813  33.521  0.0081  0.3615  0.0319
 1125BOLB   C2C26994  11.430  23.489  33.315 -0.2136 -0.0296  0.0648
 1125BOLB   C3C26995  11.177  23.039  33.517 -0.2415  0.0216 -0.1268
 1125BOLB   C4C26996  11.049  22.535  33.688 -0.0186 -0.0760  0.0009
 1125BOLB   C1D26997  12.054  23.551  33.428  0.1087  0.0177  0.3508
 1125BOLB   C2D26998  12.125  23.357  33.028 -0.1353 -0.2492  0.0043
 1125BOLB   C3D26999  12.272  22.959  32.763 -0.0460  0.2783 -0.1037
 1125BOLB   C4D27000  12.470  22.546  32.912 -0.1325 -0.0242 -0.0366
 1126BOLB   NC127001  19.202   8.173  20.671  0.0998  0.1843 -0.1178
 1126BOLB   PO127002  18.860   8.075  20.989  0.1013  0.5273  0.2215
 1126BOLB   GL127003  18.910   7.723  20.616  0.0927 -0.3423 -0.0148
 1126BOLB   GL227004  18.660   7.783  20.290  0.2139  0.0427 -0.2667
 1126BOLB   C1A27005  19.064   7.431  20.336  0.1722 -0.1535  0.2530
 1126BOLB   C2A27006  19.316   7.122  20.044 -0.1802  0.0073  0.0667
 1126BOLB   C3A27007  19.570   6.886  19.780  0.1855  0.0392 -0.1284
 1126BOLB   C4A27008  19.423   6.575  19.420 -0.2149 -0.1984  0.1795
 1126BOLB   C1B27009  18.349   7.848  20.007  0.0176 -0.0761  0.0244
 1126BOLB   C2B27010  18.136   7.675  19.658 -0.0439 -0.4239  0.1321
 1126BOLB   C3B27011  18.010   7.255  19.461 -0.1059 -0.1269  0.1550
 1126BOLB   C4B27012  17.779   7.178  19.076 -0.0063 -0.1545 -0.1654
 1126BOLB   NC227013  19.255   5.210  17.201  0.2576  0.0068  0.0386
 1126BOLB   PO227014  18.934   5.441  17.473  0.0788 -0.0478  0.2424
 1126BOLB   GL327015  18.956   5.413  17.929 -0.0619  0.1219 -0.0392
 1126BOLB   GL427016  19.388   5.409  17.916  0.0949 -0.0876 -0.0674
 1126BOLB   C1C27017  19.072   5.605  18.217 -0.3628 -0.1265 -0.3251
 1126BOLB   C2C27018  18.940   5.789  18.540 -0.2062 -0.0555  0.1056
 1126BOLB   C3C27019  19.066   6.003  18.869  0.0574  0.0095  0.2862
 1126BOLB   C4C27020  19.109   6.332  19.171  0.1117  0.0250  0.1634
 1126BOLB   C1D27021  19.458   5.705  17.883 -0.0697  0.1479  0.0974
 1126BOLB   C2D27022  19.526   6.023  18.129 -0.1536 -0.0495 -0.0135
 1126BOLB   C3D27023  19.465   5.818  18.638  0.0572  0.3329 -0.3110
 1126BOLB   C4D27024  19.399   5.564  18.785  0.0583  0.0029  0.0357
 1127BOLB   NC127025  19.994  13.440  38.419  0.5441 -0.0732 -0.2489
 1127BOLB   PO127026  20.160  13.056  38.524  0.0892 -0.1592 -0.0349
 1127BOLB   GL127027  20.377  13.230  38.771 -0.0441 -0.0229  0.2579
 1127BOLB   GL227028  20.232  13.573  38.901  0.1432  0.0521 -0.2186
 1127BOLB   C1A27029  20.479  13.265  39.278 -0.1135 -0.1340  0.1052
 1127BOLB   C2A27030  20.759  13.242  39.646 -0.0648  0.2508  0.2715
 1127BOLB   C3A27031  20.822  13.329  40.091  0.0902  0.1904 -0.1906
 1127BOLB   C4A27032  20.837  13.311  40.458  0.0823 -0.2548  0.1120
 1127BOLB   C1B27033  20.577  13.753  38.992  0.0405 -0.2131  0.1621
 1127BOLB   C2B27034  20.715  13.748  39.439 -0.1284 -0.1790  0.1638
 1127BOLB   C3B27035  20.916  13.773  39.837  0.0095  0.2235 -0.0218
 1127BOLB   C4B27036  21.167  13.865  40.200  0.1478  0.1620  0.1630
 1127BOLB   NC227037  21.550  14.401  42.436  0.0347 -0.0369 -0.0466
 1127BOLB   PO227038  21.255  14.197  42.512  0.0741 -0.0418 -0.0251
 1127BOLB   GL327039  21.195  13.977  42.155  0.1495  0.0543  0.1087
 1127BOLB   GL427040  21.405  14.159  41.981 -0.2136  0.0472 -0.0088
 1127BOLB   C1C27041  21.103  13.707  41.866 -0.1218 -0.1287  0.0655
 1127BOLB   C2C27042  20.984  13.402  41.700  0.2260  0.4402 -0.0858
 1127BOLB   C3C27043  20.870  13.180  41.343 -0.0177 -0.0826 -0.0985
 1127BOLB   C4C27044  20.953  13.414  40.948 -0.0212  0.0058 -0.0412
 1127BOLB   C1D27045  21.184  14.290  41.706 -0.1212 -0.0718 -0.1585
 1127BOLB   C2D27046  21.106  14.196  41.238  0.1684  0.1152 -0.2194
 1127BOLB   C3D27047  21.354  13.978  40.941 -0.0474  0.2017  0.4007
 1127BOLB   C4D27048  21.222  13.627  40.623 -0.2162 -0.2826 -0.3746
 1128BOLB   NC127049  14.814  14.519  39.650 -0.1907  0.1594 -0.0607
 1128BOLB   PO127050  14.893  14.109  39.700  0.0982 -0.2337 -0.2186
 1128BOLB   GL127051  14.646  14.330  40.079 -0.1612 -0.4866 -0.0429
 1128BOLB   GL227052  14.680  14.121  40.370  0.3162  0.1295  0.0986
 1128BOLB   C1A27053  14.364  14.587  40.221 -0.0195 -0.4115 -0.1732
 1128BOLB   C2A27054  14.269  14.765  40.619 -0.0578 -0.2290  0.4772
 1128BOLB   C3A27055  14.119  14.765  40.964 -0.0193  0.0928 -0.0631
 1128BOLB   C4A27056  13.886  14.604  41.305 -0.0091 -0.2748  0.0838
 1128BOLB   C1B27057  14.680  14.445  40.548  0.0522 -0.0534 -0.0217
 1128BOLB   C2B27058  14.741  14.781  40.599 -0.1344  0.0129 -0.1510
 1128BOLB   C3B27059  14.573  15.152  40.753  0.3825 -0.1019 -0.1604
 1128BOLB   C4B27060  14.517  15.224  41.270 -0.0013  0.2747 -0.1793
 1128BOLB   NC227061  13.416  14.356  43.444 -0.2395 -0.1725 -0.2303
 1128BOLB   PO227062  13.062  14.216  43.345  0.3479 -0.2238  0.1295
 1128BOLB   GL327063  13.268  14.329  42.873  0.0992  0.1979  0.0374
 1128BOLB   GL427064  13.456  14.536  42.629  0.2568 -0.3569  0.3497
 1128BOLB   C1C27065  13.065  14.382  42.434 -0.2406 -0.2040 -0.0541
 1128BOLB   C2C27066  13.140  14.222  42.028  0.2455 -0.0422 -0.0804
 1128BOLB   C3C27067  13.427  14.157  41.789  0.0500 -0.1836  0.1688
 1128BOLB   C4C27068  13.613  14.406  41.469 -0.0410  0.3308  0.1227
 1128BOLB   C1D27069  13.440  14.730  42.177 -0.0593 -0.1102  0.0700
 1128BOLB   C2D27070  13.318  14.959  41.901  0.2230 -0.1454  0.1164
 1128BOLB   C3D27071  13.393  15.377  41.598  0.1207  0.0306  0.1161
 1128BOLB   C4D27072  13.396  15.422  41.168  0.0236  0.1283  0.3144
 1129BOLB   NC127073  20.100   7.965  22.119  0.0045 -0.0729 -0.2116
 1129BOLB   PO127074  20.142   7.788  22.547 -0.1245  0.0186  0.0604
 1129BOLB   GL127075  20.424   7.539  22.356 -0.1168  0.1869 -0.0276
 1129BOLB   GL227076  20.653   7.425  22.398  0.1989  0.2613  0.0526
 1129BOLB   C1A27077  20.621   7.259  21.930  0.3148 -0.2306  0.0173
 1129BOLB   C2A27078  20.815   6.932  21.844  0.0356  0.2731 -0.5586
 1129BOLB   C3A27079  21.117   6.638  22.021  0.2358 -0.1676 -0.0064
 1129BOLB   C4A27080  21.241   6.237  21.906  0.1955 -0.0268  0.2071
 1129BOLB   C1B27081  20.906   7.155  22.308 -0.0994  0.2469  0.0812
 1129BOLB   C2B27082  21.192   7.200  21.983  0.1291 -0.1022  0.1584
 1129BOLB   C3B27083  21.276   6.925  21.592  0.4555  0.1701  0.3063
 1129BOLB   C4B27084  21.193   6.588  21.442  0.0752 -0.1256 -0.0918
 1129BOLB   NC227085  23.171   4.828  21.115  0.1673 -0.1811  0.1140
 1129BOLB   PO227086  23.291   5.196  21.184 -0.2746  0.3371 -0.3168
 1129BOLB   GL327087  23.053   5.302  21.481  0.4151 -0.0490  0.1818
 1129BOLB   GL427088  22.788   5.112  21.358 -0.3320  0.2779 -0.2448
 1129BOLB   C1C27089  22.605   5.395  21.666  0.0967  0.3438  0.0668
 1129BOLB   C2C27090  22.190   5.462  21.744 -0.0438  0.0960 -0.0328
 1129BOLB   C3C27091  21.903   5.732  21.768 -0.1919 -0.2135 -0.0117
 1129BOLB   C4C27092  21.423   5.858  21.864 -0.3284 -0.0052 -0.1437
 1129BOLB   C1D27093  22.307   5.221  21.356  0.1462  0.0336  0.2570
 1129BOLB   C2D27094  22.171   5.650  21.317  0.0971 -0.1333 -0.1915
 1129BOLB   C3D27095  22.133   6.080  21.513 -0.0918  0.1895 -0.0262
 1129BOLB   C4D27096  22.058   6.501  21.450 -0.1661 -0.2010 -0.2695
 1130BOLB   NC127097   9.393   8.964  26.155 -0.2017 -0.0058 -0.0676
 1130BOLB   PO127098   9.661   8.667  26.281  0.1692 -0.0043 -0.2228
 1130BOLB   GL127099   9.371   8.361  26.135  0.1271  0.0955 -0.1177
 1130BOLB   GL227100   9.417   8.088  26.108  0.0173 -0.3307 -0.0827
 1130BOLB   C1A27101   9.083   8.421  25.818  0.1876 -0.1345 -0.0843
 1130BOLB   C2A27102   9.029   8.333  25.346 -0.0599  0.0221  0.0281
 1130BOLB   C3A27103   8.863   8.256  24.904  0.0790  0.0295 -0.1039
 1130BOLB   C4A27104   8.508   8.230  24.598  0.1219  0.0546  0.1015
 1130BOLB   C1B27105   8.961   8.018  26.089 -0.3893 -0.0807  0.0336
 1130BOLB   C2B27106   8.595   7.885  26.086  0.0797  0.0594  0.0908
 1130BOLB   C3B27107   8.311   7.594  25.926  0.0798 -0.0063  0.1457
 1130BOLB   C4B27108   8.056   7.284  26.127  0.1093 -0.2319  0.0197
 1130BOLB   NC227109   6.486   6.891  24.251  0.3689  0.0061 -0.0370
 1130BOLB   PO227110   6.360   7.033  23.862  0.0966 -0.0166 -0.2619
 1130BOLB   GL327111   6.665   7.301  24.055  0.1367  0.0179  0.0384
 1130BOLB   GL427112   6.982   7.056  24.060 -0.0342 -0.1411 -0.0026
 1130BOLB   C1C27113   7.094   7.523  23.924 -0.1077 -0.2363  0.1447
 1130BOLB   C2C27114   7.479   7.583  24.257  0.0084  0.0633 -0.0850
 1130BOLB   C3C27115   7.918   7.632  24.279 -0.0808  0.2088 -0.0249
 1130BOLB   C4C27116   8.307   7.878  24.298 -0.0187  0.2394  0.1136
 1130BOLB   C1D27117   7.152   7.152  24.444  0.5233  0.1818 -0.1644
 1130BOLB   C2D27118   7.531   7.185  24.648  0.0876  0.1499  0.0747
 1130BOLB   C3D27119   7.765   6.819  24.775 -0.0877  0.5101  0.1037
 1130BOLB   C4D27120   8.158   6.755  24.963 -0.2413  0.2676  0.2029
 1131BOLB   NC127121  22.428  10.932  35.229 -0.0498 -0.0676 -0.0144
 1131BOLB   PO127122  22.711  11.170  35.096  0.0237  0.0976 -0.2050
 1131BOLB   GL127123  22.989  10.923  35.413  0.3173  0.0595  0.0889
 1131BOLB   GL227124  23.249  11.033  35.328 -0.0306 -0.0072  0.0943
 1131BOLB   C1A27125  23.236  10.638  35.623 -0.1037 -0.1426  0.3200
 1131BOLB   C2A27126  23.577  10.512  35.635 -0.0324  0.1024 -0.2275
 1131BOLB   C3A27127  23.939  10.209  35.830  0.0294  0.4738 -0.1538
 1131BOLB   C4A27128  24.235  10.196  36.058 -0.0666 -0.2779  0.2702
 1131BOLB   C1B27129  23.617  10.917  35.416 -0.1457  0.0144 -0.1624
 1131BOLB   C2B27130  23.937  10.781  35.726 -0.2528 -0.0508 -0.1354
 1131BOLB   C3B27131  24.372  10.712  35.873 -0.2525  0.0474 -0.2180
 1131BOLB   C4B27132  24.732  10.316  35.995 -0.0744 -0.2896 -0.1935
 1131BOLB   NC227133  26.474  10.128  36.790  0.1005  0.1778 -0.0174
 1131BOLB   PO227134  26.315  10.149  37.199  0.1506 -0.0844 -0.0596
 1131BOLB   GL327135  26.039   9.798  37.109 -0.1905 -0.3483  0.0514
 1131BOLB   GL427136  25.794   9.915  37.223  0.1753  0.0353 -0.0018
 1131BOLB   C1C27137  25.653   9.620  36.887  0.0063 -0.0679 -0.1314
 1131BOLB   C2C27138  25.415   9.730  36.473  0.2949 -0.0088  0.0392
 1131BOLB   C3C27139  25.033   9.775  36.390 -0.0499  0.0347 -0.2404
 1131BOLB   C4C27140  24.613   9.879  36.251  0.1309  0.1431 -0.0981
 1131BOLB   C1D27141  25.600  10.091  36.835  0.2744  0.0642 -0.1851
 1131BOLB   C2D27142  25.391  10.273  36.624 -0.1248 -0.6385 -0.1357
 1131BOLB   C3D27143  24.975  10.312  36.526 -0.1499 -0.1062 -0.0223
 1131BOLB   C4D27144  24.545  10.310  36.458  0.2976 -0.1661 -0.0276
 1132BOLB   NC127145  16.191   7.038  37.785  0.1101 -0.1194  0.0998
 1132BOLB   PO127146  16.398   7.075  38.152  0.1725 -0.1959  0.1090
 1132BOLB   GL127147  16.338   6.743  38.295  0.3515 -0.0582  0.3911
 1132BOLB   GL227148  16.545   6.632  38.087 -0.1069  0.0063  0.0771
 1132BOLB   C1A27149  16.218   6.438  38.563 -0.1583  0.1019 -0.1379
 1132BOLB   C2A27150  16.347   6.124  38.785 -0.0122 -0.1427 -0.1750
 1132BOLB   C3A27151  15.934   5.954  39.002  0.0172  0.0576  0.0029
 1132BOLB   C4A27152  15.642   5.812  39.331 -0.5735 -0.0434 -0.0247
 1132BOLB   C1B27153  16.281   6.279  38.082 -0.1238  0.2759  0.1673
 1132BOLB   C2B27154  16.396   5.900  38.318 -0.3807 -0.0349  0.2672
 1132BOLB   C3B27155  16.560   5.670  38.710 -0.1274 -0.0708 -0.1301
 1132BOLB   C4B27156  16.785   5.502  39.052  0.1070  0.0050  0.0153
 1132BOLB   NC227157  14.915   4.170  40.882  0.2443 -0.0883  0.0653
 1132BOLB   PO227158  14.612   4.475  41.049 -0.0125 -0.2742 -0.1278
 1132BOLB   GL327159  15.013   4.622  40.895 -0.0574  0.1216 -0.1853
 1132BOLB   GL427160  15.030   4.626  40.593 -0.0680  0.0430  0.1569
 1132BOLB   C1C27161  15.057   5.099  40.690  0.2381  0.1332 -0.0901
 1132BOLB   C2C27162  15.201   5.329  40.278 -0.0036 -0.3113 -0.1249
 1132BOLB   C3C27163  15.299   5.385  39.977  0.2135  0.1966  0.0811
 1132BOLB   C4C27164  15.325   5.524  39.520  0.2850  0.0362 -0.0184
 1132BOLB   C1D27165  15.011   4.887  40.275  0.2857  0.1655  0.1530
 1132BOLB   C2D27166  14.974   4.889  39.832  0.1044 -0.0237  0.1192
 1132BOLB   C3D27167  14.912   4.721  39.463  0.0261 -0.0112  0.0376
 1132BOLB   C4D27168  14.572   4.557  39.272  0.2387  0.2041 -0.0009
 1133BOLB   NC127169  23.985   9.272  17.767 -0.2156 -0.4689 -0.0763
 1133BOLB   PO127170  24.343   9.192  17.897  0.2244  0.2506  0.2008
 1133BOLB   GL127171  24.202   9.351  18.305  0.0088 -0.3053  0.2149
 1133BOLB   GL227172  24.373   9.313  18.681  0.2424  0.0303 -0.0736
 1133BOLB   C1A27173  23.835   9.582  18.460 -0.1041  0.1262 -0.2472
 1133BOLB   C2A27174  23.392   9.534  18.418 -0.0583 -0.0174 -0.0994
 1133BOLB   C3A27175  23.056   9.505  18.721 -0.1338 -0.1915 -0.0080
 1133BOLB   C4A27176  22.892   9.081  18.840  0.0798 -0.1254  0.2152
 1133BOLB   C1B27177  24.127   9.699  18.841 -0.0761  0.0157 -0.0394
 1133BOLB   C2B27178  24.070  10.102  18.652  0.1180  0.0805  0.1520
 1133BOLB   C3B27179  24.230  10.591  18.736 -0.0860  0.1494 -0.2119
 1133BOLB   C4B27180  24.463  10.891  18.892 -0.1663  0.2471 -0.0499
 1133BOLB   NC227181  23.950   7.606  19.208 -0.1364 -0.2835 -0.1687
 1133BOLB   PO227182  23.745   7.471  18.859  0.2557 -0.0617 -0.0845
 1133BOLB   GL327183  23.396   7.644  19.052  0.1078 -0.0122 -0.1627
 1133BOLB   GL427184  23.325   7.851  18.743  0.0713 -0.1150 -0.1993
 1133BOLB   C1C27185  23.098   7.805  19.178 -0.0766 -0.2557  0.0505
 1133BOLB   C2C27186  22.777   8.145  19.340  0.2223 -0.3926  0.0585
 1133BOLB   C3C27187  22.757   8.586  19.322 -0.3662  0.1331  0.0825
 1133BOLB   C4C27188  22.886   8.850  19.045  0.1020  0.3708 -0.1889
 1133BOLB   C1D27189  23.434   8.116  19.061 -0.2877  0.3346 -0.0671
 1133BOLB   C2D27190  23.191   8.405  19.351 -0.1551  0.0471 -0.1975
 1133BOLB   C3D27191  23.045   8.502  19.746 -0.4067 -0.2519  0.1182
 1133BOLB   C4D27192  22.964   8.461  20.225 -0.1246 -0.0637 -0.2956
 1134BOLB   NC127193  21.983  16.430  32.098 -0.0872 -0.1016 -0.3876
 1134BOLB   PO127194  22.195  16.439  31.651 -0.0079 -0.0391  0.0435
 1134BOLB   GL127195  22.590  16.604  31.466 -0.1820  0.0644  0.0209
 1134BOLB   GL227196  22.422  16.740  31.213 -0.0520  0.1823  0.2359
 1134BOLB   C1A27197  23.076  16.688  31.411  0.0571 -0.1639 -0.1667
 1134BOLB   C2A27198  23.478  16.708  31.394  0.3306  0.1401 -0.3202
 1134BOLB   C3A27199  23.893  16.700  31.303 -0.0075 -0.1140  0.0831
 1134BOLB   C4A27200  24.253  16.540  31.270  0.0701 -0.2923  0.2620
 1134BOLB   C1B27201  22.733  16.995  31.272 -0.0667 -0.0684  0.0003
 1134BOLB   C2B27202  23.090  17.033  31.079  0.4951  0.0768  0.0042
 1134BOLB   C3B27203  23.493  16.902  30.837 -0.3857 -0.1980 -0.1510
 1134BOLB   C4B27204  23.824  16.842  30.583 -0.2051  0.2896 -0.0668
 1134BOLB   NC227205  26.204  17.804  31.330 -0.0595  0.3127 -0.1312
 1134BOLB   PO227206  26.428  17.560  31.697  0.1222  0.0148  0.2849
 1134BOLB   GL327207  26.104  17.300  31.366  0.0232 -0.1675  0.1823
 1134BOLB   GL427208  26.049  16.983  31.473  0.3299 -0.4582  0.5175
 1134BOLB   C1C27209  25.716  17.227  31.203 -0.0450  0.0315 -0.2423
 1134BOLB   C2C27210  25.405  16.933  31.327  0.0017  0.2247  0.0150
 1134BOLB   C3C27211  25.061  16.717  31.253 -0.0812 -0.1880  0.0296
 1134BOLB   C4C27212  24.645  16.464  31.257 -0.0841 -0.1396 -0.2292
 1134BOLB   C1D27213  25.745  17.304  31.744 -0.1751 -0.0913 -0.3271
 1134BOLB   C2D27214  25.664  17.592  31.928  0.0298  0.0238 -0.1351
 1134BOLB   C3D27215  25.364  17.717  32.172  0.1021 -0.2148 -0.1703
 1134BOLB   C4D27216  25.078  17.530  32.508  0.2909  0.0200 -0.1615
 1135BOLB   NC127217   9.478  13.124  35.772  0.2308 -0.1996 -0.0943
 1135BOLB   PO127218   9.059  13.252  35.914 -0.0352  0.0272 -0.1572
 1135BOLB   GL127219   8.724  13.088  36.286  0.0809 -0.2860 -0.0030
 1135BOLB   GL227220   8.663  13.404  36.489 -0.1032 -0.0143  0.0921
 1135BOLB   C1A27221   8.359  12.895  36.350 -0.0157  0.1902  0.2007
 1135BOLB   C2A27222   7.929  12.681  36.493 -0.2864  0.3455  0.2663
 1135BOLB   C3A27223   7.597  12.481  36.341  0.0920 -0.1367  0.1635
 1135BOLB   C4A27224   7.362  12.166  36.606 -0.1579  0.0343  0.2078
 1135BOLB   C1B27225   8.361  13.360  36.724 -0.0576 -0.1562 -0.2873
 1135BOLB   C2B27226   8.094  13.114  36.983  0.2553  0.0405  0.0853
 1135BOLB   C3B27227   7.860  12.883  37.234 -0.0117 -0.3707 -0.2784
 1135BOLB   C4B27228   7.675  12.810  37.703  0.0037 -0.1167 -0.1376
 1135BOLB   NC227229   5.577  12.515  38.557  0.1199 -0.0277  0.0999
 1135BOLB   PO227230   5.955  12.777  38.654 -0.0797 -0.0055  0.1079
 1135BOLB   GL327231   6.355  12.653  38.516  0.0214  0.0041  0.1239
 1135BOLB   GL427232   6.541  12.839  38.532 -0.2173 -0.3725 -0.4041
 1135BOLB   C1C27233   6.419  12.578  38.013  0.2387  0.2903 -0.3391
 1135BOLB   C2C27234   6.719  12.541  37.637 -0.0387 -0.0362 -0.3192
 1135BOLB   C3C27235   6.884  12.487  37.205 -0.5992 -0.0110  0.2767
 1135BOLB   C4C27236   7.281  12.255  37.033 -0.3439  0.0505  0.2095
 1135BOLB   C1D27237   6.784  12.864  38.032 -0.1070 -0.0853  0.1304
 1135BOLB   C2D27238   6.852  13.127  37.743  0.2090  0.3278  0.1950
 1135BOLB   C3D27239   7.151  13.135  37.386  0.1853  0.1093 -0.4440
 1135BOLB   C4D27240   7.538  13.255  37.468 -0.3096 -0.2197  0.2959
 1136BOLB   NC127241   3.698   9.415  30.056 -0.1579 -0.0221 -0.2779
 1136BOLB   PO127242   3.900   9.124  30.344 -0.5164  0.0358 -0.0050
 1136BOLB   GL127243   4.211   9.283  30.038 -0.1006  0.3139 -0.1636
 1136BOLB   GL227244   4.312   9.530  29.808  0.0564 -0.5450  0.4350
 1136BOLB   C1A27245   4.566   9.139  29.905  0.0969  0.0096  0.0196
 1136BOLB   C2A27246   4.989   9.186  29.957  0.0340 -0.1321  0.1457
 1136BOLB   C3A27247   5.362   9.166  30.262  0.1051 -0.0356  0.2277
 1136BOLB   C4A27248   5.725   8.897  30.284 -0.0749  0.2319  0.1822
 1136BOLB   C1B27249   4.493   9.677  30.168 -0.1157  0.2489 -0.1376
 1136BOLB   C2B27250   4.791  10.024  30.227 -0.1858 -0.0639 -0.0151
 1136BOLB   C3B27251   5.063  10.227  30.417 -0.0990 -0.1423  0.1442
 1136BOLB   C4B27252   5.505  10.268  30.494  0.0478 -0.1511  0.0369
 1136BOLB   NC227253   4.733   6.201  30.631 -0.2688  0.0033 -0.0177
 1136BOLB   PO227254   4.800   6.640  30.686  0.0736 -0.0279  0.3127
 1136BOLB   GL327255   4.957   7.025  30.724 -0.0483  0.2894 -0.0987
 1136BOLB   GL427256   4.889   7.350  30.838 -0.1155  0.2026  0.0796
 1136BOLB   C1C27257   5.219   7.261  30.528 -0.0536 -0.2749 -0.2800
 1136BOLB   C2C27258   5.583   7.577  30.616  0.1309 -0.3129 -0.0390
 1136BOLB   C3C27259   5.931   7.990  30.443  0.0179  0.3254  0.1909
 1136BOLB   C4C27260   6.002   8.474  30.317  0.2127  0.2186 -0.1426
 1136BOLB   C1D27261   5.340   7.288  31.000  0.1999  0.2118 -0.2058
 1136BOLB   C2D27262   5.649   7.362  31.390  0.3936  0.2620 -0.2679
 1136BOLB   C3D27263   5.980   7.638  31.460 -0.1573  0.0782 -0.4705
 1136BOLB   C4D27264   6.309   7.870  31.384 -0.3562  0.0233  0.1533
 1137BOLB   NC127265  13.428  14.901  39.163  0.2175 -0.0746  0.1079
 1137BOLB   PO127266  13.356  14.542  39.454 -0.0235 -0.0851 -0.0255
 1137BOLB   GL127267  13.051  14.615  39.751  0.1638  0.0326 -0.1294
 1137BOLB   GL227268  12.785  14.736  39.594  0.0782 -0.2123 -0.1747
 1137BOLB   C1A27269  12.940  14.519  40.079 -0.3167  0.2093 -0.2146
 1137BOLB   C2A27270  12.660  14.233  40.288  0.1624 -0.1686  0.1744
 1137BOLB   C3A27271  12.565  13.929  40.630  0.2224  0.4666 -0.1541
 1137BOLB   C4A27272  12.453  13.707  41.010  0.1433  0.0851 -0.4255
 1137BOLB   C1B27273  12.449  14.859  39.969  0.0986 -0.1243  0.2362
 1137BOLB   C2B27274  12.158  14.788  40.366  0.2162  0.0118 -0.1411
 1137BOLB   C3B27275  12.133  14.721  40.782 -0.1435  0.1075  0.3659
 1137BOLB   C4B27276  11.917  14.667  41.056  0.2778  0.0390  0.0424
 1137BOLB   NC227277  12.859  13.134  43.553  0.1159 -0.0813 -0.1002
 1137BOLB   PO227278  12.373  13.031  43.278  0.0349 -0.1234  0.4043
 1137BOLB   GL327279  12.581  13.223  42.885  0.1578  0.0011 -0.1473
 1137BOLB   GL427280  12.277  13.166  42.793  0.2583  0.0474  0.0457
 1137BOLB   C1C27281  12.645  13.441  42.437 -0.1353  0.3725 -0.0664
 1137BOLB   C2C27282  12.764  13.292  42.024  0.2154  0.2280  0.1135
 1137BOLB   C3C27283  12.870  13.364  41.612  0.2185  0.2766  0.4063
 1137BOLB   C4C27284  12.565  13.437  41.333  0.1162  0.2645  0.2590
 1137BOLB   C1D27285  12.327  13.066  42.426  0.1602 -0.3244  0.1853
 1137BOLB   C2D27286  12.209  13.223  41.998 -0.0966  0.1505 -0.1545
 1137BOLB   C3D27287  12.411  13.662  41.854 -0.1852 -0.1232  0.1242
 1137BOLB   C4D27288  12.255  14.000  41.573  0.0504  0.2027  0.0418
 1138BOLB   NC127289  18.792   7.805  21.509  0.2224  0.0220  0.1713
 1138BOLB   PO127290  18.425   7.826  21.162 -0.3521 -0.2953 -0.0251
 1138BOLB   GL127291  18.513   7.521  20.814 -0.0301  0.3489 -0.2902
 1138BOLB   GL227292  18.300   7.559  20.622 -0.1415 -0.0479  0.2747
 1138BOLB   C1A27293  18.685   7.179  20.540  0.0604 -0.1798 -0.3561
 1138BOLB   C2A27294  18.882   6.941  20.224  0.0885 -0.1876 -0.2735
 1138BOLB   C3A27295  19.175   6.649  19.999  0.4273  0.1222 -0.0712
 1138BOLB   C4A27296  19.518   6.365  19.894 -0.1682  0.1534 -0.0522
 1138BOLB   C1B27297  18.228   7.276  20.305 -0.4167 -0.0927  0.1469
 1138BOLB   C2B27298  18.244   7.239  19.938 -0.4639  0.3505  0.3219
 1138BOLB   C3B27299  18.328   6.859  19.635  0.0452  0.3061  0.1717
 1138BOLB   C4B27300  18.285   6.891  19.158 -0.0214  0.1625  0.1851
 1138BOLB   NC227301  19.938   4.718  18.314 -0.1395  0.0884 -0.0933
 1138BOLB   PO227302  19.818   4.981  17.963 -0.3145  0.1492  0.0756
 1138BOLB   GL327303  19.686   5.130  18.366 -0.0048 -0.1705 -0.0096
 1138BOLB   GL427304  19.386   5.199  18.347 -0.0778  0.2109 -0.0307
 1138BOLB   C1C27305  19.812   5.287  18.758 -0.0476 -0.1377  0.1437
 1138BOLB   C2C27306  19.867   5.592  19.138 -0.1054  0.2168  0.0595
 1138BOLB   C3C27307  19.986   5.867  19.462 -0.4229  0.1761  0.0113
 1138BOLB   C4C27308  19.842   6.178  19.631  0.2090 -0.0992 -0.1249
 1138BOLB   C1D27309  19.769   5.585  18.293 -0.0092 -0.3209 -0.0536
 1138BOLB   C2D27310  19.961   5.751  18.065 -0.0233 -0.0998  0.1973
 1138BOLB   C3D27311  20.325   5.948  18.256 -0.0417 -0.1676 -0.1828
 1138BOLB   C4D27312  20.461   5.951  18.626 -0.1553 -0.3187  0.2353
 1139BOLB   NC127313   8.469   8.572  30.836 -0.0368  0.1356 -0.2112
 1139BOLB   PO127314   8.614   8.827  30.416  0.2459 -0.4105  0.1610
 1139BOLB   GL127315   8.407   8.577  30.214 -0.1957 -0.0200  0.3602
 1139BOLB   GL227316   8.311   8.246  30.306  0.0259 -0.2019  0.0574
 1139BOLB   C1A27317   8.020   8.604  30.121  0.1409 -0.0979 -0.1540
 1139BOLB   C2A27318   7.622   8.604  30.154  0.0643 -0.1054 -0.1929
 1139BOLB   C3A27319   7.248   8.474  30.274 -0.0880 -0.0386 -0.1582
 1139BOLB   C4A27320   6.801   8.346  30.435  0.2314 -0.0929 -0.2397
 1139BOLB   C1B27321   7.931   8.252  30.472 -0.0831 -0.0136  0.2657
 1139BOLB   C2B27322   7.644   7.995  30.545 -0.1795 -0.0163 -0.2016
 1139BOLB   C3B27323   7.416   7.710  30.661  0.2287  0.1218 -0.4154
 1139BOLB   C4B27324   7.444   7.367  30.909  0.0453  0.2436  0.0094
 1139BOLB   NC227325   4.346   8.168  31.462  0.0401  0.0473  0.0304
 1139BOLB   PO227326   4.582   7.756  31.629  0.4236 -0.0120 -0.0787
 1139BOLB   GL327327   4.901   8.087  31.610 -0.0041 -0.3471  0.2903
 1139BOLB   GL427328   4.906   8.359  31.794  0.1245  0.0689 -0.3309
 1139BOLB   C1C27329   5.305   8.212  31.385 -0.2080  0.1617 -0.1351
 1139BOLB   C2C27330   5.708   8.103  31.242 -0.1777 -0.0950  0.1967
 1139BOLB   C3C27331   6.164   8.248  31.008  0.0205 -0.2027  0.0899
 1139BOLB   C4C27332   6.435   8.388  30.577  0.0850  0.0810 -0.0225
 1139BOLB   C1D27333   5.307   8.268  31.945 -0.0784  0.0679 -0.1701
 1139BOLB   C2D27334   5.635   8.415  31.674  0.1700  0.0959 -0.1900
 1139BOLB   C3D27335   5.874   8.575  31.352 -0.1308  0.0010 -0.0114
 1139BOLB   C4D27336   6.207   8.804  31.111 -0.1318 -0.0135 -0.0591
 1140BOLB   NC127337  14.940  20.003  34.113 -0.0237  0.3954 -0.2506
 1140BOLB   PO127338  14.910  20.321  34.502  0.0671  0.2051  0.1830
 1140BOLB   GL127339  14.840  20.690  34.600 -0.2545 -0.1210 -0.3822
 1140BOLB   GL227340  14.652  20.635  34.962 -0.1192  0.2198 -0.0826
 1140BOLB   C1A27341  14.931  21.034  34.448  0.0020 -0.4162  0.3753
 1140BOLB   C2A27342  14.903  21.504  34.591  0.1757  0.0834 -0.2340
 1140BOLB   C3A27343  14.987  21.897  34.655 -0.1877 -0.2639  0.0128
 1140BOLB   C4A27344  14.926  22.138  35.019 -0.3365 -0.1818 -0.0071
 1140BOLB   C1B27345  14.573  21.008  35.164  0.1748  0.3953  0.2229
 1140BOLB   C2B27346  14.590  21.281  35.563 -0.2634 -0.0903 -0.2066
 1140BOLB   C3B27347  14.783  21.170  36.049 -0.0489  0.0967  0.1761
 1140BOLB   C4B27348  15.159  20.913  36.233 -0.1093 -0.1122  0.0873
 1140BOLB   NC227349  15.696  24.740  35.476  0.2377  0.2622  0.2596
 1140BOLB   PO227350  15.648  24.275  35.536  0.0632  0.4406  0.0296
 1140BOLB   GL327351  15.695  23.850  35.685  0.0924 -0.0258  0.0288
 1140BOLB   GL427352  15.982  23.654  35.694  0.1901  0.2363 -0.4345
 1140BOLB   C1C27353  15.557  23.581  35.522  0.0916 -0.1005  0.1372
 1140BOLB   C2C27354  15.330  23.251  35.431  0.2727  0.0275  0.2119
 1140BOLB   C3C27355  15.200  22.870  35.273 -0.1677 -0.2396  0.5306
 1140BOLB   C4C27356  15.088  22.523  35.112 -0.0694 -0.4933  0.1363
 1140BOLB   C1D27357  15.967  23.306  35.449 -0.0417  0.2397 -0.0721
 1140BOLB   C2D27358  15.763  22.932  35.317  0.0394 -0.1796  0.0208
 1140BOLB   C3D27359  15.920  22.679  35.015  0.0772  0.2179  0.1842
 1140BOLB   C4D27360  15.930  22.143  35.130  0.2508  0.2443  0.4756
 1141BOLB   NC127361  23.893  11.965  31.812 -0.1289 -0.0668 -0.0832
 1141BOLB   PO127362  23.751  11.564  31.822 -0.2233  0.0987 -0.0879
 1141BOLB   GL127363  24.109  11.484  31.792  0.2003 -0.0965  0.2021
 1141BOLB   GL227364  24.251  11.665  31.975  0.0497 -0.3329  0.3814
 1141BOLB   C1A27365  24.486  11.217  31.468  0.1197  0.0403  0.0165
 1141BOLB   C2A27366  24.849  10.901  31.373  0.0600  0.1409 -0.2689
 1141BOLB   C3A27367  25.204  10.670  31.436  0.1043  0.5963  0.1326
 1141BOLB   C4A27368  25.449  10.422  31.689 -0.1331 -0.2350 -0.2744
 1141BOLB   C1B27369  24.651  11.927  31.904 -0.1439  0.0158  0.1928
 1141BOLB   C2B27370  25.090  12.124  31.862 -0.1597  0.2536 -0.0357
 1141BOLB   C3B27371  25.389  12.468  31.980 -0.3020 -0.0030  0.3987
 1141BOLB   C4B27372  25.762  12.703  32.004 -0.0842  0.0131 -0.2942
 1141BOLB   NC227373   1.155  10.944  32.057  0.2842 -0.0397 -0.1906
 1141BOLB   PO227374   0.942  10.581  32.217  0.1104 -0.4088 -0.2998
 1141BOLB   GL327375   0.537  10.636  32.291  0.1036  0.0496  0.0427
 1141BOLB   GL427376   0.344  10.427  32.390 -0.0747  0.0496  0.0535
 1141BOLB   C1C27377   0.109  10.735  32.009 -0.0902  0.0924 -0.1461
 1141BOLB   C2C27378  26.792  10.541  31.873  0.3627 -0.4183  0.1003
 1141BOLB   C3C27379  26.358  10.336  32.003  0.1154 -0.1170  0.1069
 1141BOLB   C4C27380  25.848  10.293  31.892 -0.1081 -0.3145 -0.1882
 1141BOLB   C1D27381  26.955  10.354  32.302 -0.2524 -0.0478 -0.1292
 1141BOLB   C2D27382  26.601  10.262  32.426 -0.2067  0.1804  0.0140
 1141BOLB   C3D27383  26.288  10.620  32.482  0.5058  0.2152  0.0752
 1141BOLB   C4D27384  26.356  10.986  32.655 -0.0730 -0.2726  0.0857
 1142BOLB   NC127385  20.340  15.230  37.095 -0.3646  0.3208 -0.1877
 1142BOLB   PO127386  20.023  15.456  37.280 -0.3612 -0.3491 -0.1571
 1142BOLB   GL127387  20.308  15.820  37.566 -0.0489  0.1150  0.0291
 1142BOLB   GL227388  20.314  15.676  37.899 -0.2266 -0.0631  0.1636
 1142BOLB   C1A27389  20.796  15.887  37.638 -0.3600  0.0115 -0.3129
 1142BOLB   C2A27390  21.025  16.229  37.889 -0.1028  0.0135  0.0631
 1142BOLB   C3A27391  21.424  16.296  38.005 -0.0795 -0.1054  0.3726
 1142BOLB   C4A27392  21.652  16.382  38.394 -0.1308 -0.1208  0.1156
 1142BOLB   C1B27393  20.370  15.689  38.326  0.1318 -0.0677 -0.0152
 1142BOLB   C2B27394  20.467  15.680  38.734 -0.0467 -0.3701  0.1730
 1142BOLB   C3B27395  20.443  15.808  39.098  0.0370 -0.0295 -0.2333
 1142BOLB   C4B27396  20.193  15.742  39.477 -0.0719  0.0930 -0.1635
 1142BOLB   NC227397  22.300  16.611  41.028 -0.2588  0.2247 -0.2084
 1142BOLB   PO227398  22.415  16.477  40.636  0.0072 -0.1233  0.2333
 1142BOLB   GL327399  22.247  16.514  40.197 -0.1620  0.2820 -0.1718
 1142BOLB   GL427400  22.199  16.737  39.888 -0.4239 -0.1188 -0.0965
 1142BOLB   C1C27401  22.195  16.259  39.817  0.0148 -0.1156 -0.1402
 1142BOLB   C2C27402  22.176  16.278  39.320 -0.1423  0.0455 -0.0805
 1142BOLB   C3C27403  22.217  16.319  38.950 -0.1250  0.1625  0.2687
 1142BOLB   C4C27404  21.867  16.351  38.731 -0.1451  0.0556  0.1742
 1142BOLB   C1D27405  21.794  16.597  39.661 -0.1565 -0.0736  0.0165
 1142BOLB   C2D27406  21.336  16.669  39.525 -0.2543  0.2295 -0.2401
 1142BOLB   C3D27407  20.938  16.829  39.510  0.1227 -0.2399 -0.3356
 1142BOLB   C4D27408  20.734  17.200  39.314 -0.1110 -0.0120  0.0883
 1143BOLB   NC127409  19.059  18.149  36.291  0.2093 -0.3028 -0.0646
 1143BOLB   PO127410  18.689  18.468  36.397  0.2364  0.3448  0.0585
 1143BOLB   GL127411  18.668  18.909  36.497 -0.0117  0.0109  0.0692
 1143BOLB   GL227412  18.824  18.932  36.109 -0.2912 -0.0098  0.0135
 1143BOLB   C1A27413  18.803  19.375  36.631  0.2558 -0.2248 -0.0787
 1143BOLB   C2A27414  19.156  19.652  36.807 -0.1472  0.0926  0.2814
 1143BOLB   C3A27415  19.180  19.892  37.181 -0.0547  0.2839 -0.0830
 1143BOLB   C4A27416  18.898  20.231  37.341  0.5294  0.0014 -0.3392
 1143BOLB   C1B27417  19.081  19.310  36.128 -0.0216  0.2340 -0.2924
 1143BOLB   C2B27418  19.252  19.593  36.307  0.2239  0.1036  0.0410
 1143BOLB   C3B27419  19.337  20.019  36.261 -0.1310 -0.3446 -0.1760
 1143BOLB   C4B27420  19.618  20.396  36.147 -0.1719 -0.0739  0.2671
 1143BOLB   NC227421  20.058  22.180  38.348 -0.1995  0.1353  0.1184
 1143BOLB   PO227422  19.706  21.941  38.394 -0.3000 -0.1286  0.1492
 1143BOLB   GL327423  19.605  21.657  37.984 -0.0707  0.0201 -0.4186
 1143BOLB   GL427424  19.767  21.280  37.905  0.0803 -0.1435  0.0757
 1143BOLB   C1C27425  19.441  21.465  37.564 -0.5374  0.3260  0.0645
 1143BOLB   C2C27426  19.204  21.062  37.430 -0.1372 -0.1190 -0.3998
 1143BOLB   C3C27427  18.906  21.018  37.147  0.0097 -0.0608 -0.0428
 1143BOLB   C4C27428  18.727  20.614  37.135  0.2381  0.2250  0.4082
 1143BOLB   C1D27429  19.696  20.917  38.196  0.2090  0.2267  0.3730
 1143BOLB   C2D27430  19.344  20.873  37.908  0.1317  0.1691 -0.1334
 1143BOLB   C3D27431  19.047  20.628  37.611  0.0283 -0.0659 -0.0636
 1143BOLB   C4D27432  19.228  20.523  37.147  0.3786  0.0094  0.3497
 1144BOLB   NC127433  11.546  12.699  22.145  0.0657  0.4610  0.1886
 1144BOLB   PO127434  11.147  12.906  22.085  0.2503  0.0644 -0.2540
 1144BOLB   GL127435  10.826  12.872  21.751  0.1878 -0.1565 -0.2218
 1144BOLB   GL227436  10.801  12.779  21.486 -0.0043 -0.2030  0.1754
 1144BOLB   C1A27437  10.694  13.286  21.456  0.3254  0.0454 -0.2491
 1144BOLB   C2A27438  10.497  13.467  21.132 -0.1312  0.2395  0.0174
 1144BOLB   C3A27439  10.200  13.561  20.779 -0.4865  0.0344 -0.2613
 1144BOLB   C4A27440   9.892  13.326  20.610 -0.2781 -0.0311  0.0985
 1144BOLB   C1B27441  10.587  12.786  21.055 -0.0614  0.2424 -0.0085
 1144BOLB   C2B27442  10.620  13.126  20.716  0.2944  0.0001 -0.0572
 1144BOLB   C3B27443  10.677  13.568  20.611 -0.0375  0.1824 -0.0249
 1144BOLB   C4B27444  10.640  13.932  20.863  0.1534  0.2016 -0.3321
 1144BOLB   NC227445   8.982  12.736  18.367  0.2144  0.4084 -0.1579
 1144BOLB   PO227446   8.828  12.424  18.665 -0.3297 -0.1033 -0.0464
 1144BOLB   GL327447   9.064  12.507  18.945  0.3296 -0.5225 -0.2262
 1144BOLB   GL427448   9.140  12.856  18.910  0.1079 -0.2868  0.0317
 1144BOLB   C1C27449   9.103  12.705  19.418 -0.2363 -0.2369  0.1441
 1144BOLB   C2C27450   9.260  12.736  19.775  0.1197  0.2064 -0.2613
 1144BOLB   C3C27451   9.629  12.835  20.153  0.1533  0.2804 -0.1685
 1144BOLB   C4C27452   9.794  12.988  20.482  0.1237  0.0510 -0.1448
 1144BOLB   C1D27453   9.487  13.214  18.954  0.1591  0.1060  0.0634
 1144BOLB   C2D27454   9.510  13.500  19.324  0.0779  0.0416 -0.0093
 1144BOLB   C3D27455   9.590  13.653  19.725  0.3060 -0.2518 -0.2548
 1144BOLB   C4D27456   9.856  13.717  20.073 -0.2260 -0.2444  0.0899
 1145BOLB   NC127457  10.155  19.019  27.515  0.0085  0.2249 -0.3087
 1145BOLB   PO127458  10.105  19.390  27.590  0.2668 -0.0984  0.1518
 1145BOLB   GL127459   9.874  19.696  27.448 -0.0887 -0.1824 -0.0115
 1145BOLB   GL227460   9.765  19.973  27.167 -0.0180  0.2235 -0.0347
 1145BOLB   C1A27461   9.611  19.968  27.701  0.2038  0.3246 -0.2826
 1145BOLB   C2A27462   9.332  20.288  27.678  0.1319 -0.0845  0.0676
 1145BOLB   C3A27463   9.244  20.697  27.720 -0.1726 -0.0741 -0.1612
 1145BOLB   C4A27464   9.123  21.038  28.039  0.2015  0.1770  0.2852
 1145BOLB   C1B27465   9.757  20.333  27.330  0.1550  0.1638  0.2709
 1145BOLB   C2B27466   9.626  20.546  27.165  0.0946 -0.1412  0.1625
 1145BOLB   C3B27467   9.550  20.786  26.836  0.1630  0.0850  0.0950
 1145BOLB   C4B27468   9.406  20.787  26.394 -0.1874  0.2820 -0.1162
 1145BOLB   NC227469   7.106  22.690  28.086  0.1889  0.3220 -0.3666
 1145BOLB   PO227470   7.442  22.693  28.418  0.0858  0.2774 -0.0681
 1145BOLB   GL327471   7.987  22.597  28.489  0.0206 -0.2121  0.1289
 1145BOLB   GL427472   8.027  22.890  28.474  0.1698  0.2599  0.0969
 1145BOLB   C1C27473   8.263  22.302  28.473  0.0243 -0.4115  0.1815
 1145BOLB   C2C27474   8.224  21.896  28.471 -0.2438 -0.1412 -0.1568
 1145BOLB   C3C27475   8.601  21.616  28.446  0.1806  0.0128  0.1464
 1145BOLB   C4C27476   8.948  21.470  28.139  0.1783 -0.0842 -0.0740
 1145BOLB   C1D27477   8.298  22.896  28.792 -0.1279  0.1586  0.0316
 1145BOLB   C2D27478   8.372  22.614  29.182  0.0284  0.0454  0.2548
 1145BOLB   C3D27479   8.691  22.549  29.443  0.2942  0.1012 -0.1655
 1145BOLB   C4D27480   8.933  22.507  29.721  0.1096 -0.1081 -0.1360
 1146BOLB   NC127481  14.101  20.985  28.041  0.0075  0.0339 -0.2329
 1146BOLB   PO127482  14.340  21.212  28.236  0.2663  0.0335  0.1600
 1146BOLB   GL127483  14.435  21.679  28.215  0.2871  0.2996 -0.1199
 1146BOLB   GL227484  14.105  21.908  28.123 -0.0901 -0.0136 -0.0477
 1146BOLB   C1A27485  14.717  21.946  28.319  0.2240  0.1215  0.0979
 1146BOLB   C2A27486  14.945  22.354  28.139 -0.0275  0.1074 -0.0656
 1146BOLB   C3A27487  15.291  22.679  28.151  0.3658 -0.2188 -0.3922
 1146BOLB   C4A27488  15.684  22.878  27.951  0.0622  0.2928 -0.2095
 1146BOLB   C1B27489  14.453  22.176  27.950  0.2294 -0.3094  0.1860
 1146BOLB   C2B27490  14.473  22.571  27.622  0.1903 -0.3013 -0.0863
 1146BOLB   C3B27491  14.717  22.969  27.577 -0.0535  0.1037 -0.1481
 1146BOLB   C4B27492  15.011  23.305  27.485 -0.1617  0.1315  0.2987
 1146BOLB   NC227493  15.773  25.192  26.909  0.0578 -0.2135  0.1289
 1146BOLB   PO227494  16.077  24.988  27.089 -0.1418  0.3411  0.2108
 1146BOLB   GL327495  16.209  24.585  27.104 -0.0591 -0.5259  0.0923
 1146BOLB   GL427496  16.498  24.523  26.982 -0.3287  0.0497  0.0592
 1146BOLB   C1C27497  16.256  24.240  27.339 -0.0600 -0.0200 -0.1554
 1146BOLB   C2C27498  16.137  23.815  27.268  0.2936  0.0344 -0.0492
 1146BOLB   C3C27499  15.950  23.399  27.408 -0.0007  0.1059  0.1376
 1146BOLB   C4C27500  16.007  23.077  27.736  0.0509 -0.0825  0.0598
 1146BOLB   C1D27501  16.392  24.185  26.889 -0.0752 -0.1425 -0.2034
 1146BOLB   C2D27502  16.340  23.690  26.860 -0.0145 -0.0515  0.1633
 1146BOLB   C3D27503  16.019  23.351  26.692 -0.0127 -0.2028 -0.1231
 1146BOLB   C4D27504  15.973  22.940  26.567  0.0410 -0.0833 -0.2385
 1147BOLB   NC127505  10.907  14.578  37.242 -0.0106  0.2927 -0.1584
 1147BOLB   PO127506  11.082  14.861  37.474 -0.0138  0.1937 -0.2058
 1147BOLB   GL127507  10.780  15.062  37.670  0.1368 -0.1141  0.1741
 1147BOLB   GL227508  10.672  15.298  37.471  0.1761 -0.2707 -0.4811
 1147BOLB   C1A27509  10.432  15.098  37.911  0.2084  0.1288 -0.0191
 1147BOLB   C2A27510  10.115  15.212  38.205 -0.4223 -0.1933  0.0338
 1147BOLB   C3A27511   9.680  15.275  38.396  0.0022 -0.2845  0.2267
 1147BOLB   C4A27512   9.435  15.551  38.653 -0.1057  0.0550  0.1457
 1147BOLB   C1B27513  10.244  15.464  37.692  0.0968 -0.1509  0.1494
 1147BOLB   C2B27514   9.902  15.634  37.900 -0.0909 -0.1833 -0.0209
 1147BOLB   C3B27515   9.605  15.690  38.151 -0.3317  0.1098  0.0349
 1147BOLB   C4B27516   9.157  15.876  38.295 -0.1686 -0.0307  0.0144
 1147BOLB   NC227517   8.162  16.744  40.294 -0.2795 -0.1268 -0.0557
 1147BOLB   PO227518   8.656  16.651  40.460  0.1785 -0.1614 -0.0964
 1147BOLB   GL327519   8.555  16.476  40.102  0.2327 -0.2808 -0.1102
 1147BOLB   GL427520   8.333  16.365  40.016  0.2814  0.1644  0.3400
 1147BOLB   C1C27521   8.825  16.545  39.692 -0.1405 -0.1680  0.1228
 1147BOLB   C2C27522   9.047  16.308  39.422  0.1585  0.2748 -0.0122
 1147BOLB   C3C27523   9.278  16.039  39.218 -0.3641  0.2173 -0.1474
 1147BOLB   C4C27524   9.233  15.866  38.785  0.0921  0.4983  0.0184
 1147BOLB   C1D27525   8.318  16.568  39.622  0.1227 -0.0633  0.1844
 1147BOLB   C2D27526   8.566  16.461  39.291  0.1879  0.3601 -0.0159
 1147BOLB   C3D27527   8.653  16.393  38.892  0.0714  0.0809  0.2169
 1147BOLB   C4D27528   9.089  16.323  38.885 -0.2073  0.0009 -0.1233
 1148BOLB   NC127529   8.389  17.735  29.226  0.0967  0.5086 -0.0523
 1148BOLB   PO127530   8.416  18.043  29.617  0.1667 -0.0123 -0.0781
 1148BOLB   GL127531   8.126  18.266  29.900  0.0266  0.0037  0.1713
 1148BOLB   GL227532   7.845  18.121  30.128 -0.0281 -0.0617  0.0343
 1148BOLB   C1A27533   7.581  18.358  29.818  0.0108 -0.0788  0.2097
 1148BOLB   C2A27534   7.093  18.391  29.793  0.1629  0.0491  0.1440
 1148BOLB   C3A27535   6.848  18.724  29.567 -0.1089  0.2757  0.0111
 1148BOLB   C4A27536   6.748  18.956  29.190 -0.1877  0.2542  0.2513
 1148BOLB   C1B27537   7.582  17.839  29.951  0.1061 -0.0070  0.0808
 1148BOLB   C2B27538   7.379  17.822  29.554 -0.1848 -0.0344  0.1328
 1148BOLB   C3B27539   7.375  18.210  29.267  0.0369  0.0277 -0.2874
 1148BOLB   C4B27540   7.134  18.589  29.187 -0.0281 -0.2124 -0.1071
 1148BOLB   NC227541   5.463  21.061  29.303 -0.1381  0.1146  0.0129
 1148BOLB   PO227542   5.366  20.652  29.185 -0.2456  0.0900 -0.1846
 1148BOLB   GL327543   5.499  20.380  29.254 -0.0253 -0.2799 -0.1344
 1148BOLB   GL427544   5.463  20.289  29.608 -0.1911 -0.2816  0.1854
 1148BOLB   C1C27545   5.811  20.052  29.204  0.1730  0.1191 -0.3324
 1148BOLB   C2C27546   6.122  19.891  29.492 -0.5043 -0.0515 -0.0860
 1148BOLB   C3C27547   6.491  19.613  29.458  0.2157 -0.0283 -0.0306
 1148BOLB   C4C27548   6.748  19.328  29.255  0.2562 -0.2824 -0.0477
 1148BOLB   C1D27549   5.859  20.558  29.801 -0.2498 -0.0715  0.0819
 1148BOLB   C2D27550   6.211  20.442  29.577  0.0751  0.0766  0.2452
 1148BOLB   C3D27551   6.641  20.226  29.489  0.1550  0.1326 -0.0510
 1148BOLB   C4D27552   7.073  20.287  29.563  0.1107 -0.0879 -0.1087
 1149BOLB   NC127553  10.760  16.231  36.815 -0.4031 -0.5000 -0.0081
 1149BOLB   PO127554  10.713  16.562  36.728  0.3038  0.2932 -0.2940
 1149BOLB   GL127555  10.592  16.573  37.169 -0.0098 -0.1662  0.5064
 1149BOLB   GL227556  10.883  16.558  37.419 -0.0191 -0.1040 -0.0630
 1149BOLB   C1A27557  10.515  16.893  37.478 -0.1562 -0.1830  0.1611
 1149BOLB   C2A27558  10.428  17.199  37.821  0.1600 -0.0673  0.2830
 1149BOLB   C3A27559  10.121  17.593  37.974  0.1294 -0.0055 -0.1087
 1149BOLB   C4A27560  10.024  17.997  37.984 -0.0778  0.0532  0.0705
 1149BOLB   C1B27561  10.941  16.814  37.779 -0.0174 -0.1541 -0.1616
 1149BOLB   C2B27562  10.723  16.682  38.139  0.1166  0.0563  0.2291
 1149BOLB   C3B27563  10.644  16.762  38.599  0.0335  0.3221 -0.2024
 1149BOLB   C4B27564  10.300  17.022  38.779 -0.2676 -0.2324 -0.1203
 1149BOLB   NC227565   9.127  20.054  39.152 -0.0250 -0.0050  0.0901
 1149BOLB   PO227566   8.997  19.574  39.181  0.1943 -0.0614 -0.1282
 1149BOLB   GL327567   9.244  19.260  39.105 -0.2256  0.1087  0.0452
 1149BOLB   GL427568   9.593  19.215  39.195 -0.3261  0.0484 -0.1078
 1149BOLB   C1C27569   9.402  18.976  38.743  0.0900  0.1198  0.1444
 1149BOLB   C2C27570   9.353  18.845  38.344  0.0214  0.5712  0.2661
 1149BOLB   C3C27571   9.723  18.747  38.031  0.0504  0.4539  0.0318
 1149BOLB   C4C27572   9.964  18.443  37.857 -0.0313 -0.1060 -0.2212
 1149BOLB   C1D27573   9.823  18.902  39.034 -0.1453 -0.2769 -0.1738
 1149BOLB   C2D27574   9.886  18.822  38.571 -0.1508  0.4079 -0.2118
 1149BOLB   C3D27575  10.242  18.680  38.299 -0.2020  0.0171  0.2252
 1149BOLB   C4D27576  10.701  18.732  38.311  0.0296  0.1661  0.2728
 1150BOLB   NC127577  12.088   5.148  32.970  0.3494 -0.1148  0.1276
 1150BOLB   PO127578  12.356   5.071  32.595 -0.0942  0.2119 -0.0685
 1150BOLB   GL127579  12.482   4.713  32.521  0.0759  0.0691 -0.3426
 1150BOLB   GL227580  12.434   4.757  32.159 -0.2797  0.2965 -0.0119
 1150BOLB   C1A27581  12.319   4.192  32.569 -0.2435  0.0878 -0.0872
 1150BOLB   C2A27582  12.209   3.967  32.822 -0.2092  0.0563 -0.0250
 1150BOLB   C3A27583  11.925   3.722  33.111  0.2693 -0.1884 -0.0661
 1150BOLB   C4A27584  11.603   3.384  33.091  0.1085 -0.1383 -0.2720
 1150BOLB   C1B27585  12.206   4.375  32.095  0.4658  0.4614 -0.0047
 1150BOLB   C2B27586  11.836   4.104  32.246  0.0422 -0.4463 -0.0807
 1150BOLB   C3B27587  11.527   3.821  32.440 -0.1093 -0.0481 -0.0629
 1150BOLB   C4B27588  11.525   3.386  32.527 -0.2337 -0.1271 -0.0548
 1150BOLB   NC227589  11.605   0.714  33.071  0.2597 -0.1584  0.1450
 1150BOLB   PO227590  11.261   0.955  33.191  0.3942  0.1151 -0.0860
 1150BOLB   GL327591  11.562   1.209  33.334  0.1644 -0.1442  0.0227
 1150BOLB   GL427592  11.625   1.411  33.583 -0.2465  0.1114  0.0700
 1150BOLB   C1C27593  11.763   1.666  33.154 -0.1248  0.0315  0.2427
 1150BOLB   C2C27594  11.574   2.104  33.076  0.2055 -0.0333 -0.0517
 1150BOLB   C3C27595  11.435   2.518  33.050  0.0459 -0.3145 -0.0710
 1150BOLB   C4C27596  11.408   2.997  33.044  0.4238  0.2365 -0.0813
 1150BOLB   C1D27597  11.965   1.854  33.654  0.1056 -0.1112  0.2182
 1150BOLB   C2D27598  12.118   2.070  33.297  0.0373  0.1764  0.0207
 1150BOLB   C3D27599  12.138   2.045  33.000  0.0048 -0.1314  0.1275
 1150BOLB   C4D27600  11.917   2.216  32.683 -0.0190  0.0763  0.2527
 1151BOLB   NC127601  11.848  20.411  27.803 -0.0793  0.3121  0.0448
 1151BOLB   PO127602  11.628  20.661  27.521 -0.5649 -0.0436 -0.0995
 1151BOLB   GL127603  11.463  21.045  27.491  0.0688  0.0464 -0.0207
 1151BOLB   GL227604  11.193  20.994  27.647  0.0884 -0.1668 -0.4038
 1151BOLB   C1A27605  11.442  21.436  27.246 -0.1711  0.1373 -0.1627
 1151BOLB   C2A27606  11.157  21.759  27.121 -0.0784 -0.2121 -0.0984
 1151BOLB   C3A27607  10.820  22.115  27.015 -0.1960 -0.4137 -0.1409
 1151BOLB   C4A27608  10.649  22.227  26.669 -0.0361  0.3304  0.0626
 1151BOLB   C1B27609  11.104  21.388  27.576  0.0478 -0.0061 -0.2092
 1151BOLB   C2B27610  11.100  21.761  27.663  0.1078 -0.0061  0.0028
 1151BOLB   C3B27611  11.158  22.234  27.573  0.2123 -0.0801  0.0336
 1151BOLB   C4B27612  11.396  22.460  27.293  0.3335 -0.1296 -0.3401
 1151BOLB   NC227613   8.700  23.088  25.365 -0.3636  0.0576 -0.0631
 1151BOLB   PO227614   8.445  22.928  25.798  0.1518 -0.3575  0.3176
 1151BOLB   GL327615   8.893  22.788  25.755  0.2837 -0.0300  0.1527
 1151BOLB   GL427616   8.734  22.462  25.547  0.0716 -0.0464  0.4555
 1151BOLB   C1C27617   9.265  22.775  25.754 -0.0087 -0.0415  0.2869
 1151BOLB   C2C27618   9.642  22.376  25.933  0.2416 -0.1493 -0.1235
 1151BOLB   C3C27619   9.940  22.087  26.093 -0.3287 -0.3121  0.2881
 1151BOLB   C4C27620  10.223  22.171  26.456 -0.2129 -0.2812 -0.2463
 1151BOLB   C1D27621   8.959  22.042  25.415 -0.0505 -0.0473 -0.0890
 1151BOLB   C2D27622   9.273  21.723  25.353 -0.0310 -0.0668  0.2293
 1151BOLB   C3D27623   9.611  21.450  25.302 -0.0758 -0.1412  0.1854
 1151BOLB   C4D27624   9.997  21.491  25.106 -0.2885  0.0705 -0.3486
 1152BOLB   NC127625  11.072   6.744  25.553  0.3546  0.0733  0.1983
 1152BOLB   PO127626  11.454   6.795  25.447  0.2332  0.1903 -0.1237
 1152BOLB   GL127627  11.333   6.593  25.116 -0.1094 -0.0153 -0.1167
 1152BOLB   GL227628  11.523   6.392  24.942  0.2228  0.0746 -0.2950
 1152BOLB   C1A27629  10.971   6.733  24.770  0.2793 -0.0100  0.0248
 1152BOLB   C2A27630  10.546   6.639  24.466 -0.1061  0.0838 -0.4320
 1152BOLB   C3A27631  10.221   6.545  24.189  0.0755 -0.0010 -0.0603
 1152BOLB   C4A27632   9.975   6.553  23.720 -0.2747 -0.1551 -0.2223
 1152BOLB   C1B27633  11.073   6.212  24.780 -0.2565 -0.1985 -0.3916
 1152BOLB   C2B27634  10.842   5.922  24.810  0.1052  0.3520 -0.3701
 1152BOLB   C3B27635  10.483   5.768  24.929 -0.4195  0.0046  0.3232
 1152BOLB   C4B27636  10.045   5.731  24.787  0.3602  0.3583  0.2516
 1152BOLB   NC227637   8.304   5.668  21.911  0.0592  0.3913 -0.3002
 1152BOLB   PO227638   8.538   6.044  21.960 -0.0880  0.1152  0.3125
 1152BOLB   GL327639   8.720   6.232  22.358 -0.0664 -0.1521  0.0415
 1152BOLB   GL427640   9.120   6.096  22.204  0.0333 -0.3398  0.1151
 1152BOLB   C1C27641   9.055   6.590  22.527  0.1828 -0.1099  0.2685
 1152BOLB   C2C27642   9.349   6.567  22.777  0.1274 -0.1970  0.1983
 1152BOLB   C3C27643   9.580   6.820  23.065  0.3605  0.2884  0.0341
 1152BOLB   C4C27644   9.961   6.686  23.329  0.0342 -0.1151  0.0557
 1152BOLB   C1D27645   9.525   6.302  22.412 -0.0941 -0.4232  0.0024
 1152BOLB   C2D27646   9.929   6.375  22.380 -0.1578 -0.0663  0.0678
 1152BOLB   C3D27647  10.403   6.410  22.302 -0.0561  0.0047 -0.3122
 1152BOLB   C4D27648  10.640   6.810  22.270 -0.1247 -0.0931 -0.0573
 1153BOLB   NC127649  20.566   5.493  32.627  0.0564  0.0679 -0.0085
 1153BOLB   PO127650  20.716   5.440  32.225 -0.0642 -0.3107  0.0585
 1153BOLB   GL127651  21.046   5.143  32.301 -0.1468 -0.0934  0.4258
 1153BOLB   GL227652  21.232   5.309  32.200  0.1496  0.2074 -0.4535
 1153BOLB   C1A27653  21.085   4.771  32.358  0.4132  0.1884  0.1868
 1153BOLB   C2A27654  21.191   4.326  32.565 -0.1691  0.1280 -0.3498
 1153BOLB   C3A27655  21.101   3.940  32.484  0.0140 -0.0289 -0.0881
 1153BOLB   C4A27656  21.330   3.469  32.547  0.1030 -0.2265  0.2618
 1153BOLB   C1B27657  21.488   5.149  32.527  0.1143  0.1750 -0.1526
 1153BOLB   C2B27658  21.843   5.085  32.723 -0.1059 -0.1345  0.1316
 1153BOLB   C3B27659  22.154   4.949  32.992  0.0640 -0.0548 -0.0675
 1153BOLB   C4B27660  22.451   4.901  33.293  0.0816  0.1900  0.3317
 1153BOLB   NC227661  22.520   1.495  33.125  0.1932  0.0475  0.0642
 1153BOLB   PO227662  22.564   1.654  32.802  0.1304  0.1395  0.0243
 1153BOLB   GL327663  22.455   2.028  32.564 -0.1678 -0.0950 -0.2970
 1153BOLB   GL427664  22.166   2.015  32.405  0.3507 -0.0778 -0.0063
 1153BOLB   C1C27665  22.391   2.437  32.661 -0.0039  0.1740 -0.0729
 1153BOLB   C2C27666  22.333   2.837  32.762  0.1158  0.0936  0.1014
 1153BOLB   C3C27667  21.856   2.915  32.841 -0.1642 -0.0411 -0.0188
 1153BOLB   C4C27668  21.597   3.222  32.700  0.0922  0.3969 -0.1669
 1153BOLB   C1D27669  22.340   2.361  32.132  0.0827 -0.1512 -0.0306
 1153BOLB   C2D27670  22.071   2.623  31.862  0.3772  0.2605 -0.0179
 1153BOLB   C3D27671  21.820   3.006  31.684  0.1444  0.0489 -0.1558
 1153BOLB   C4D27672  21.755   3.444  31.684  0.2134  0.3811 -0.0182
 1154BOLB   NC127673  16.650   9.214  20.029  0.0794 -0.0384  0.1850
 1154BOLB   PO127674  16.437   8.830  19.997  0.2941 -0.1285  0.0198
 1154BOLB   GL127675  16.501   8.527  19.712  0.1267  0.0709  0.0327
 1154BOLB   GL227676  16.339   8.368  19.608 -0.0680  0.0387  0.0610
 1154BOLB   C1A27677  16.539   8.059  19.879  0.1490  0.1607  0.1715
 1154BOLB   C2A27678  16.566   7.653  19.923  0.0099  0.2938  0.0555
 1154BOLB   C3A27679  16.339   7.246  19.744  0.3873 -0.0755  0.2979
 1154BOLB   C4A27680  16.454   6.851  19.666  0.0601  0.1120  0.1392
 1154BOLB   C1B27681  15.951   8.471  19.426 -0.2604  0.1327  0.1467
 1154BOLB   C2B27682  15.898   8.585  18.975  0.1665  0.0584 -0.0577
 1154BOLB   C3B27683  15.823   8.814  18.638  0.5202  0.1316 -0.0251
 1154BOLB   C4B27684  15.611   8.840  18.322 -0.0655  0.1618  0.3691
 1154BOLB   NC227685  14.698   5.840  17.626 -0.2365  0.0437 -0.0909
 1154BOLB   PO227686  15.197   6.009  17.687  0.0305  0.1676  0.1125
 1154BOLB   GL327687  15.589   6.076  17.983  0.0279 -0.3789 -0.2161
 1154BOLB   GL427688  15.878   6.155  17.841 -0.0739 -0.1797  0.1431
 1154BOLB   C1C27689  15.723   6.340  18.360  0.1670 -0.1918  0.1260
 1154BOLB   C2C27690  15.880   6.647  18.757  0.3136 -0.1629  0.0079
 1154BOLB   C3C27691  16.200   6.653  19.015  0.3914  0.2860  0.1616
 1154BOLB   C4C27692  16.398   6.576  19.470  0.3149 -0.0404 -0.2819
 1154BOLB   C1D27693  16.203   6.524  17.858 -0.3020  0.2117  0.0002
 1154BOLB   C2D27694  16.363   6.742  18.129  0.1440  0.0950 -0.1208
 1154BOLB   C3D27695  16.623   6.678  18.479  0.0484 -0.0014 -0.0445
 1154BOLB   C4D27696  16.901   6.899  18.616 -0.1186 -0.0258 -0.1867
 1155BOLB   NC127697  21.783  14.833  35.554  0.0647 -0.1954  0.1137
 1155BOLB   PO127698  22.197  14.764  35.773  0.0071 -0.1413 -0.0960
 1155BOLB   GL127699  22.402  14.996  36.100 -0.2665  0.0776  0.3894
 1155BOLB   GL227700  22.233  15.169  36.350 -0.3034  0.2822 -0.0429
 1155BOLB   C1A27701  22.719  15.100  36.309  0.0038 -0.0228  0.4097
 1155BOLB   C2A27702  22.887  15.293  36.507 -0.2275  0.1685  0.1739
 1155BOLB   C3A27703  23.060  15.718  36.594 -0.2639 -0.0291 -0.0342
 1155BOLB   C4A27704  23.302  15.845  36.948  0.2146 -0.1152  0.2166
 1155BOLB   C1B27705  22.430  15.493  36.639 -0.1473  0.0232 -0.0299
 1155BOLB   C2B27706  22.688  15.749  36.941  0.1864 -0.3135 -0.1312
 1155BOLB   C3B27707  22.926  15.807  37.403  0.1833  0.2944 -0.1921
 1155BOLB   C4B27708  23.037  16.137  37.828  0.3593  0.0983  0.0702
 1155BOLB   NC227709  25.508  16.228  37.888  0.1816  0.0151  0.1978
 1155BOLB   PO227710  25.244  16.516  38.140 -0.0945 -0.4369 -0.0655
 1155BOLB   GL327711  24.978  16.216  37.933 -0.2851  0.0808  0.2590
 1155BOLB   GL427712  24.749  15.958  38.090 -0.0686  0.2235 -0.0088
 1155BOLB   C1C27713  24.790  15.967  37.620  0.0254  0.2059 -0.2380
 1155BOLB   C2C27714  24.620  15.898  37.360 -0.0146  0.0870  0.0266
 1155BOLB   C3C27715  24.160  15.823  37.298 -0.1048 -0.0484 -0.0177
 1155BOLB   C4C27716  23.682  15.960  37.214  0.1342  0.0816  0.0116
 1155BOLB   C1D27717  24.451  16.186  38.181  0.1711 -0.0215  0.0091
 1155BOLB   C2D27718  24.010  16.354  38.042  0.1522 -0.2150  0.2423
 1155BOLB   C3D27719  23.577  16.284  37.860 -0.0095  0.1078  0.1513
 1155BOLB   C4D27720  23.456  16.350  37.432  0.1584 -0.2569  0.1188
 1156BOLB   NC127721   9.796  15.205  36.369 -0.0983  0.0964 -0.1175
 1156BOLB   PO127722  10.134  15.285  36.692 -0.4238 -0.3114  0.1493
 1156BOLB   GL127723   9.760  15.434  36.867  0.2012  0.2439  0.0315
 1156BOLB   GL227724   9.582  15.243  36.950 -0.2740  0.1599  0.4527
 1156BOLB   C1A27725   9.380  15.722  36.961 -0.1554  0.1961 -0.2047
 1156BOLB   C2A27726   9.099  15.818  37.274  0.1555  0.1601 -0.1982
 1156BOLB   C3A27727   8.954  15.956  37.701 -0.0921 -0.3744 -0.1657
 1156BOLB   C4A27728   8.681  15.975  38.091 -0.0889 -0.0830  0.0865
 1156BOLB   C1B27729   9.393  15.033  37.334  0.0276 -0.0826  0.2606
 1156BOLB   C2B27730   9.177  14.979  37.707 -0.2315 -0.0475  0.2106
 1156BOLB   C3B27731   8.806  15.023  37.860  0.1068  0.1586  0.2988
 1156BOLB   C4B27732   8.278  14.830  37.900 -0.0954  0.0393 -0.0178
 1156BOLB   NC227733   7.426  16.150  39.996 -0.3231  0.0278  0.0420
 1156BOLB   PO227734   7.342  16.500  39.831  0.1931 -0.2840 -0.0300
 1156BOLB   GL327735   7.808  16.509  39.521  0.0094  0.1127 -0.1115
 1156BOLB   GL427736   7.803  16.269  39.663 -0.0630 -0.0263  0.1992
 1156BOLB   C1C27737   7.992  16.534  39.232  0.3660 -0.0949 -0.0793
 1156BOLB   C2C27738   8.071  16.507  38.798  0.1070  0.0175  0.1148
 1156BOLB   C3C27739   8.204  16.547  38.408  0.3611  0.0719  0.2385
 1156BOLB   C4C27740   8.341  16.207  38.197  0.0965  0.0743  0.1643
 1156BOLB   C1D27741   7.808  15.905  39.478  0.2333 -0.1847  0.0185
 1156BOLB   C2D27742   7.837  15.768  39.106 -0.2116  0.1520 -0.2124
 1156BOLB   C3D27743   7.850  15.862  38.695 -0.3606 -0.0731  0.3124
 1156BOLB   C4D27744   7.562  15.688  38.371 -0.1347 -0.1468 -0.1562
 1157BOLB   NC127745  23.146  12.777  34.839  0.0784  0.2915  0.0668
 1157BOLB   PO127746  23.391  13.166  34.665 -0.2008 -0.1830 -0.0525
 1157BOLB   GL127747  23.621  13.076  35.069 -0.1571 -0.1549 -0.0479
 1157BOLB   GL227748  23.690  12.836  35.307  0.0679 -0.0881 -0.3734
 1157BOLB   C1A27749  23.836  13.306  35.340  0.2997  0.0350 -0.1527
 1157BOLB   C2A27750  24.181  12.973  35.510  0.0531  0.1240 -0.1535
 1157BOLB   C3A27751  24.281  12.695  35.899 -0.4476 -0.0800  0.3263
 1157BOLB   C4A27752  24.601  12.455  35.927 -0.1869 -0.2665 -0.3370
 1157BOLB   C1B27753  24.002  12.430  35.345 -0.0189 -0.0336 -0.0756
 1157BOLB   C2B27754  24.448  12.467  35.489  0.1456 -0.1770 -0.0892
 1157BOLB   C3B27755  24.923  12.423  35.555 -0.1559  0.2141  0.1117
 1157BOLB   C4B27756  25.219  12.198  35.519 -0.2646  0.4853 -0.1359
 1157BOLB   NC227757  26.696  11.055  37.483 -0.2229  0.1192  0.1324
 1157BOLB   PO227758  26.427  11.142  37.152  0.2445  0.0117 -0.3020
 1157BOLB   GL327759  25.989  11.293  36.969  0.3397  0.2503 -0.0361
 1157BOLB   GL427760  25.712  11.071  36.968 -0.3066  0.0207  0.1536
 1157BOLB   C1C27761  25.766  11.504  36.650  0.1131 -0.1411  0.0602
 1157BOLB   C2C27762  25.491  11.796  36.478 -0.1418 -0.2323  0.3289
 1157BOLB   C3C27763  25.008  11.891  36.232  0.1352 -0.1398 -0.0327
 1157BOLB   C4C27764  24.771  12.183  36.292 -0.1515 -0.3309  0.0587
 1157BOLB   C1D27765  25.756  10.819  36.656  0.0730 -0.2136 -0.0018
 1157BOLB   C2D27766  25.719  10.570  36.357 -0.3991 -0.1422  0.1566
 1157BOLB   C3D27767  25.562  10.232  36.193  0.1860 -0.1525  0.1849
 1157BOLB   C4D27768  25.325   9.977  36.081 -0.3577  0.3155 -0.0311
 1158BOLB   NC127769  16.431   5.981  36.227 -0.1958 -0.1946 -0.0995
 1158BOLB   PO127770  16.621   6.235  36.606 -0.1189 -0.0165 -0.2390
 1158BOLB   GL127771  16.549   5.758  36.848 -0.2082 -0.1193 -0.4108
 1158BOLB   GL227772  16.346   5.720  36.631  0.1563 -0.0844 -0.0624
 1158BOLB   C1A27773  16.582   5.286  37.109  0.1399 -0.1675 -0.2635
 1158BOLB   C2A27774  16.492   4.883  37.330 -0.4377  0.1079 -0.0580
 1158BOLB   C3A27775  16.080   4.707  37.328  0.0555 -0.2510  0.2339
 1158BOLB   C4A27776  15.886   4.309  37.263 -0.2634  0.3382 -0.2956
 1158BOLB   C1B27777  16.188   5.386  36.861 -0.1356  0.0265  0.0379
 1158BOLB   C2B27778  15.845   5.107  37.085  0.0557 -0.1150 -0.1031
 1158BOLB   C3B27779  15.529   5.279  37.320 -0.0693 -0.1724 -0.1033
 1158BOLB   C4B27780  15.297   5.436  37.560  0.0360 -0.1284  0.2499
 1158BOLB   NC227781  15.783   1.822  37.517 -0.1242  0.2166 -0.0010
 1158BOLB   PO227782  15.673   1.915  37.918  0.0394 -0.3289  0.0156
 1158BOLB   GL327783  15.748   2.290  37.690 -0.4820  0.0562  0.1822
 1158BOLB   GL427784  16.042   2.339  37.460  0.0667 -0.1067  0.1005
 1158BOLB   C1C27785  15.578   2.682  37.723  0.3383 -0.0025 -0.1363
 1158BOLB   C2C27786  15.589   3.115  37.756 -0.3450  0.1534 -0.0536
 1158BOLB   C3C27787  15.546   3.614  37.799  0.2207  0.2180  0.1448
 1158BOLB   C4C27788  15.732   3.915  37.566  0.3072  0.0282  0.0226
 1158BOLB   C1D27789  15.769   2.506  37.221 -0.2945  0.1402  0.3166
 1158BOLB   C2D27790  15.484   2.719  36.846 -0.3363 -0.0284 -0.1865
 1158BOLB   C3D27791  15.395   2.965  36.437  0.0395  0.0425  0.2979
 1158BOLB   C4D27792  15.152   3.252  36.138 -0.2615 -0.0942  0.2632
 1159BOLB   NC127793   9.154  17.316  34.462  0.0167  0.1499  0.0743
 1159BOLB   PO127794   8.813  17.064  34.328  0.1979  0.2134  0.3890
 1159BOLB   GL127795   8.524  17.095  34.478 -0.0523  0.0355  0.3421
 1159BOLB   GL227796   8.205  16.952  34.522  0.3554 -0.0272 -0.0850
 1159BOLB   C1A27797   8.424  17.341  34.886 -0.0230  0.2381 -0.0774
 1159BOLB   C2A27798   8.147  17.570  35.129 -0.3356 -0.0816 -0.2733
 1159BOLB   C3A27799   7.971  17.779  35.516  0.0528 -0.0997 -0.0994
 1159BOLB   C4A27800   7.949  18.010  35.927 -0.1118 -0.3173  0.1584
 1159BOLB   C1B27801   7.759  16.899  34.611 -0.1515  0.3729 -0.0915
 1159BOLB   C2B27802   7.421  16.723  34.784 -0.2405  0.1600  0.1958
 1159BOLB   C3B27803   7.013  16.651  34.653  0.0176  0.0668  0.2679
 1159BOLB   C4B27804   6.542  16.620  34.767 -0.1627  0.0382 -0.3465
 1159BOLB   NC227805   6.907  18.522  38.286  0.2381  0.2563 -0.1329
 1159BOLB   PO227806   6.633  18.249  38.010 -0.1342  0.0601  0.2659
 1159BOLB   GL327807   6.913  18.355  37.696 -0.1905  0.1216 -0.1244
 1159BOLB   GL427808   6.915  17.971  37.681  0.1858  0.1279  0.3351
 1159BOLB   C1C27809   7.256  18.360  37.518  0.0350  0.2060 -0.0026
 1159BOLB   C2C27810   7.451  18.460  37.108 -0.2072  0.1294 -0.0807
 1159BOLB   C3C27811   7.469  18.260  36.749  0.2380 -0.0975 -0.2048
 1159BOLB   C4C27812   7.752  18.057  36.348  0.2966  0.0775  0.2444
 1159BOLB   C1D27813   7.304  18.000  37.813  0.0775  0.3432 -0.0545
 1159BOLB   C2D27814   7.622  17.713  37.717 -0.2608  0.0894 -0.1109
 1159BOLB   C3D27815   7.748  17.390  37.838  0.0022  0.0748  0.2417
 1159BOLB   C4D27816   7.705  16.994  37.497 -0.0278 -0.0540 -0.0892
 1160BOLB   NC127817  12.826   9.525  38.508  0.1536 -0.0638  0.1107
 1160BOLB   PO127818  13.000   9.604  38.882  0.1008  0.0308 -0.0733
 1160BOLB   GL127819  12.976   9.700  39.314  0.3811 -0.2198  0.1237
 1160BOLB   GL227820  12.588   9.844  39.221 -0.1705 -0.0423 -0.1856
 1160BOLB   C1A27821  12.847   9.511  39.787  0.2509  0.2322 -0.1933
 1160BOLB   C2A27822  12.703   9.364  40.192  0.1195 -0.0716 -0.0319
 1160BOLB   C3A27823  12.760   9.470  40.659  0.0011  0.1036  0.4114
 1160BOLB   C4A27824  12.889   9.308  41.014 -0.0847  0.1482 -0.0675
 1160BOLB   C1B27825  12.511   9.831  39.580  0.3328  0.0035  0.1883
 1160BOLB   C2B27826  12.336   9.762  39.909 -0.0810  0.0171  0.2689
 1160BOLB   C3B27827  12.225   9.541  40.296  0.1034  0.0445 -0.2511
 1160BOLB   C4B27828  11.959   9.483  40.618  0.0720  0.1855  0.0462
 1160BOLB   NC227829  13.347   8.633  43.416 -0.1805  0.2839  0.0610
 1160BOLB   PO227830  13.388   8.505  42.937  0.0550 -0.0263 -0.2734
 1160BOLB   GL327831  13.440   8.612  42.525 -0.0259 -0.0029 -0.0384
 1160BOLB   GL427832  13.443   9.009  42.605  0.2617 -0.0282 -0.1836
 1160BOLB   C1C27833  13.297   8.461  42.136 -0.3018  0.0069 -0.1924
 1160BOLB   C2C27834  13.197   8.690  41.820  0.0033 -0.0396 -0.0770
 1160BOLB   C3C27835  13.282   8.846  41.435  0.4573 -0.2254  0.1034
 1160BOLB   C4C27836  13.232   9.127  41.253 -0.6082  0.0429  0.0413
 1160BOLB   C1D27837  13.632   9.348  42.484 -0.0483  0.0434  0.0738
 1160BOLB   C2D27838  13.722   9.474  42.167  0.0006 -0.1269  0.1309
 1160BOLB   C3D27839  13.539   9.662  41.847 -0.4585  0.0530  0.0103
 1160BOLB   C4D27840  13.118   9.775  41.795  0.0135 -0.0287  0.0316
 1161BOLB   NC127841  14.838  10.749  20.857 -0.1037  0.0006 -0.1181
 1161BOLB   PO127842  14.486  10.633  20.504 -0.3690 -0.0212 -0.2265
 1161BOLB   GL127843  14.264  10.370  20.259 -0.0986 -0.0308 -0.0398
 1161BOLB   GL227844  13.950  10.251  20.325 -0.0749  0.2102  0.1049
 1161BOLB   C1A27845  14.097  10.411  19.853  0.2189  0.0210  0.0345
 1161BOLB   C2A27846  13.926  10.109  19.519  0.2907  0.0157  0.0290
 1161BOLB   C3A27847  13.727   9.850  19.363 -0.2740  0.3020 -0.1134
 1161BOLB   C4A27848  13.641   9.732  18.951 -0.0395  0.0153 -0.0022
 1161BOLB   C1B27849  13.988   9.942  20.017  0.2960  0.0441  0.0708
 1161BOLB   C2B27850  13.819   9.532  19.877  0.1024 -0.1379 -0.0540
 1161BOLB   C3B27851  13.493   9.419  19.617  0.1061  0.0430 -0.0911
 1161BOLB   C4B27852  13.289   9.537  19.209 -0.0261  0.2024 -0.1554
 1161BOLB   NC227853  13.151   9.434  16.552 -0.0697  0.2050 -0.2632
 1161BOLB   PO227854  12.936   9.295  16.879  0.1513  0.0694 -0.0323
 1161BOLB   GL327855  13.014   9.079  17.155 -0.0381 -0.0350  0.1483
 1161BOLB   GL427856  12.864   8.881  17.233 -0.1835 -0.2451 -0.2046
 1161BOLB   C1C27857  13.489   9.184  17.340  0.1912  0.0124 -0.0412
 1161BOLB   C2C27858  13.480   9.444  17.747  0.2591 -0.4005 -0.0383
 1161BOLB   C3C27859  13.391   9.655  18.016  0.2949 -0.0623 -0.1700
 1161BOLB   C4C27860  13.425   9.744  18.496 -0.1450  0.2658  0.1095
 1161BOLB   C1D27861  12.846   8.918  17.725 -0.0568 -0.0659 -0.0032
 1161BOLB   C2D27862  13.020   8.741  18.037 -0.1334 -0.1333  0.2363
 1161BOLB   C3D27863  13.309   8.875  18.343 -0.2771 -0.1654  0.2174
 1161BOLB   C4D27864  13.269   9.179  18.656 -0.1688 -0.0278 -0.1105
 1162BOLB   NC127865   7.822  11.322  29.502 -0.1510 -0.0293  0.0477
 1162BOLB   PO127866   7.540  11.139  29.162  0.1849 -0.4994 -0.4029
 1162BOLB   GL127867   7.251  11.081  29.012 -0.2328  0.1069  0.0189
 1162BOLB   GL227868   7.088  11.145  28.782  0.0274  0.2538 -0.2300
 1162BOLB   C1A27869   6.786  10.909  29.083 -0.1035 -0.0550 -0.0453
 1162BOLB   C2A27870   6.541  10.827  28.736  0.1379 -0.2521  0.1569
 1162BOLB   C3A27871   6.183  10.747  28.393  0.3120 -0.2426  0.2888
 1162BOLB   C4A27872   5.776  10.637  28.178  0.0615 -0.1997  0.0172
 1162BOLB   C1B27873   6.868  11.223  28.471  0.0426  0.1983  0.3011
 1162BOLB   C2B27874   6.507  11.250  28.411  0.1250  0.0265 -0.3271
 1162BOLB   C3B27875   6.129  11.213  28.545 -0.0543  0.0620  0.0632
 1162BOLB   C4B27876   5.769  10.978  28.583  0.0909  0.0145 -0.4501
 1162BOLB   NC227877   3.165  10.567  29.178  0.0023 -0.0490  0.0056
 1162BOLB   PO227878   3.429  10.666  28.901 -0.0850 -0.1841 -0.2005
 1162BOLB   GL327879   3.820  10.560  28.831 -0.1905 -0.3795 -0.1175
 1162BOLB   GL427880   3.966  10.304  29.064  0.1661  0.1551 -0.1190
 1162BOLB   C1C27881   4.187  10.729  28.700  0.0221 -0.0702  0.0986
 1162BOLB   C2C27882   4.629  10.769  28.771 -0.1783 -0.0601  0.0864
 1162BOLB   C3C27883   4.985  10.631  28.543 -0.0338  0.0227 -0.3662
 1162BOLB   C4C27884   5.340  10.532  28.369 -0.0908 -0.0938  0.2529
 1162BOLB   C1D27885   4.312  10.263  29.082  0.3011  0.1833  0.1327
 1162BOLB   C2D27886   4.722  10.446  29.244 -0.0394 -0.0986  0.0284
 1162BOLB   C3D27887   5.092  10.573  29.165 -0.4148  0.3183 -0.1007
 1162BOLB   C4D27888   5.322  10.804  28.839  0.1547  0.2041 -0.0441
 1163BOLB   NC127889  20.665   9.566  20.905  0.1830  0.3298  0.0367
 1163BOLB   PO127890  21.097   9.414  20.965 -0.0911 -0.1616  0.0671
 1163BOLB   GL127891  21.319   9.022  20.904 -0.1596 -0.0682  0.0004
 1163BOLB   GL227892  21.350   9.148  20.596  0.1936 -0.4511 -0.3273
 1163BOLB   C1A27893  21.425   8.577  20.961  0.0873  0.1274  0.0572
 1163BOLB   C2A27894  21.446   8.154  20.973 -0.1533  0.0079 -0.0264
 1163BOLB   C3A27895  21.576   7.726  20.945 -0.0301 -0.1148  0.1017
 1163BOLB   C4A27896  21.682   7.214  20.874  0.0128 -0.0541 -0.2389
 1163BOLB   C1B27897  21.452   8.915  20.272 -0.2098 -0.1866  0.0672
 1163BOLB   C2B27898  21.570   8.710  19.918  0.0590 -0.1437 -0.0002
 1163BOLB   C3B27899  21.541   8.684  19.518  0.0536 -0.1641 -0.2623
 1163BOLB   C4B27900  21.419   8.859  19.162 -0.0911 -0.1233 -0.1948
 1163BOLB   NC227901  23.886   5.656  19.778  0.0447 -0.0704  0.2359
 1163BOLB   PO227902  23.470   5.666  19.968 -0.3034  0.1038 -0.0057
 1163BOLB   GL327903  23.199   6.064  19.974  0.0848  0.2476  0.1430
 1163BOLB   GL427904  23.313   6.430  20.123  0.2736  0.3814 -0.0553
 1163BOLB   C1C27905  22.835   6.315  20.109 -0.1365  0.2607 -0.1430
 1163BOLB   C2C27906  22.500   6.588  20.209 -0.0202  0.0517 -0.0656
 1163BOLB   C3C27907  22.274   6.827  20.537 -0.0571 -0.1167  0.0637
 1163BOLB   C4C27908  21.854   6.968  20.606  0.1982 -0.1564  0.2383
 1163BOLB   C1D27909  23.299   6.695  20.512  0.2581 -0.1714  0.0863
 1163BOLB   C2D27910  23.120   6.673  20.959 -0.2600  0.2607 -0.5298
 1163BOLB   C3D27911  22.999   6.394  21.106 -0.4156  0.0370  0.2125
 1163BOLB   C4D27912  22.723   5.962  20.907  0.1177 -0.1659 -0.0817
 1164BOLB   NC127913  11.941  11.470  21.956  0.2694 -0.0627 -0.0660
 1164BOLB   PO127914  11.496  11.462  21.776 -0.1180  0.0793  0.3221
 1164BOLB   GL127915  11.145  11.235  21.703 -0.1828 -0.0030  0.1757
 1164BOLB   GL227916  11.248  10.874  21.729 -0.1164 -0.2422  0.0773
 1164BOLB   C1A27917  10.886  11.124  21.379  0.2129 -0.1003  0.0840
 1164BOLB   C2A27918  10.774  10.960  21.089  0.0211 -0.1339 -0.1289
 1164BOLB   C3A27919  10.802  10.847  20.733 -0.1365  0.3404  0.2058
 1164BOLB   C4A27920  10.488  11.027  20.434  0.1769 -0.0942  0.2110
 1164BOLB   C1B27921  11.074  10.625  21.421 -0.1055  0.2212  0.0593
 1164BOLB   C2B27922  10.803  10.440  21.188 -0.1486 -0.0251  0.0813
 1164BOLB   C3B27923  10.625  10.142  21.177 -0.1784  0.0234 -0.0452
 1164BOLB   C4B27924  10.566   9.640  21.162 -0.2919 -0.1425 -0.2350
 1164BOLB   NC227925   9.027   9.339  19.238  0.3074 -0.1495 -0.0613
 1164BOLB   PO227926   9.363   9.543  19.008  0.0638 -0.1474  0.3214
 1164BOLB   GL327927   9.743   9.758  19.267  0.1262  0.0829  0.0348
 1164BOLB   GL427928   9.907   9.483  19.465 -0.2752 -0.1615  0.1131
 1164BOLB   C1C27929  10.016  10.045  19.441 -0.1235 -0.1500 -0.0498
 1164BOLB   C2C27930  10.058  10.461  19.575 -0.2144 -0.3271 -0.1098
 1164BOLB   C3C27931   9.939  10.541  19.993  0.0809 -0.1520  0.1573
 1164BOLB   C4C27932  10.185  10.922  20.152  0.0456  0.3258  0.3825
 1164BOLB   C1D27933  10.105   9.342  19.806 -0.2052 -0.0347  0.1090
 1164BOLB   C2D27934  10.435   9.291  20.172  0.0288  0.2855 -0.0322
 1164BOLB   C3D27935  10.592   9.480  20.497 -0.2415  0.0773  0.1833
 1164BOLB   C4D27936  11.016   9.441  20.765 -0.2212 -0.0765 -0.3314
 1165BOLB   NC127937  15.961  19.669  23.288 -0.2008 -0.1936  0.0974
 1165BOLB   PO127938  15.600  19.852  23.313  0.2089 -0.2099  0.1691
 1165BOLB   GL127939  15.791  20.137  23.119  0.1029  0.1426  0.0227
 1165BOLB   GL227940  16.074  20.243  23.327  0.1956  0.2818  0.0405
 1165BOLB   C1A27941  15.761  20.544  22.960  0.1650 -0.2492 -0.0729
 1165BOLB   C2A27942  15.636  20.864  22.686 -0.1174 -0.0908 -0.0106
 1165BOLB   C3A27943  15.824  21.209  22.436  0.2398  0.0319  0.3466
 1165BOLB   C4A27944  15.896  21.418  22.021  0.0615 -0.1390 -0.2440
 1165BOLB   C1B27945  16.132  20.649  23.375  0.2837  0.1539 -0.1781
 1165BOLB   C2B27946  16.041  20.989  23.084  0.3032 -0.0696  0.1718
 1165BOLB   C3B27947  16.322  21.089  22.837  0.1349  0.3032  0.2723
 1165BOLB   C4B27948  16.277  21.412  22.499  0.0052 -0.0258  0.0144
 1165BOLB   NC227949  13.992  23.066  21.245 -0.2526  0.0164  0.0507
 1165BOLB   PO227950  14.535  23.328  21.360  0.0144 -0.0523  0.2451
 1165BOLB   GL327951  14.796  23.095  21.725  0.1924  0.4870  0.1117
 1165BOLB   GL427952  14.750  22.720  21.908  0.1547 -0.0300 -0.1036
 1165BOLB   C1C27953  15.214  22.839  21.795 -0.3388 -0.1110  0.3768
 1165BOLB   C2C27954  15.300  22.361  21.823  0.1802  0.1599  0.3171
 1165BOLB   C3C27955  15.396  21.982  21.635  0.1640  0.0785  0.3829
 1165BOLB   C4C27956  15.685  21.610  21.635 -0.1438 -0.2007 -0.1663
 1165BOLB   C1D27957  14.587  22.373  21.983 -0.2864  0.1481  0.1134
 1165BOLB   C2D27958  14.624  21.997  22.238  0.2724 -0.0984 -0.0207
 1165BOLB   C3D27959  14.586  21.703  22.597 -0.2450 -0.0997 -0.5900
 1165BOLB   C4D27960  14.691  21.344  22.730  0.0231  0.3560 -0.1126
 1166BOLB   NC127961  18.401  18.710  28.355 -0.0105  0.0988  0.2509
 1166BOLB   PO127962  18.699  19.018  28.381 -0.1181  0.1075  0.1117
 1166BOLB   GL127963  18.638  19.310  28.209  0.1629  0.1677  0.0138
 1166BOLB   GL227964  18.731  19.149  27.844 -0.0696  0.3282 -0.2111
 1166BOLB   C1A27965  18.746  19.764  28.107 -0.2568 -0.2996  0.2669
 1166BOLB   C2A27966  18.831  20.065  28.307  0.0175 -0.1025  0.3049
 1166BOLB   C3A27967  19.176  20.421  28.229 -0.0364 -0.2076  0.4523
 1166BOLB   C4A27968  19.592  20.659  28.081  0.3681 -0.4041  0.1459
 1166BOLB   C1B27969  19.072  19.403  27.899  0.0921  0.1526  0.3461
 1166BOLB   C2B27970  19.279  19.612  28.196  0.0351 -0.1175 -0.2437
 1166BOLB   C3B27971  19.363  19.937  28.347  0.2046  0.0337 -0.3065
 1166BOLB   C4B27972  19.620  20.226  28.435  0.2038  0.1219 -0.0120
 1166BOLB   NC227973  21.718  22.251  27.244 -0.0099  0.0808 -0.1674
 1166BOLB   PO227974  21.730  21.762  27.312  0.1829 -0.1848  0.2528
 1166BOLB   GL327975  21.335  21.576  27.374  0.0821 -0.0011  0.0306
 1166BOLB   GL427976  21.231  21.271  27.231 -0.3402  0.1023 -0.0087
 1166BOLB   C1C27977  20.891  21.399  27.590  0.0274 -0.2472 -0.1979
 1166BOLB   C2C27978  20.636  21.137  27.577 -0.0659 -0.0463  0.0246
 1166BOLB   C3C27979  20.190  21.064  27.661 -0.0282  0.1614 -0.0790
 1166BOLB   C4C27980  19.948  20.815  27.995 -0.1330 -0.2778 -0.3543
 1166BOLB   C1D27981  20.971  20.982  27.200 -0.2193  0.1091 -0.0789
 1166BOLB   C2D27982  20.802  20.452  27.318 -0.1044  0.0249 -0.0888
 1166BOLB   C3D27983  20.421  20.326  27.190 -0.1703 -0.2459  0.1412
 1166BOLB   C4D27984  20.315  19.965  27.001 -0.1768 -0.0586  0.3245
 1167BOLB   NC127985  19.425  10.778  39.497  0.0421 -0.1223  0.1446
 1167BOLB   PO127986  19.012  10.614  39.401  0.1140  0.0964 -0.0275
 1167BOLB   GL127987  18.889  10.632  39.815  0.1226 -0.1212 -0.1866
 1167BOLB   GL227988  18.805  10.278  39.889 -0.0012 -0.1235 -0.1362
 1167BOLB   C1A27989  19.193  10.417  40.135  0.0354 -0.5371  0.0309
 1167BOLB   C2A27990  19.272  10.453  40.477  0.0997  0.1754  0.1564
 1167BOLB   C3A27991  19.612  10.549  40.835  0.0946  0.1157 -0.0107
 1167BOLB   C4A27992  19.864  10.740  41.098  0.6655  0.0656  0.0682
 1167BOLB   C1B27993  18.849  10.077  40.366 -0.4628  0.0183 -0.0766
 1167BOLB   C2B27994  19.111  10.046  40.668  0.2219 -0.0798 -0.2163
 1167BOLB   C3B27995  19.403   9.943  40.789  0.2627 -0.0577  0.1279
 1167BOLB   C4B27996  19.752  10.133  41.017 -0.1021  0.2714  0.0358
 1167BOLB   NC227997  21.338  10.565  43.275 -0.0611  0.1772 -0.1613
 1167BOLB   PO227998  21.462  10.753  42.908 -0.0133  0.1422  0.0856
 1167BOLB   GL327999  21.118  10.577  42.796 -0.1479 -0.0058  0.1019
 1167BOLB   GL428000  20.887  10.637  42.890 -0.1594  0.3113  0.2471
 1167BOLB   C1C28001  20.908  10.645  42.345 -0.1634  0.1062 -0.1669
 1167BOLB   C2C28002  20.509  10.757  42.049  0.1107  0.1563 -0.1476
 1167BOLB   C3C28003  20.324  10.786  41.669  0.1230  0.1843 -0.0484
 1167BOLB   C4C28004  20.049  10.942  41.364 -0.1873  0.4068  0.0551
 1167BOLB   C1D28005  20.736  11.030  42.646 -0.1399  0.0527 -0.0380
 1167BOLB   C2D28006  20.502  11.268  42.286  0.3909  0.2132 -0.2330
 1167BOLB   C3D28007  20.323  11.303  41.886 -0.1973 -0.0636 -0.1389
 1167BOLB   C4D28008  19.956  11.443  41.586 -0.2113  0.0620 -0.1135
 1168BOLB   NC128009  22.059  12.417  36.312  0.0618  0.0215 -0.1371
 1168BOLB   PO128010  22.344  12.602  36.626 -0.1693  0.0460  0.0724
 1168BOLB   GL128011  22.719  12.629  36.964  0.1760 -0.0857  0.1600
 1168BOLB   GL228012  22.985  12.532  36.823 -0.4969  0.1192 -0.1725
 1168BOLB   C1A28013  22.881  12.567  37.355  0.0508  0.0325 -0.1093
 1168BOLB   C2A28014  23.166  12.565  37.709 -0.0636 -0.2111  0.0537
 1168BOLB   C3A28015  22.973  12.560  38.259 -0.1020  0.1948  0.4192
 1168BOLB   C4A28016  23.118  12.510  38.646  0.2341  0.1161  0.0511
 1168BOLB   C1B28017  23.339  12.360  37.064  0.1079 -0.1594 -0.0444
 1168BOLB   C2B28018  23.697  12.192  37.241 -0.0513  0.1585 -0.2268
 1168BOLB   C3B28019  23.951  11.783  37.421 -0.0177 -0.0348  0.2274
 1168BOLB   C4B28020  23.971  11.250  37.359 -0.2212  0.4843 -0.1005
 1168BOLB   NC228021  24.857  12.089  39.890 -0.0216 -0.1319  0.2695
 1168BOLB   PO228022  24.604  11.652  40.042  0.1276  0.0508 -0.2616
 1168BOLB   GL328023  24.295  11.868  39.802 -0.2437 -0.1935  0.1687
 1168BOLB   GL428024  24.492  11.847  39.564  0.0906 -0.3001  0.2333
 1168BOLB   C1C28025  23.853  11.778  39.640 -0.0015 -0.1274  0.2462
 1168BOLB   C2C28026  23.531  11.896  39.340 -0.0202  0.0826 -0.1274
 1168BOLB   C3C28027  23.336  12.302  39.409 -0.0973  0.0991 -0.1074
 1168BOLB   C4C28028  23.253  12.555  39.112 -0.1311 -0.0970  0.1024
 1168BOLB   C1D28029  24.162  12.129  39.373 -0.0120 -0.0267  0.0475
 1168BOLB   C2D28030  23.852  12.473  39.490  0.0027 -0.1533  0.0354
 1168BOLB   C3D28031  23.708  12.728  39.750 -0.0806 -0.0249  0.0893
 1168BOLB   C4D28032  23.381  12.821  39.685 -0.4166  0.0000  0.1513
 1169BOLB   NC128033  13.339  21.129  28.436  0.2701 -0.0916 -0.0595
 1169BOLB   PO128034  12.844  20.882  28.529 -0.1143  0.5259 -0.1109
 1169BOLB   GL128035  12.802  21.324  28.368 -0.1720  0.1930  0.0129
 1169BOLB   GL228036  12.727  21.519  28.143 -0.0396 -0.2696 -0.1092
 1169BOLB   C1A28037  12.771  21.856  28.510 -0.1237  0.0753 -0.0084
 1169BOLB   C2A28038  12.794  22.260  28.363  0.3939  0.4876 -0.1394
 1169BOLB   C3A28039  12.608  22.702  28.375  0.0113  0.0490  0.0487
 1169BOLB   C4A28040  12.437  23.039  28.102 -0.1379  0.1788  0.0065
 1169BOLB   C1B28041  12.637  21.919  28.005  0.2079 -0.1616  0.2628
 1169BOLB   C2B28042  12.561  22.303  27.898 -0.1045  0.1434  0.2277
 1169BOLB   C3B28043  12.820  22.680  27.940  0.0905  0.1165 -0.0569
 1169BOLB   C4B28044  13.086  23.040  27.777 -0.3244 -0.0968 -0.2221
 1169BOLB   NC228045  12.474  25.816  28.145  0.2010 -0.0158 -0.0698
 1169BOLB   PO228046  12.393  25.327  28.087 -0.0970  0.1056  0.3387
 1169BOLB   GL328047  12.267  24.856  28.090 -0.2354 -0.1676  0.0888
 1169BOLB   GL428048  12.408  24.734  28.473 -0.1702  0.1610  0.0066
 1169BOLB   C1C28049  12.265  24.472  27.873  0.0538  0.0698  0.2514
 1169BOLB   C2C28050  12.235  24.064  27.781  0.2363  0.1947 -0.1423
 1169BOLB   C3C28051  12.354  23.659  27.577 -0.0155 -0.0494 -0.3017
 1169BOLB   C4C28052  12.639  23.225  27.773 -0.0815  0.5482  0.0513
 1169BOLB   C1D28053  12.749  24.419  28.233  0.0332 -0.0355  0.2136
 1169BOLB   C2D28054  12.833  24.031  27.941  0.0185  0.1103  0.0821
 1169BOLB   C3D28055  12.844  23.586  28.120 -0.0468 -0.3790 -0.1223
 1169BOLB   C4D28056  12.897  23.115  28.236  0.1017 -0.1838  0.1107
 1170BOLB   NC128057  19.767  15.612  37.693  0.2461 -0.0272 -0.1020
 1170BOLB   PO128058  19.836  16.001  37.597 -0.1014 -0.0664  0.1621
 1170BOLB   GL128059  20.062  16.220  37.858  0.1741  0.0356 -0.1039
 1170BOLB   GL228060  19.954  16.542  37.927 -0.2357  0.0964  0.0841
 1170BOLB   C1A28061  20.066  16.221  38.269  0.0650  0.0164 -0.1086
 1170BOLB   C2A28062  20.401  16.176  38.644 -0.0101 -0.2873 -0.1521
 1170BOLB   C3A28063  20.862  16.016  38.789  0.1226  0.0483  0.0918
 1170BOLB   C4A28064  21.276  16.246  38.760 -0.1762  0.0860 -0.2454
 1170BOLB   C1B28065  20.332  16.721  38.155 -0.3516  0.1918 -0.2206
 1170BOLB   C2B28066  20.484  16.692  38.517 -0.1530 -0.0101 -0.2877
 1170BOLB   C3B28067  20.377  16.637  39.006 -0.0374  0.2782 -0.1294
 1170BOLB   C4B28068  20.220  16.203  39.207 -0.0135  0.0599 -0.0991
 1170BOLB   NC228069  23.000  17.862  39.554 -0.0090  0.0245 -0.0376
 1170BOLB   PO228070  22.642  17.766  39.818  0.0436  0.0237  0.0922
 1170BOLB   GL328071  22.590  17.616  39.408 -0.0573  0.0046  0.1789
 1170BOLB   GL428072  22.501  17.898  39.340 -0.2495 -0.0365 -0.0715
 1170BOLB   C1C28073  22.371  17.519  39.045  0.0955 -0.0246  0.2669
 1170BOLB   C2C28074  21.930  17.483  38.956 -0.1213 -0.4502 -0.0089
 1170BOLB   C3C28075  21.668  17.168  38.787  0.4178  0.1761 -0.0231
 1170BOLB   C4C28076  21.538  16.743  38.777  0.2076  0.0374 -0.1850
 1170BOLB   C1D28077  22.137  17.946  39.021  0.1230  0.0081 -0.2325
 1170BOLB   C2D28078  21.978  17.915  38.585  0.1149  0.1810  0.0290
 1170BOLB   C3D28079  21.853  17.538  38.427 -0.0058  0.2268  0.1827
 1170BOLB   C4D28080  21.687  17.620  37.994  0.1160  0.3835 -0.2172
 1171BOLB   NC128081  14.228  19.834  34.859  0.1315 -0.2544 -0.0333
 1171BOLB   PO128082  14.517  20.125  34.819  0.4622 -0.0691  0.2155
 1171BOLB   GL128083  14.198  20.431  35.066 -0.2139 -0.3491  0.1869
 1171BOLB   GL228084  14.114  20.740  34.845 -0.0190  0.0808 -0.0392
 1171BOLB   C1A28085  14.157  20.660  35.414  0.3219  0.0693 -0.0635
 1171BOLB   C2A28086  14.016  21.030  35.383 -0.1413 -0.0497 -0.1626
 1171BOLB   C3A28087  14.031  21.283  35.695  0.2155 -0.1850 -0.1133
 1171BOLB   C4A28088  14.046  21.639  36.030 -0.0817  0.0478  0.3198
 1171BOLB   C1B28089  13.917  21.140  34.908  0.2415  0.0018 -0.0500
 1171BOLB   C2B28090  13.739  21.408  35.230 -0.1068  0.0374  0.0349
 1171BOLB   C3B28091  13.580  21.640  35.640 -0.1414 -0.1820 -0.1541
 1171BOLB   C4B28092  13.252  21.550  35.829 -0.1501 -0.0246  0.1248
 1171BOLB   NC228093  14.339  24.599  36.548  0.0841 -0.1035 -0.3129
 1171BOLB   PO228094  14.177  24.125  36.587 -0.1036  0.1814  0.0741
 1171BOLB   GL328095  14.076  23.690  36.552 -0.4900  0.1417 -0.3531
 1171BOLB   GL428096  13.809  23.600  36.347  0.0444 -0.0248 -0.0915
 1171BOLB   C1C28097  14.215  23.198  36.598  0.0803 -0.1600 -0.3907
 1171BOLB   C2C28098  14.120  22.812  36.413  0.0956 -0.2109  0.2296
 1171BOLB   C3C28099  13.978  22.400  36.115 -0.0356 -0.2340  0.1363
 1171BOLB   C4C28100  13.886  21.990  36.083  0.1327  0.0185 -0.2617
 1171BOLB   C1D28101  13.954  23.229  36.185 -0.1514 -0.0737  0.0402
 1171BOLB   C2D28102  13.954  22.932  35.878 -0.2709  0.1463  0.2531
 1171BOLB   C3D28103  14.183  22.606  35.640 -0.0745  0.0099 -0.1240
 1171BOLB   C4D28104  14.131  22.358  35.247  0.1152  0.1957  0.1368
 1172BOLB   NC128105  13.457  19.494  24.073 -0.1089  0.0157  0.0428
 1172BOLB   PO128106  13.150  19.455  23.756 -0.1422  0.0907 -0.0620
 1172BOLB   GL128107  13.091  19.635  23.385  0.2735 -0.3870 -0.1285
 1172BOLB   GL228108  13.275  19.542  23.137  0.1202 -0.1100 -0.2194
 1172BOLB   C1A28109  13.006  20.048  23.265  0.0587  0.1917  0.1656
 1172BOLB   C2A28110  12.736  20.313  23.246  0.3504  0.0397  0.1409
 1172BOLB   C3A28111  12.387  20.614  23.211  0.2296  0.0309  0.3054
 1172BOLB   C4A28112  12.013  20.851  23.109  0.2128 -0.1744 -0.1481
 1172BOLB   C1B28113  13.078  19.804  22.823 -0.1708  0.0026  0.1499
 1172BOLB   C2B28114  12.927  19.880  22.434  0.3111  0.0541 -0.3721
 1172BOLB   C3B28115  12.675  20.244  22.310  0.0027 -0.3375 -0.2394
 1172BOLB   C4B28116  12.529  20.613  22.103 -0.0517  0.2878 -0.1538
 1172BOLB   NC228117  10.918  22.623  21.710  0.1357 -0.0344  0.0831
 1172BOLB   PO228118  10.840  22.208  21.873  0.0438  0.2624 -0.1820
 1172BOLB   GL328119  10.792  21.782  22.064 -0.0349  0.0588 -0.0313
 1172BOLB   GL428120  10.614  21.674  21.946 -0.2164  0.0132 -0.2226
 1172BOLB   C1C28121  10.967  21.732  22.437  0.1597  0.0361  0.2643
 1172BOLB   C2C28122  11.250  21.432  22.639  0.1901  0.2060  0.3563
 1172BOLB   C3C28123  11.330  21.193  22.940 -0.0889  0.3648 -0.0487
 1172BOLB   C4C28124  11.627  20.977  23.119 -0.0951 -0.2809 -0.0010
 1172BOLB   C1D28125  10.558  21.315  22.224  0.3035 -0.0652  0.3800
 1172BOLB   C2D28126  10.878  21.093  22.480 -0.1440  0.2254  0.1201
 1172BOLB   C3D28127  11.045  20.792  22.874 -0.0807  0.2247  0.0420
 1172BOLB   C4D28128  11.435  20.660  22.757  0.3565 -0.0634  0.2716
 1173BOLB   NC128129  20.457  18.421  34.208 -0.2219  0.2370  0.4064
 1173BOLB   PO128130  20.608  18.030  34.423 -0.1661 -0.3010  0.1224
 1173BOLB   GL128131  21.066  17.980  34.571 -0.1223 -0.1438 -0.1320
 1173BOLB   GL228132  21.239  17.949  34.818  0.4605 -0.0956  0.4490
 1173BOLB   C1A28133  21.455  18.173  34.451 -0.0728  0.0377 -0.1777
 1173BOLB   C2A28134  21.836  18.419  34.467  0.1603 -0.3617 -0.1156
 1173BOLB   C3A28135  22.156  18.760  34.682 -0.0380  0.3335  0.0148
 1173BOLB   C4A28136  22.428  19.099  34.887  0.3139 -0.0467  0.2024
 1173BOLB   C1B28137  21.520  18.228  34.975 -0.1350 -0.0854  0.0963
 1173BOLB   C2B28138  21.878  18.517  34.998  0.2343 -0.1104 -0.0379
 1173BOLB   C3B28139  22.163  18.802  35.207  0.0217 -0.3082 -0.3519
 1173BOLB   C4B28140  22.192  18.930  35.683  0.3664  0.1514 -0.0243
 1173BOLB   NC228141  23.797  21.051  35.081  0.0857  0.1996 -0.1629
 1173BOLB   PO228142  23.443  21.045  34.791  0.3361 -0.2229 -0.2096
 1173BOLB   GL328143  23.092  20.795  35.119  0.3561  0.1421 -0.1309
 1173BOLB   GL428144  22.790  20.969  35.177 -0.1192 -0.2169 -0.2856
 1173BOLB   C1C28145  23.177  20.481  35.340 -0.2617 -0.0680 -0.2398
 1173BOLB   C2C28146  23.014  20.117  35.339 -0.0575 -0.0035 -0.0395
 1173BOLB   C3C28147  22.616  19.920  35.188 -0.0949  0.1049 -0.1165
 1173BOLB   C4C28148  22.561  19.499  35.002 -0.2377 -0.1170  0.2609
 1173BOLB   C1D28149  22.656  20.528  35.117  0.3407 -0.0708  0.0132
 1173BOLB   C2D28150  22.269  20.213  35.083  0.1216  0.0989  0.0732
 1173BOLB   C3D28151  21.941  19.992  34.764 -0.0414 -0.1263  0.0404
 1173BOLB   C4D28152  21.975  19.944  34.373 -0.0196 -0.1940 -0.2855
 1174BOLB   NC128153  13.983   4.824  33.264  0.0399 -0.2199  0.0868
 1174BOLB   PO128154  14.414   4.926  33.283  0.0879  0.0955  0.0861
 1174BOLB   GL128155  14.384   4.496  33.493 -0.2735 -0.3350  0.0469
 1174BOLB   GL228156  13.997   4.390  33.507 -0.3817 -0.0156  0.0797
 1174BOLB   C1A28157  14.581   4.237  33.889 -0.0621 -0.1802 -0.3038
 1174BOLB   C2A28158  14.383   4.121  34.261  0.1879 -0.2611  0.0066
 1174BOLB   C3A28159  14.507   3.697  34.466 -0.2034  0.1712  0.1484
 1174BOLB   C4A28160  14.411   3.247  34.253 -0.1568 -0.2423  0.1014
 1174BOLB   C1B28161  14.213   3.964  33.608  0.4382  0.0681  0.1200
 1174BOLB   C2B28162  14.126   3.604  33.844 -0.0241 -0.1214  0.1396
 1174BOLB   C3B28163  13.972   3.405  34.193  0.2230 -0.1886 -0.1740
 1174BOLB   C4B28164  14.018   3.288  34.567 -0.0541  0.1395 -0.1135
 1174BOLB   NC228165  13.657   1.006  34.276  0.1492  0.0420  0.1472
 1174BOLB   PO228166  14.006   1.028  34.624 -0.2953 -0.2668  0.2234
 1174BOLB   GL328167  13.789   1.425  34.698 -0.0372 -0.1256  0.2774
 1174BOLB   GL428168  13.439   1.435  34.554  0.1697  0.1437  0.2575
 1174BOLB   C1C28169  13.829   1.805  34.437 -0.0349 -0.4062 -0.1354
 1174BOLB   C2C28170  14.057   2.141  34.319 -0.2443  0.0416 -0.1604
 1174BOLB   C3C28171  14.077   2.525  34.076 -0.1092 -0.0399  0.3842
 1174BOLB   C4C28172  14.175   2.981  33.981 -0.1010  0.4917  0.4673
 1174BOLB   C1D28173  13.447   1.673  34.145 -0.0204  0.1876  0.0880
 1174BOLB   C2D28174  13.815   1.655  33.799 -0.1686 -0.2172 -0.2425
 1174BOLB   C3D28175  14.196   1.668  33.644 -0.1364  0.2709  0.1218
 1174BOLB   C4D28176  14.487   1.817  33.497  0.2090  0.1760 -0.1227
 1175BOLB   NC128177  19.319   5.837  24.111  0.3130 -0.2070  0.1188
 1175BOLB   PO128178  18.777   5.806  24.180 -0.0396  0.2959  0.0127
 1175BOLB   GL128179  18.786   5.521  24.011 -0.2655  0.0976 -0.2670
 1175BOLB   GL228180  19.000   5.307  23.972 -0.1270 -0.1489 -0.2168
 1175BOLB   C1A28181  18.560   5.165  23.797 -0.1166 -0.0116  0.1404
 1175BOLB   C2A28182  18.658   4.750  23.690  0.1248  0.0722  0.0236
 1175BOLB   C3A28183  18.614   4.366  23.474 -0.0332  0.1785 -0.1169
 1175BOLB   C4A28184  18.284   4.013  23.532 -0.1316 -0.0312 -0.2028
 1175BOLB   C1B28185  19.063   5.015  23.767 -0.1126  0.0619 -0.1173
 1175BOLB   C2B28186  19.064   4.555  23.992 -0.0736  0.1989  0.2336
 1175BOLB   C3B28187  19.245   4.217  24.006  0.1653  0.3317  0.7446
 1175BOLB   C4B28188  19.174   3.752  24.148 -0.0788  0.0530 -0.0448
 1175BOLB   NC228189  18.137   1.477  22.304  0.0274 -0.0605  0.3427
 1175BOLB   PO228190  18.047   1.722  22.615 -0.0604 -0.0988  0.1408
 1175BOLB   GL328191  18.057   1.940  22.973 -0.1158 -0.0955 -0.1399
 1175BOLB   GL428192  17.798   2.130  23.079 -0.1860 -0.2818  0.1791
 1175BOLB   C1C28193  18.273   2.323  23.174  0.0971 -0.2414  0.0022
 1175BOLB   C2C28194  18.375   2.702  23.262 -0.1842 -0.0217 -0.0783
 1175BOLB   C3C28195  18.236   3.145  23.269  0.0476  0.2453  0.1891
 1175BOLB   C4C28196  18.162   3.602  23.398 -0.1089  0.0718  0.3387
 1175BOLB   C1D28197  17.827   2.322  23.491  0.1450  0.1230 -0.0820
 1175BOLB   C2D28198  18.195   2.436  23.678  0.1693  0.0655 -0.0601
 1175BOLB   C3D28199  18.236   2.785  23.780  0.1421 -0.0464 -0.3540
 1175BOLB   C4D28200  18.032   3.187  23.708  0.0044 -0.3067  0.1620
 1176BOLB   NC128201  10.912   5.707  30.969  0.0423  0.1545  0.2312
 1176BOLB   PO128202  11.139   5.816  30.580 -0.1783 -0.1129 -0.1655
 1176BOLB   GL128203  10.803   5.587  30.457 -0.2698 -0.0731 -0.1918
 1176BOLB   GL228204  10.885   5.309  30.636 -0.2260 -0.0926 -0.1582
 1176BOLB   C1A28205  10.369   5.387  30.427 -0.1672 -0.2354  0.0169
 1176BOLB   C2A28206   9.986   5.242  30.338  0.2221  0.2593  0.0583
 1176BOLB   C3A28207   9.631   5.066  30.481 -0.1983 -0.1772  0.1521
 1176BOLB   C4A28208   9.260   4.916  30.176  0.1994 -0.2774  0.2409
 1176BOLB   C1B28209  10.550   5.006  30.784 -0.0803 -0.2258 -0.1759
 1176BOLB   C2B28210  10.440   4.556  30.811  0.4881  0.0018 -0.0516
 1176BOLB   C3B28211  10.242   4.216  30.817 -0.0045  0.2797  0.3569
 1176BOLB   C4B28212  10.224   3.807  31.026  0.2147  0.0824  0.1073
 1176BOLB   NC228213   6.913   3.826  29.449  0.3801 -0.0342 -0.3596
 1176BOLB   PO228214   7.278   3.847  29.654  0.1333  0.1197 -0.0611
 1176BOLB   GL328215   7.533   4.119  29.810  0.3968 -0.0953  0.0355
 1176BOLB   GL428216   7.786   3.971  29.856 -0.3384 -0.3096 -0.4450
 1176BOLB   C1C28217   7.736   4.503  29.699 -0.0977 -0.1787  0.2868
 1176BOLB   C2C28218   8.109   4.734  29.688 -0.0976 -0.1614  0.1391
 1176BOLB   C3C28219   8.466   4.710  29.891  0.1226  0.0554 -0.1236
 1176BOLB   C4C28220   8.862   4.807  30.166  0.1843 -0.0690  0.3771
 1176BOLB   C1D28221   8.058   4.280  29.980 -0.2669 -0.0666 -0.3802
 1176BOLB   C2D28222   8.176   4.542  30.295 -0.0087 -0.0801  0.1300
 1176BOLB   C3D28223   8.173   4.975  30.527 -0.1842 -0.0916 -0.4465
 1176BOLB   C4D28224   8.130   5.313  30.443  0.0361  0.0991  0.3134
 1177BOLB   NC128225  18.946  18.694  34.322 -0.1115  0.2357 -0.1661
 1177BOLB   PO128226  19.364  18.892  34.272  0.2951  0.0344 -0.2770
 1177BOLB   GL128227  19.756  19.133  34.483 -0.2342  0.0624 -0.4325
 1177BOLB   GL228228  19.932  19.012  34.723 -0.1524  0.0986  0.0508
 1177BOLB   C1A28229  19.633  19.564  34.785 -0.2286 -0.0482  0.1513
 1177BOLB   C2A28230  19.735  20.029  34.752 -0.1821 -0.0912  0.1294
 1177BOLB   C3A28231  19.778  20.451  35.084 -0.0419  0.2961 -0.1068
 1177BOLB   C4A28232  20.102  20.714  35.386 -0.1149 -0.1507  0.0607
 1177BOLB   C1B28233  20.173  19.214  34.824 -0.2144 -0.0536 -0.0662
 1177BOLB   C2B28234  20.186  19.597  34.616 -0.0194 -0.0896 -0.2534
 1177BOLB   C3B28235  20.201  20.031  34.668  0.1883 -0.2389 -0.0553
 1177BOLB   C4B28236  20.175  20.393  34.852 -0.2245 -0.2268  0.1430
 1177BOLB   NC228237  21.620  22.081  36.059 -0.2050  0.1632 -0.0635
 1177BOLB   PO228238  21.901  22.045  35.578  0.1569 -0.3910  0.0236
 1177BOLB   GL328239  21.593  21.726  35.600  0.1809 -0.0500  0.0489
 1177BOLB   GL428240  21.425  21.927  35.506 -0.1093  0.2101  0.2515
 1177BOLB   C1C28241  21.471  21.350  35.805 -0.1076 -0.1790 -0.4848
 1177BOLB   C2C28242  21.155  21.013  35.654 -0.2927 -0.3292 -0.0593
 1177BOLB   C3C28243  20.807  20.852  35.571  0.0233  0.1820 -0.1491
 1177BOLB   C4C28244  20.479  20.773  35.287 -0.0608 -0.0996  0.3332
 1177BOLB   C1D28245  21.107  21.528  35.452 -0.0462 -0.2486  0.0933
 1177BOLB   C2D28246  20.754  21.247  35.263 -0.0713 -0.0540  0.1290
 1177BOLB   C3D28247  20.381  21.272  35.070 -0.0928 -0.2885 -0.0654
 1177BOLB   C4D28248  20.076  20.933  34.863  0.0977  0.1236  0.0957
 1178BOLB   NC128249  19.582  18.677  34.755 -0.0465  0.2603 -0.2191
 1178BOLB   PO128250  19.711  18.421  35.070 -0.1600  0.0663  0.2517
 1178BOLB   GL128251  19.930  18.737  35.243  0.2495 -0.0361  0.2809
 1178BOLB   GL228252  20.187  18.886  35.141  0.0784  0.1149 -0.1249
 1178BOLB   C1A28253  19.924  19.046  35.560  0.0423 -0.0181 -0.2494
 1178BOLB   C2A28254  20.126  19.327  35.858  0.1124  0.0819  0.0999
 1178BOLB   C3A28255  20.286  19.533  36.222 -0.2998 -0.2345 -0.1927
 1178BOLB   C4A28256  20.422  19.948  36.389 -0.0353  0.2112 -0.2098
 1178BOLB   C1B28257  20.321  19.255  35.300 -0.0007  0.2036 -0.1179
 1178BOLB   C2B28258  20.262  19.637  35.505 -0.3909 -0.1134 -0.1278
 1178BOLB   C3B28259  20.249  19.921  35.870  0.1598 -0.0061  0.2835
 1178BOLB   C4B28260  20.034  20.270  35.945  0.1212  0.2877  0.2356
 1178BOLB   NC228261  20.998  22.333  36.776 -0.0235  0.4003  0.4947
 1178BOLB   PO228262  21.345  22.054  36.577 -0.0642 -0.1898  0.1264
 1178BOLB   GL328263  21.089  21.667  36.426  0.2242 -0.1488 -0.1660
 1178BOLB   GL428264  21.148  21.507  36.709  0.3077 -0.1959  0.0061
 1178BOLB   C1C28265  21.137  21.306  36.191 -0.0520 -0.0431  0.0663
 1178BOLB   C2C28266  20.833  21.074  36.162 -0.0739  0.1681 -0.0988
 1178BOLB   C3C28267  20.683  20.620  36.231  0.0868  0.0145 -0.1432
 1178BOLB   C4C28268  20.430  20.354  36.307 -0.1579 -0.1657 -0.0581
 1178BOLB   C1D28269  20.664  21.472  36.548 -0.1584  0.0114 -0.1190
 1178BOLB   C2D28270  20.428  21.479  36.118 -0.0609  0.1092  0.0988
 1178BOLB   C3D28271  20.067  21.158  36.101  0.0507 -0.2764 -0.0995
 1178BOLB   C4D28272  19.832  20.866  35.864  0.1222  0.0184  0.0016
 1179BOLB   NC128273  16.431  20.459  31.274  0.2026 -0.0837  0.3822
 1179BOLB   PO128274  16.723  20.231  31.570  0.4040  0.3331  0.1576
 1179BOLB   GL128275  16.928  20.587  31.303  0.1209  0.0666  0.1148
 1179BOLB   GL228276  16.722  20.869  31.353 -0.0817 -0.0975 -0.0259
 1179BOLB   C1A28277  17.291  20.900  31.175  0.0507  0.0923  0.0023
 1179BOLB   C2A28278  17.240  21.337  31.048  0.2363  0.0238  0.2131
 1179BOLB   C3A28279  17.185  21.773  30.914  0.1079  0.0471  0.0546
 1179BOLB   C4A28280  16.911  22.063  30.618 -0.0674  0.1220 -0.2158
 1179BOLB   C1B28281  16.940  21.154  31.374  0.1851 -0.1237 -0.2530
 1179BOLB   C2B28282  16.934  21.555  31.528 -0.1055  0.1447 -0.2215
 1179BOLB   C3B28283  17.168  21.886  31.360 -0.0140  0.3373  0.2955
 1179BOLB   C4B28284  17.400  22.231  31.352 -0.1846 -0.0880 -0.2080
 1179BOLB   NC228285  17.526  24.860  30.748 -0.4186 -0.0616 -0.2946
 1179BOLB   PO228286  17.479  24.736  31.105 -0.1171 -0.2374  0.1042
 1179BOLB   GL328287  17.251  24.376  30.958  0.0071 -0.0468  0.1301
 1179BOLB   GL428288  17.320  24.389  30.668 -0.2161  0.5218  0.2098
 1179BOLB   C1C28289  17.117  23.843  31.069 -0.2056 -0.0644 -0.1334
 1179BOLB   C2C28290  17.225  23.442  30.891  0.4437  0.1044 -0.0882
 1179BOLB   C3C28291  17.072  22.933  30.737 -0.1736 -0.0325 -0.0294
 1179BOLB   C4C28292  16.905  22.519  30.555  0.4130 -0.0423  0.0880
 1179BOLB   C1D28293  17.638  23.982  30.872  0.0050  0.0602 -0.0090
 1179BOLB   C2D28294  17.842  23.605  31.084  0.1122 -0.0506  0.0914
 1179BOLB   C3D28295  17.743  23.128  31.182  0.3107  0.4494 -0.3047
 1179BOLB   C4D28296  17.656  22.659  31.192  0.1761 -0.1633  0.3231
 1180BOLB   NC128297  21.687   7.801  23.807 -0.0009  0.2807  0.1740
 1180BOLB   PO128298  21.995   7.995  23.643  0.3174 -0.0369  0.0493
 1180BOLB   GL128299  21.965   7.760  23.296  0.4366  0.1416 -0.1411
 1180BOLB   GL228300  22.117   7.932  23.092  0.4183 -0.0173  0.1674
 1180BOLB   C1A28301  21.834   7.392  23.003 -0.0202  0.0058 -0.2933
 1180BOLB   C2A28302  21.887   7.373  22.501 -0.0507  0.1101 -0.2974
 1180BOLB   C3A28303  22.159   7.173  22.185  0.1646 -0.1623  0.1104
 1180BOLB   C4A28304  22.492   6.968  22.067  0.0019 -0.0728  0.0055
 1180BOLB   C1B28305  22.302   7.588  22.882 -0.0334  0.0185  0.1437
 1180BOLB   C2B28306  22.322   7.236  22.669  0.1050 -0.1320 -0.2784
 1180BOLB   C3B28307  22.587   6.967  22.655  0.0770 -0.0216  0.0431
 1180BOLB   C4B28308  22.435   6.536  22.467 -0.1214  0.0373  0.3305
 1180BOLB   NC228309  24.377   5.830  21.316 -0.1163 -0.0795 -0.1765
 1180BOLB   PO228310  24.494   5.699  21.668 -0.2206 -0.3228  0.1719
 1180BOLB   GL328311  24.342   5.968  22.016  0.2295  0.0092  0.2354
 1180BOLB   GL428312  23.968   5.890  21.843  0.0035 -0.3097  0.0214
 1180BOLB   C1C28313  24.127   6.234  22.307  0.2646  0.0109  0.0868
 1180BOLB   C2C28314  23.833   6.561  22.289  0.1378  0.2013  0.0961
 1180BOLB   C3C28315  23.379   6.641  22.139  0.0226  0.1289 -0.0752
 1180BOLB   C4C28316  22.896   6.708  22.069 -0.2127 -0.0195 -0.3147
 1180BOLB   C1D28317  23.816   5.833  22.223 -0.1788  0.0384  0.0707
 1180BOLB   C2D28318  23.665   6.148  22.505 -0.0713  0.0711 -0.2923
 1180BOLB   C3D28319  23.444   6.552  22.601 -0.0292 -0.0184  0.1186
 1180BOLB   C4D28320  23.298   7.069  22.699 -0.1335 -0.1456 -0.0217
 1181BOLB   NC128321  19.067  19.104  33.960  0.2654 -0.1832  0.0653
 1181BOLB   PO128322  19.352  18.947  33.785 -0.3861 -0.2741  0.0760
 1181BOLB   GL128323  19.439  19.427  33.782  0.1165  0.1524  0.0066
 1181BOLB   GL228324  19.527  19.492  33.440  0.1451  0.0437  0.0679
 1181BOLB   C1A28325  19.410  19.818  33.911  0.2965 -0.2383 -0.2338
 1181BOLB   C2A28326  19.486  20.013  34.319  0.0971 -0.0600  0.1303
 1181BOLB   C3A28327  19.418  20.388  34.481 -0.0083  0.0055  0.0595
 1181BOLB   C4A28328  19.512  20.786  34.858  0.1487  0.2439 -0.3098
 1181BOLB   C1B28329  19.514  19.874  33.432 -0.3158 -0.3246  0.0151
 1181BOLB   C2B28330  19.393  20.301  33.556 -0.0254 -0.1669  0.0380
 1181BOLB   C3B28331  19.784  20.600  33.551  0.0557 -0.0013 -0.1017
 1181BOLB   C4B28332  20.134  20.840  33.570  0.0462  0.1482 -0.0135
 1181BOLB   NC228333  21.000  23.075  35.831  0.2108 -0.0485 -0.2019
 1181BOLB   PO228334  21.209  22.675  35.631  0.2291 -0.0788 -0.4513
 1181BOLB   GL328335  21.047  22.146  35.771 -0.0681  0.1760  0.3630
 1181BOLB   GL428336  21.163  22.020  36.026 -0.1500  0.2112 -0.1388
 1181BOLB   C1C28337  20.557  21.987  35.734 -0.1404  0.2100 -0.0852
 1181BOLB   C2C28338  20.343  21.594  35.516  0.0316 -0.0758 -0.0570
 1181BOLB   C3C28339  19.993  21.217  35.464  0.1573  0.2933  0.0718
 1181BOLB   C4C28340  19.664  20.986  35.236 -0.3414  0.1333  0.4370
 1181BOLB   C1D28341  20.926  21.717  35.967 -0.2283  0.1302 -0.2354
 1181BOLB   C2D28342  20.745  21.337  35.760  0.3373 -0.3090 -0.0743
 1181BOLB   C3D28343  20.390  21.075  35.754  0.3223 -0.1649  0.0143
 1181BOLB   C4D28344  20.309  20.686  35.861 -0.0197 -0.1436  0.0131
 1182BOLB   NC128345  13.180  16.310  38.322 -0.0311 -0.0520 -0.1756
 1182BOLB   PO128346  13.110  16.067  38.652  0.1624 -0.0111 -0.0645
 1182BOLB   GL128347  13.051  16.205  39.169  0.0886  0.2005 -0.1826
 1182BOLB   GL228348  12.779  16.162  39.186 -0.0588  0.1989 -0.1273
 1182BOLB   C1A28349  13.183  16.430  39.528 -0.1291 -0.0805  0.0304
 1182BOLB   C2A28350  13.074  16.540  39.940  0.0380  0.1760 -0.0645
 1182BOLB   C3A28351  12.850  16.422  40.282  0.0725  0.1150  0.1944
 1182BOLB   C4A28352  12.816  16.738  40.687  0.0863  0.0699  0.1898
 1182BOLB   C1B28353  12.770  16.603  39.305 -0.0742 -0.1936  0.2435
 1182BOLB   C2B28354  13.047  16.940  39.523 -0.0337 -0.1594  0.2679
 1182BOLB   C3B28355  13.029  17.049  40.029 -0.0434 -0.1058 -0.0402
 1182BOLB   C4B28356  12.917  16.955  40.265  0.3468 -0.1001 -0.0873
 1182BOLB   NC228357  12.180  17.576  42.267 -0.0962  0.0376 -0.2437
 1182BOLB   PO228358  12.281  18.000  42.283  0.0829  0.3497  0.2658
 1182BOLB   GL328359  12.593  17.945  41.897  0.0901  0.0418  0.0925
 1182BOLB   GL428360  12.984  18.050  41.827  0.0143  0.1792  0.1898
 1182BOLB   C1C28361  12.549  17.986  41.406 -0.0497 -0.1339  0.0609
 1182BOLB   C2C28362  12.542  17.972  40.903 -0.0983  0.1499  0.2895
 1182BOLB   C3C28363  12.552  17.560  40.693  0.0059  0.2334 -0.3015
 1182BOLB   C4C28364  12.715  17.160  40.637 -0.2870 -0.4939  0.0447
 1182BOLB   C1D28365  13.049  17.853  41.514  0.1527  0.0325  0.1515
 1182BOLB   C2D28366  13.332  17.885  41.167 -0.3226  0.1503  0.1979
 1182BOLB   C3D28367  13.776  17.840  41.108 -0.1466 -0.0063 -0.1337
 1182BOLB   C4D28368  14.127  17.915  41.260 -0.1310 -0.0178  0.0552
 1183BOLB   NC128369  17.214   5.432  23.448 -0.2563  0.1897 -0.2075
 1183BOLB   PO128370  16.750   5.338  23.472  0.3909 -0.0723  0.0450
 1183BOLB   GL128371  16.662   5.157  23.195 -0.2266 -0.1527  0.1208
 1183BOLB   GL228372  16.342   5.017  23.318  0.1910 -0.1227 -0.0071
 1183BOLB   C1A28373  16.671   4.773  22.906 -0.0789 -0.1414 -0.0495
 1183BOLB   C2A28374  16.775   4.623  22.519  0.1264 -0.0849  0.0188
 1183BOLB   C3A28375  16.722   4.345  22.227  0.0533 -0.0623 -0.1376
 1183BOLB   C4A28376  16.581   4.010  22.155  0.3194 -0.0361  0.0866
 1183BOLB   C1B28377  16.158   4.857  22.940  0.0685 -0.1264 -0.0640
 1183BOLB   C2B28378  15.900   4.697  22.701  0.0897 -0.0123  0.2927
 1183BOLB   C3B28379  15.760   4.469  22.347 -0.2772  0.0781  0.0521
 1183BOLB   C4B28380  15.488   4.278  22.084  0.0130  0.1138 -0.0561
 1183BOLB   NC228381  17.083   2.089  19.908  0.3689  0.1678 -0.1676
 1183BOLB   PO228382  16.901   2.403  20.245 -0.0073 -0.3109  0.1214
 1183BOLB   GL328383  16.719   2.716  20.574  0.2468 -0.0196  0.2350
 1183BOLB   GL428384  17.074   2.715  20.616 -0.0723 -0.0519 -0.0732
 1183BOLB   C1C28385  16.480   2.961  20.872 -0.1815  0.0602  0.1050
 1183BOLB   C2C28386  16.372   3.385  21.142 -0.0174 -0.1396  0.1879
 1183BOLB   C3C28387  16.353   3.636  21.470  0.0576 -0.1370  0.4141
 1183BOLB   C4C28388  16.366   3.923  21.845  0.1143  0.2371 -0.1144
 1183BOLB   C1D28389  16.829   2.673  21.082 -0.0164 -0.2916 -0.2498
 1183BOLB   C2D28390  16.563   2.845  21.361  0.1414 -0.0716  0.0808
 1183BOLB   C3D28391  16.654   3.096  21.624  0.3404 -0.2077  0.0142
 1183BOLB   C4D28392  16.992   3.090  21.880 -0.0962  0.2177  0.3429
 1184BOLB   NC128393  16.375  10.000  39.416  0.1229  0.0800 -0.0569
 1184BOLB   PO128394  16.026   9.812  39.425 -0.0778  0.1284 -0.0607
 1184BOLB   GL128395  16.251   9.631  39.851  0.0467  0.1061  0.1449
 1184BOLB   GL228396  16.333   9.325  39.825  0.4186 -0.0329 -0.1925
 1184BOLB   C1A28397  16.227   9.439  40.279 -0.0138 -0.0532  0.3932
 1184BOLB   C2A28398  16.363   9.084  40.646  0.0043  0.0937  0.3480
 1184BOLB   C3A28399  16.625   9.176  41.011 -0.1390  0.3968  0.1085
 1184BOLB   C4A28400  16.671   9.208  41.338 -0.1199  0.0299  0.3046
 1184BOLB   C1B28401  16.545   9.100  40.142  0.2019  0.0156 -0.0983
 1184BOLB   C2B28402  16.850   8.934  40.406  0.2731  0.0279 -0.1218
 1184BOLB   C3B28403  16.851   8.730  40.763  0.2109  0.2771  0.0852
 1184BOLB   C4B28404  16.939   8.745  41.134  0.1509  0.4108  0.0081
 1184BOLB   NC228405  16.734   9.260  44.218 -0.1533  0.0409 -0.0988
 1184BOLB   PO228406  16.667   9.370  43.794 -0.1190 -0.2685  0.2561
 1184BOLB   GL328407  16.924   9.266  43.360  0.1138 -0.0370  0.1841
 1184BOLB   GL428408  16.955   9.079  43.237 -0.0659 -0.0807 -0.1958
 1184BOLB   C1C28409  17.033   9.509  43.010 -0.2659 -0.1265 -0.1594
 1184BOLB   C2C28410  16.988   9.535  42.593 -0.1551 -0.2764 -0.0171
 1184BOLB   C3C28411  17.097   9.281  42.123 -0.0085  0.2784 -0.0028
 1184BOLB   C4C28412  17.014   9.192  41.629  0.1600 -0.2851 -0.1365
 1184BOLB   C1D28413  16.897   9.066  42.836  0.0793  0.0943  0.1609
 1184BOLB   C2D28414  16.839   8.988  42.386 -0.2059 -0.0848  0.1114
 1184BOLB   C3D28415  16.548   8.960  42.065  0.0953  0.1486  0.3943
 1184BOLB   C4D28416  16.263   9.229  41.766  0.2285  0.2243  0.1651
 1185BOLB   NC128417   7.532  13.376  31.894 -0.0419  0.2276 -0.0447
 1185BOLB   PO128418   7.862  13.414  32.260  0.2654 -0.2600  0.1588
 1185BOLB   GL128419   7.372  13.660  32.381  0.0356  0.1000  0.0448
 1185BOLB   GL228420   7.195  13.434  32.397  0.0058  0.0026  0.0992
 1185BOLB   C1A28421   7.008  13.753  32.069 -0.1270 -0.1209 -0.3312
 1185BOLB   C2A28422   6.521  13.646  32.055  0.1494  0.1378 -0.1444
 1185BOLB   C3A28423   6.107  13.701  32.291  0.1542  0.1266 -0.0768
 1185BOLB   C4A28424   5.673  13.709  32.240 -0.2053  0.0679 -0.1456
 1185BOLB   C1B28425   6.789  13.460  32.465 -0.2590  0.0475  0.0545
 1185BOLB   C2B28426   6.444  13.174  32.677 -0.0616  0.0143 -0.2184
 1185BOLB   C3B28427   6.368  13.092  33.101 -0.2253  0.1563 -0.0237
 1185BOLB   C4B28428   6.543  12.823  33.393  0.0216  0.1119 -0.4954
 1185BOLB   NC228429   3.600  13.906  31.380 -0.0059  0.1875  0.4239
 1185BOLB   PO228430   3.594  14.248  31.582 -0.0542 -0.0981 -0.1966
 1185BOLB   GL328431   3.983  14.117  31.696 -0.0535 -0.3719 -0.2845
 1185BOLB   GL428432   4.015  14.353  31.894  0.1063 -0.0825  0.1283
 1185BOLB   C1C28433   4.285  13.905  31.503 -0.0065 -0.4075 -0.3234
 1185BOLB   C2C28434   4.567  13.565  31.567 -0.1602  0.2626 -0.4238
 1185BOLB   C3C28435   4.960  13.597  31.782  0.0721 -0.0191  0.0027
 1185BOLB   C4C28436   5.357  13.563  31.933  0.0287  0.1905  0.3358
 1185BOLB   C1D28437   4.452  14.167  31.853 -0.0046 -0.1806  0.0617
 1185BOLB   C2D28438   4.777  14.036  31.664 -0.0574  0.2748 -0.2247
 1185BOLB   C3D28439   4.735  13.955  31.241 -0.0414  0.3139 -0.0695
 1185BOLB   C4D28440   4.667  13.725  30.872  0.1163 -0.2706 -0.0165
 1186BOLB   NC128441  16.025  20.430  30.516  0.1695 -0.0137  0.0499
 1186BOLB   PO128442  15.970  20.445  31.036  0.0365  0.0878  0.1276
 1186BOLB   GL128443  16.189  20.827  30.935 -0.3308 -0.1126 -0.0896
 1186BOLB   GL228444  16.611  20.743  30.891  0.2964 -0.0876 -0.1327
 1186BOLB   C1A28445  16.511  21.191  31.076  0.0594 -0.0854 -0.2474
 1186BOLB   C2A28446  16.647  21.499  31.146 -0.2365 -0.3072 -0.0755
 1186BOLB   C3A28447  16.738  21.966  31.080  0.2276  0.1067 -0.1427
 1186BOLB   C4A28448  17.030  22.301  31.024  0.1535 -0.0592 -0.2239
 1186BOLB   C1B28449  16.873  21.100  30.782 -0.1448 -0.1569  0.1370
 1186BOLB   C2B28450  16.948  21.442  30.540  0.0885 -0.1636  0.4138
 1186BOLB   C3B28451  17.065  21.593  30.229  0.0307 -0.2046  0.3566
 1186BOLB   C4B28452  17.283  21.902  30.018  0.4583 -0.1874 -0.1017
 1186BOLB   NC228453  17.391  25.128  31.662  0.0796 -0.1073 -0.1271
 1186BOLB   PO228454  17.649  24.831  31.576  0.0323 -0.0079  0.0478
 1186BOLB   GL328455  17.550  24.426  31.429 -0.0695 -0.0457  0.2025
 1186BOLB   GL428456  17.427  24.242  31.739 -0.1289 -0.5171 -0.4234
 1186BOLB   C1C28457  17.552  23.945  31.345  0.1397 -0.0172 -0.0166
 1186BOLB   C2C28458  17.436  23.449  31.376 -0.2283  0.1022  0.0933
 1186BOLB   C3C28459  17.250  23.090  31.247  0.4283 -0.2575 -0.3010
 1186BOLB   C4C28460  17.101  22.669  31.186 -0.1326  0.3549  0.1471
 1186BOLB   C1D28461  17.102  24.216  31.459 -0.0944  0.2333  0.0877
 1186BOLB   C2D28462  16.811  24.007  31.548 -0.0058 -0.3952  0.0921
 1186BOLB   C3D28463  16.635  23.700  31.636 -0.0243 -0.1240 -0.2313
 1186BOLB   C4D28464  16.949  23.445  31.402 -0.2688 -0.0150 -0.2028
 1187BOLB   NC128465  21.409   6.613  32.130 -0.1510 -0.0967  0.0165
 1187BOLB   PO128466  21.546   6.222  31.919  0.0422  0.1568 -0.2066
 1187BOLB   GL128467  21.998   6.157  31.699  0.3156 -0.1654 -0.1618
 1187BOLB   GL228468  22.217   6.458  31.775  0.0056 -0.0361  0.0005
 1187BOLB   C1A28469  22.418   5.976  31.758 -0.0979  0.5082 -0.1655
 1187BOLB   C2A28470  22.786   5.923  31.932 -0.4817 -0.1933 -0.3228
 1187BOLB   C3A28471  23.186   5.914  32.082  0.2221 -0.3974 -0.0433
 1187BOLB   C4A28472  23.545   5.664  32.311 -0.2092  0.0175  0.0527
 1187BOLB   C1B28473  22.581   6.609  31.821 -0.3054 -0.0469 -0.1643
 1187BOLB   C2B28474  23.105   6.462  31.802 -0.3024 -0.1633  0.0033
 1187BOLB   C3B28475  23.437   6.276  31.864  0.1160  0.0707 -0.2741
 1187BOLB   C4B28476  23.726   5.890  31.840 -0.0788 -0.0452  0.0576
 1187BOLB   NC228477  25.488   4.551  33.448  0.1629 -0.0950 -0.0638
 1187BOLB   PO228478  25.094   4.469  33.290  0.2094 -0.1729  0.1790
 1187BOLB   GL328479  24.707   4.674  33.399  0.2149  0.1405 -0.0021
 1187BOLB   GL428480  24.848   4.993  33.419  0.0657 -0.0392  0.2431
 1187BOLB   C1C28481  24.435   4.834  33.143 -0.1115 -0.0739  0.2977
 1187BOLB   C2C28482  24.108   4.986  32.939 -0.2082 -0.1126  0.1019
 1187BOLB   C3C28483  23.798   5.303  32.911 -0.0132  0.0612  0.1638
 1187BOLB   C4C28484  23.760   5.615  32.674 -0.1509 -0.0651 -0.0230
 1187BOLB   C1D28485  24.649   5.347  33.313  0.0496  0.1009 -0.0207
 1187BOLB   C2D28486  24.336   5.581  33.258 -0.1960  0.1047 -0.0471
 1187BOLB   C3D28487  24.189   5.598  32.945  0.2051 -0.3091 -0.0913
 1187BOLB   C4D28488  24.017   6.045  32.703  0.0584 -0.5295  0.5012
 1188BOLB   NC128489  12.279   8.384  23.461 -0.0966 -0.1923 -0.1053
 1188BOLB   PO128490  12.096   8.745  23.161  0.0374  0.1914 -0.1618
 1188BOLB   GL128491  11.667   8.514  23.225 -0.3702 -0.2853 -0.2046
 1188BOLB   GL228492  11.449   8.798  23.267 -0.3006  0.3565  0.0163
 1188BOLB   C1A28493  11.568   8.174  23.207  0.0996  0.0391  0.2487
 1188BOLB   C2A28494  11.192   7.995  22.997 -0.1108 -0.1472  0.0495
 1188BOLB   C3A28495  11.117   7.549  22.886  0.4964  0.4739  0.0537
 1188BOLB   C4A28496  10.883   7.651  22.545  0.3527  0.1660  0.1784
 1188BOLB   C1B28497  11.130   8.564  23.105 -0.0573  0.2586  0.1032
 1188BOLB   C2B28498  10.702   8.281  22.956 -0.3282  0.0290  0.0497
 1188BOLB   C3B28499  10.335   8.064  22.779  0.0418  0.0402  0.3798
 1188BOLB   C4B28500  10.029   7.869  22.431  0.5278  0.0945  0.2405
 1188BOLB   NC228501   9.367   7.037  20.626  0.0331  0.3601 -0.0173
 1188BOLB   PO228502   9.722   6.884  20.399 -0.3471 -0.0492 -0.0806
 1188BOLB   GL328503   9.982   7.115  20.692  0.1403  0.0836 -0.2640
 1188BOLB   GL428504   9.729   7.072  20.984 -0.1453  0.0128  0.0309
 1188BOLB   C1C28505  10.265   7.296  20.973  0.1188  0.0824 -0.1927
 1188BOLB   C2C28506  10.422   7.271  21.390 -0.1285  0.0796 -0.1993
 1188BOLB   C3C28507  10.624   7.617  21.656 -0.0916  0.2612 -0.0025
 1188BOLB   C4C28508  10.749   7.801  22.038 -0.3090 -0.1767 -0.0151
 1188BOLB   C1D28509   9.654   7.303  21.400  0.0346  0.2767 -0.1799
 1188BOLB   C2D28510   9.816   7.522  21.692  0.2549 -0.0042  0.2086
 1188BOLB   C3D28511  10.119   7.634  21.982 -0.0233 -0.0844 -0.0409
 1188BOLB   C4D28512  10.398   7.510  22.371 -0.0102 -0.6038 -0.1449
 1189BOLB   NC128513   7.452   4.024  32.131 -0.1766 -0.0934 -0.1846
 1189BOLB   PO128514   7.343   4.384  31.954  0.2589  0.0600 -0.0995
 1189BOLB   GL128515   7.647   4.786  32.119  0.1938  0.0992 -0.0514
 1189BOLB   GL228516   7.461   4.945  32.469 -0.0224  0.2882  0.3180
 1189BOLB   C1A28517   7.870   5.219  32.207 -0.2404 -0.0439  0.0217
 1189BOLB   C2A28518   8.115   5.520  32.053 -0.0094 -0.0015 -0.0535
 1189BOLB   C3A28519   8.000   5.733  31.682  0.0173 -0.0809  0.0488
 1189BOLB   C4A28520   7.931   5.968  31.339  0.0248  0.2204 -0.0596
 1189BOLB   C1B28521   7.836   4.965  32.696 -0.4553 -0.2693 -0.1648
 1189BOLB   C2B28522   8.248   5.142  32.631  0.0701  0.3512  0.0750
 1189BOLB   C3B28523   8.455   5.208  32.306  0.2034 -0.1486  0.2805
 1189BOLB   C4B28524   8.595   5.598  32.042  0.1930 -0.1449 -0.1757
 1189BOLB   NC228525   6.096   3.889  31.124 -0.0721 -0.3651 -0.0481
 1189BOLB   PO228526   6.301   4.281  31.015 -0.1985  0.0600  0.0504
 1189BOLB   GL328527   6.710   4.480  30.838  0.1757  0.0221 -0.0555
 1189BOLB   GL428528   6.596   4.595  30.572 -0.0857 -0.0220  0.0149
 1189BOLB   C1C28529   6.982   4.876  30.853 -0.1149  0.0239  0.1650
 1189BOLB   C2C28530   7.215   5.274  30.823 -0.1260  0.0628 -0.4435
 1189BOLB   C3C28531   7.362   5.638  30.862  0.0103  0.0050  0.1365
 1189BOLB   C4C28532   7.647   6.013  31.067  0.1835 -0.2567 -0.1280
 1189BOLB   C1D28533   6.725   5.033  30.402  0.3289 -0.0378  0.0809
 1189BOLB   C2D28534   7.101   5.406  30.372  0.3055  0.1490  0.1113
 1189BOLB   C3D28535   7.523   5.430  30.404  0.2376 -0.1126  0.1672
 1189BOLB   C4D28536   7.725   5.752  30.542  0.0980  0.2928 -0.2284
 1190BOLB   NC128537  20.787  16.251  36.339 -0.2684 -0.3829 -0.2218
 1190BOLB   PO128538  21.030  16.426  36.548  0.0586 -0.2308 -0.1491
 1190BOLB   GL128539  20.994  16.796  36.780  0.1791  0.0420  0.0929
 1190BOLB   GL228540  20.794  16.893  37.089  0.0640 -0.1655  0.4000
 1190BOLB   C1A28541  21.211  17.229  36.901 -0.1126 -0.1651 -0.0312
 1190BOLB   C2A28542  21.452  17.485  37.194 -0.2311  0.1715  0.0343
 1190BOLB   C3A28543  21.791  17.501  37.481  0.3860  0.1877 -0.2479
 1190BOLB   C4A28544  21.982  17.138  37.720  0.0343 -0.0867  0.0852
 1190BOLB   C1B28545  20.962  17.168  37.330 -0.2895 -0.1853  0.0100
 1190BOLB   C2B28546  20.760  17.445  37.629  0.2383 -0.0797  0.3741
 1190BOLB   C3B28547  20.816  17.815  37.838 -0.1398  0.1478 -0.0639
 1190BOLB   C4B28548  20.561  18.168  37.865  0.0689  0.0851  0.0415
 1190BOLB   NC228549  23.749  17.594  39.947  0.0173 -0.1028  0.1339
 1190BOLB   PO228550  23.433  17.513  39.708  0.0053  0.1274  0.0388
 1190BOLB   GL328551  23.224  17.420  39.313 -0.0497 -0.0609 -0.2366
 1190BOLB   GL428552  23.471  17.310  39.070 -0.0826 -0.1697  0.0702
 1190BOLB   C1C28553  22.874  17.380  39.005  0.3682 -0.0854 -0.5133
 1190BOLB   C2C28554  22.567  17.119  38.711  0.0020  0.0174  0.1868
 1190BOLB   C3C28555  22.313  17.265  38.558  0.0353  0.2272 -0.1160
 1190BOLB   C4C28556  22.199  17.276  38.088  0.3064  0.2477 -0.2887
 1190BOLB   C1D28557  23.193  17.323  38.640 -0.0148 -0.0434 -0.1552
 1190BOLB   C2D28558  22.822  17.334  38.358  0.0447  0.0084 -0.3351
 1190BOLB   C3D28559  22.668  17.434  38.055  0.0229 -0.0707  0.1073
 1190BOLB   C4D28560  22.749  17.714  37.703  0.2723 -0.2785  0.0389
 1191BOLB   NC128561  22.798  12.997  26.950 -0.2641 -0.1027  0.1280
 1191BOLB   PO128562  22.937  12.992  27.332  0.4828 -0.0158 -0.0142
 1191BOLB   GL128563  23.326  13.084  27.272 -0.0282 -0.1111  0.1516
 1191BOLB   GL228564  23.405  13.087  26.932 -0.0842 -0.1432  0.0531
 1191BOLB   C1A28565  23.673  13.458  27.226 -0.0094  0.0776 -0.1560
 1191BOLB   C2A28566  24.063  13.606  26.941 -0.1372  0.0602 -0.0490
 1191BOLB   C3A28567  24.420  13.523  26.645  0.1155 -0.1341 -0.1004
 1191BOLB   C4A28568  24.804  13.304  26.663  0.2235 -0.0140  0.3083
 1191BOLB   C1B28569  23.872  13.102  26.939  0.1690 -0.1238 -0.0003
 1191BOLB   C2B28570  24.237  12.944  27.093 -0.2073  0.4843  0.4777
 1191BOLB   C3B28571  24.664  12.910  27.008  0.0860 -0.0220 -0.0259
 1191BOLB   C4B28572  24.911  13.067  27.217  0.1998  0.1716  0.2785
 1191BOLB   NC228573   0.147  13.369  27.021 -0.0541  0.1804 -0.2392
 1191BOLB   PO228574  27.024  13.774  26.800  0.2839  0.2948 -0.1023
 1191BOLB   GL328575  26.651  13.872  26.861 -0.0901 -0.2936 -0.2102
 1191BOLB   GL428576  26.567  14.139  27.042  0.0766 -0.2511  0.3262
 1191BOLB   C1C28577  26.209  13.694  26.779 -0.0621 -0.2476 -0.2124
 1191BOLB   C2C28578  25.831  13.681  26.613  0.0418 -0.1265 -0.0352
 1191BOLB   C3C28579  25.514  13.481  26.712 -0.0843  0.0180  0.1685
 1191BOLB   C4C28580  25.240  13.176  26.819 -0.0292  0.1619  0.1339
 1191BOLB   C1D28581  26.225  14.011  27.198  0.2559  0.1864  0.0047
 1191BOLB   C2D28582  25.833  13.722  27.129 -0.0592  0.2363  0.3495
 1191BOLB   C3D28583  25.729  13.315  27.129 -0.0180  0.4398 -0.0366
 1191BOLB   C4D28584  25.454  13.036  27.286  0.0720  0.1332 -0.0288
 1192BOLB   NC128585   9.553  19.429  31.304  0.2853 -0.0263 -0.0247
 1192BOLB   PO128586   9.741  19.380  31.665  0.4973  0.0848  0.2222
 1192BOLB   GL128587   9.495  19.748  31.838 -0.4241  0.3539  0.0564
 1192BOLB   GL228588   9.661  19.969  32.103 -0.3742 -0.0260  0.1558
 1192BOLB   C1A28589   9.165  19.914  32.072  0.5081 -0.2444 -0.0385
 1192BOLB   C2A28590   8.892  20.264  32.192 -0.0817  0.0891 -0.1137
 1192BOLB   C3A28591   8.472  20.442  32.235 -0.2732 -0.1442 -0.1197
 1192BOLB   C4A28592   8.155  20.534  32.478 -0.0004  0.2637 -0.3475
 1192BOLB   C1B28593   9.391  20.326  32.093 -0.0478  0.1805 -0.0418
 1192BOLB   C2B28594   9.258  20.748  32.163  0.1293 -0.1539  0.0904
 1192BOLB   C3B28595   9.151  21.204  32.223  0.1524 -0.0060  0.0421
 1192BOLB   C4B28596   8.852  21.368  32.459 -0.1986  0.1022  0.2040
 1192BOLB   NC228597   6.976  22.486  32.748 -0.0875  0.0173 -0.1264
 1192BOLB   PO228598   6.661  22.382  33.126  0.1093 -0.0765  0.0891
 1192BOLB   GL328599   7.098  22.175  33.150  0.0243 -0.1352  0.0180
 1192BOLB   GL428600   7.390  22.301  33.497 -0.1664 -0.1346 -0.0393
 1192BOLB   C1C28601   7.501  21.847  32.920  0.0053  0.0507  0.1158
 1192BOLB   C2C28602   7.626  21.442  32.978  0.0816  0.4660  0.2377
 1192BOLB   C3C28603   7.739  21.056  33.033  0.1181  0.1435 -0.0945
 1192BOLB   C4C28604   7.961  20.705  32.868 -0.1386 -0.1098  0.1246
 1192BOLB   C1D28605   7.675  22.087  33.366 -0.2091  0.0075  0.0708
 1192BOLB   C2D28606   8.028  21.832  33.071  0.1785  0.0651 -0.1424
 1192BOLB   C3D28607   8.186  21.450  32.973  0.0961  0.0286 -0.0619
 1192BOLB   C4D28608   8.235  21.034  33.076  0.2466  0.4138  0.3403
 1193BOLB   NC128609   8.370  17.874  30.083  0.2042 -0.1121 -0.4796
 1193BOLB   PO128610   8.173  17.618  29.778  0.1619 -0.1150  0.1227
 1193BOLB   GL128611   7.927  17.920  29.566  0.3880  0.1437 -0.0747
 1193BOLB   GL228612   7.839  17.740  29.315 -0.0202  0.0605 -0.1525
 1193BOLB   C1A28613   7.882  18.405  29.421 -0.1979  0.0039 -0.4074
 1193BOLB   C2A28614   7.654  18.696  29.311 -0.2456  0.2511 -0.2766
 1193BOLB   C3A28615   7.209  19.029  29.364  0.0320  0.0511 -0.2157
 1193BOLB   C4A28616   6.992  19.165  29.740  0.1047 -0.1003  0.2720
 1193BOLB   C1B28617   7.472  17.714  29.075 -0.1459  0.0611  0.1059
 1193BOLB   C2B28618   7.065  17.808  29.198 -0.0926 -0.1842  0.1725
 1193BOLB   C3B28619   6.874  18.158  29.320 -0.0900  0.1695 -0.0951
 1193BOLB   C4B28620   6.579  18.358  29.213 -0.0747  0.2702  0.0577
 1193BOLB   NC228621   4.863  20.262  28.640  0.1857 -0.0450 -0.0280
 1193BOLB   PO228622   4.926  20.066  28.991  0.0113  0.0855  0.2173
 1193BOLB   GL328623   5.270  19.890  29.114 -0.1038 -0.5095  0.1002
 1193BOLB   GL428624   5.447  20.027  28.833  0.0193 -0.0444  0.1145
 1193BOLB   C1C28625   5.562  19.596  29.361  0.1171 -0.2089 -0.2058
 1193BOLB   C2C28626   5.842  19.525  29.734 -0.0278  0.0161  0.0495
 1193BOLB   C3C28627   6.248  19.309  29.844  0.2416 -0.0995 -0.0761
 1193BOLB   C4C28628   6.565  19.113  29.674 -0.2417  0.0204  0.2040
 1193BOLB   C1D28629   5.888  19.740  28.851 -0.1174 -0.0157 -0.1566
 1193BOLB   C2D28630   6.168  19.477  28.994  0.0472  0.0848  0.0147
 1193BOLB   C3D28631   6.139  19.238  29.367  0.1652  0.1018 -0.1159
 1193BOLB   C4D28632   6.290  18.759  29.448 -0.0891 -0.2891 -0.0516
 1194BOLB   NC128633  12.362   5.423  28.789  0.3130 -0.1499 -0.1042
 1194BOLB   PO128634  12.387   5.185  29.138  0.0635 -0.2895  0.1339
 1194BOLB   GL128635  12.427   4.803  29.250 -0.1517  0.4107 -0.0956
 1194BOLB   GL228636  12.586   4.665  29.034  0.0572 -0.0570  0.1472
 1194BOLB   C1A28637  12.248   4.402  29.492 -0.1845  0.0670 -0.0661
 1194BOLB   C2A28638  12.037   4.001  29.624  0.0096 -0.3679 -0.2166
 1194BOLB   C3A28639  11.998   3.660  29.683  0.4856 -0.2911 -0.1374
 1194BOLB   C4A28640  11.762   3.230  29.748 -0.0727 -0.1058 -0.2768
 1194BOLB   C1B28641  12.488   4.193  29.015  0.1859  0.0017 -0.3313
 1194BOLB   C2B28642  12.126   3.973  29.150  0.0684 -0.3967 -0.0732
 1194BOLB   C3B28643  11.756   3.758  29.303 -0.1636 -0.1910  0.2165
 1194BOLB   C4B28644  11.441   3.505  29.413 -0.0616  0.0999 -0.0487
 1194BOLB   NC228645  11.138   0.599  30.292 -0.3634  0.1885  0.1207
 1194BOLB   PO228646  11.035   0.907  30.612  0.1947 -0.2220  0.0654
 1194BOLB   GL328647  11.250   1.279  30.395  0.1910  0.1269  0.0376
 1194BOLB   GL428648  11.324   1.302  29.948  0.0905 -0.0578  0.0709
 1194BOLB   C1C28649  11.639   1.578  30.187  0.1784 -0.1868  0.1730
 1194BOLB   C2C28650  11.623   2.093  30.031 -0.2893  0.3938  0.1563
 1194BOLB   C3C28651  11.627   2.541  30.001 -0.1446 -0.2710 -0.2310
 1194BOLB   C4C28652  11.564   2.969  30.086 -0.1650  0.0077 -0.0480
 1194BOLB   C1D28653  11.332   1.770  29.738 -0.4013  0.1501 -0.1698
 1194BOLB   C2D28654  11.145   2.162  29.873 -0.0598  0.1161  0.1876
 1194BOLB   C3D28655  11.229   2.542  29.731 -0.0460  0.2998 -0.1092
 1194BOLB   C4D28656  11.197   2.989  29.722 -0.2550  0.0718 -0.1289
 1195BOLB   NC128657   7.857  17.059  30.608 -0.2818  0.1081  0.5021
 1195BOLB   PO128658   7.797  17.385  30.822  0.2806 -0.0184 -0.2006
 1195BOLB   GL128659   7.437  17.455  30.694  0.2005  0.4285 -0.5001
 1195BOLB   GL228660   7.544  17.532  30.418 -0.3352  0.1202 -0.3797
 1195BOLB   C1A28661   6.979  17.652  30.518  0.0573  0.1606 -0.2033
 1195BOLB   C2A28662   6.660  17.685  30.204  0.3566 -0.0449  0.0924
 1195BOLB   C3A28663   6.156  17.858  30.024  0.2456  0.0887  0.0953
 1195BOLB   C4A28664   5.845  17.888  29.999  0.0427 -0.0010 -0.0384
 1195BOLB   C1B28665   7.169  17.632  30.087 -0.1952 -0.0646 -0.3502
 1195BOLB   C2B28666   6.895  17.866  29.806  0.0319 -0.3517  0.0504
 1195BOLB   C3B28667   6.519  18.023  29.620 -0.0972 -0.0046 -0.1393
 1195BOLB   C4B28668   6.163  18.294  29.698 -0.0663 -0.1534 -0.3943
 1195BOLB   NC228669   4.279  19.621  30.710 -0.0645  0.3517  0.1828
 1195BOLB   PO228670   4.346  19.376  31.001  0.0030  0.0869  0.3410
 1195BOLB   GL328671   4.638  19.250  30.695  0.0803  0.0636  0.2157
 1195BOLB   GL428672   4.879  19.449  30.627  0.1573  0.2403 -0.1887
 1195BOLB   C1C28673   4.846  19.028  30.344 -0.2919 -0.1296 -0.0633
 1195BOLB   C2C28674   5.267  18.886  30.254  0.2586 -0.1524  0.2495
 1195BOLB   C3C28675   5.569  18.563  30.163 -0.2918 -0.1255 -0.0164
 1195BOLB   C4C28676   5.663  18.297  29.892  0.2593  0.3447 -0.0612
 1195BOLB   C1D28677   5.322  19.351  30.817 -0.1377 -0.1737 -0.3443
 1195BOLB   C2D28678   5.329  19.049  31.190 -0.0730 -0.0422 -0.0627
 1195BOLB   C3D28679   5.200  19.303  31.581  0.1040 -0.0989  0.0130
 1195BOLB   C4D28680   5.030  19.254  32.039 -0.1297 -0.1107  0.0270
 1196BOLB   NC128681  13.073   5.784  35.094  0.2209  0.0897 -0.0115
 1196BOLB   PO128682  12.575   5.806  35.200  0.1270  0.0879  0.3522
 1196BOLB   GL128683  12.403   5.525  35.324 -0.2983  0.2387  0.1095
 1196BOLB   GL228684  12.102   5.372  35.096  0.1486  0.3123 -0.0508
 1196BOLB   C1A28685  12.534   5.346  35.721  0.1189  0.2400 -0.0887
 1196BOLB   C2A28686  12.221   5.115  35.930  0.1311  0.0179 -0.0389
 1196BOLB   C3A28687  11.836   5.099  36.014  0.0243  0.0061 -0.0661
 1196BOLB   C4A28688  11.504   5.354  36.134 -0.0598 -0.0874 -0.3644
 1196BOLB   C1B28689  11.765   5.083  35.019  0.1484 -0.0061 -0.3253
 1196BOLB   C2B28690  11.437   4.760  35.217 -0.1375 -0.1131  0.0496
 1196BOLB   C3B28691  11.374   4.477  35.628  0.3300 -0.4557 -0.0877
 1196BOLB   C4B28692  11.463   4.123  35.643 -0.0583  0.3825  0.1135
 1196BOLB   NC228693   9.167   4.124  36.822 -0.4162  0.1507 -0.0435
 1196BOLB   PO228694   9.090   4.475  36.831  0.5103 -0.2002  0.3280
 1196BOLB   GL328695   9.556   4.664  37.072  0.1107 -0.0776  0.0056
 1196BOLB   GL428696   9.594   4.650  37.402 -0.1727  0.1391  0.1003
 1196BOLB   C1C28697   9.987   4.885  37.062  0.1577 -0.1908 -0.1390
 1196BOLB   C2C28698  10.378   4.952  36.916 -0.3302 -0.1210  0.1119
 1196BOLB   C3C28699  10.779   4.991  36.689 -0.3465 -0.0959  0.0537
 1196BOLB   C4C28700  11.198   5.142  36.466  0.0682  0.1277 -0.0645
 1196BOLB   C1D28701   9.876   5.071  37.660 -0.0152  0.0136  0.0883
 1196BOLB   C2D28702   9.982   5.301  37.953 -0.0075 -0.1118  0.0062
 1196BOLB   C3D28703  10.139   5.094  38.361  0.1843  0.2632  0.1976
 1196BOLB   C4D28704  10.086   4.650  38.552  0.0032 -0.1208  0.0061
 1197BOLB   NC128705  25.651  18.678  32.393 -0.2672 -0.0369 -0.0810
 1197BOLB   PO128706  25.657  18.875  32.774  0.2770 -0.0971  0.1388
 1197BOLB   GL128707  25.461  18.488  32.841 -0.2728  0.0607  0.0623
 1197BOLB   GL228708  25.161  18.644  32.598  0.0956 -0.1806  0.1852
 1197BOLB   C1A28709  25.346  18.137  32.595 -0.0638 -0.2390  0.2058
 1197BOLB   C2A28710  24.956  18.043  32.364 -0.4440 -0.0209  0.2670
 1197BOLB   C3A28711  24.563  18.066  32.099  0.0534 -0.0031  0.0431
 1197BOLB   C4A28712  24.275  17.715  31.935  0.0285 -0.0839 -0.1390
 1197BOLB   C1B28713  24.853  18.662  32.243  0.0439  0.2464  0.2068
 1197BOLB   C2B28714  24.647  18.448  31.841  0.2184 -0.3039  0.6197
 1197BOLB   C3B28715  24.622  17.976  31.633 -0.3523 -0.0885 -0.0041
 1197BOLB   C4B28716  24.704  17.794  31.301 -0.0365 -0.2018 -0.2150
 1197BOLB   NC228717  25.668  18.716  31.446 -0.2210  0.1512  0.2486
 1197BOLB   PO228718  25.548  18.642  31.012 -0.2008 -0.1571  0.0699
 1197BOLB   GL328719  25.183  18.570  31.151  0.1765 -0.1171  0.1929
 1197BOLB   GL428720  24.935  18.905  30.878 -0.1892  0.0572  0.1632
 1197BOLB   C1C28721  24.735  18.347  31.063  0.2396  0.0148 -0.0698
 1197BOLB   C2C28722  24.529  17.981  30.889 -0.1303  0.0392 -0.0390
 1197BOLB   C3C28723  24.320  17.546  31.070  0.2670 -0.1302  0.2407
 1197BOLB   C4C28724  24.374  17.529  31.532 -0.0243  0.0120 -0.2974
 1197BOLB   C1D28725  24.504  18.800  30.897 -0.2242 -0.1772  0.4183
 1197BOLB   C2D28726  24.228  18.380  30.993  0.1763 -0.2645 -0.0251
 1197BOLB   C3D28727  23.939  18.094  30.955  0.2764 -0.3023  0.1279
 1197BOLB   C4D28728  23.680  17.741  31.001 -0.4850 -0.0780  0.1137
 1198BOLB   NC128729  13.829   4.430  28.824 -0.0474  0.0403 -0.1054
 1198BOLB   PO128730  13.862   4.786  29.071 -0.0628  0.2276  0.0560
 1198BOLB   GL128731  13.489   4.505  29.195  0.0111  0.0150  0.0007
 1198BOLB   GL228732  13.503   4.540  29.480 -0.2763  0.0265  0.0144
 1198BOLB   C1A28733  13.354   4.032  29.172  0.4316 -0.2406 -0.1669
 1198BOLB   C2A28734  13.238   3.589  29.431 -0.1204  0.0298  0.0086
 1198BOLB   C3A28735  13.160   3.233  29.663 -0.5389 -0.2082  0.2544
 1198BOLB   C4A28736  12.876   2.944  29.762 -0.1871  0.1149 -0.1172
 1198BOLB   C1B28737  13.215   4.171  29.680  0.0136  0.0125 -0.0560
 1198BOLB   C2B28738  12.916   3.822  29.680 -0.0435  0.0352  0.2775
 1198BOLB   C3B28739  12.654   3.461  29.703 -0.4339  0.2458 -0.3566
 1198BOLB   C4B28740  12.343   3.265  29.721  0.0358  0.0998  0.1438
 1198BOLB   NC228741  11.888   0.642  30.041 -0.1564 -0.0296 -0.0196
 1198BOLB   PO228742  11.541   0.849  29.984  0.2805  0.2331 -0.2343
 1198BOLB   GL328743  11.793   1.094  29.798 -0.0753  0.0951 -0.2762
 1198BOLB   GL428744  12.078   1.116  30.007  0.0429 -0.1632  0.2864
 1198BOLB   C1C28745  11.925   1.562  29.721 -0.0667  0.3445  0.0131
 1198BOLB   C2C28746  12.373   1.846  29.680 -0.3135 -0.0995 -0.1166
 1198BOLB   C3C28747  12.477   2.272  29.609 -0.1201 -0.0469 -0.2906
 1198BOLB   C4C28748  12.725   2.560  29.621  0.0317 -0.2359 -0.0088
 1198BOLB   C1D28749  12.149   1.599  30.186  0.3517  0.1781 -0.3070
 1198BOLB   C2D28750  12.076   1.953  30.128  0.1111 -0.0046 -0.0055
 1198BOLB   C3D28751  12.133   2.402  29.973  0.3108  0.0867  0.2571
 1198BOLB   C4D28752  12.202   2.787  29.877 -0.0004 -0.3881 -0.0045
 1199BOLB   NC128753  15.664   7.082  37.704 -0.3425 -0.2011  0.1779
 1199BOLB   PO128754  15.376   6.949  37.926 -0.2636 -0.3333 -0.0289
 1199BOLB   GL128755  15.399   6.687  38.216 -0.1717  0.0294 -0.0716
 1199BOLB   GL228756  15.479   6.924  38.459  0.2017 -0.1107  0.0024
 1199BOLB   C1A28757  15.336   6.209  38.132 -0.1578  0.1583  0.0745
 1199BOLB   C2A28758  15.067   5.828  38.131  0.0233 -0.5396  0.1730
 1199BOLB   C3A28759  14.797   5.438  38.373  0.3683  0.1386  0.0045
 1199BOLB   C4A28760  14.611   5.257  38.685 -0.1852  0.1325 -0.0665
 1199BOLB   C1B28761  15.262   6.440  38.637  0.1159 -0.2091 -0.1078
 1199BOLB   C2B28762  15.452   6.151  38.989 -0.2879 -0.2470  0.0766
 1199BOLB   C3B28763  15.144   5.916  39.235  0.1248  0.1149 -0.1331
 1199BOLB   C4B28764  14.810   5.753  39.073  0.2109 -0.1102  0.1610
 1199BOLB   NC228765  14.838   2.983  39.616  0.2823  0.1971  0.3170
 1199BOLB   PO228766  15.133   3.228  39.645 -0.4249 -0.0561  0.0517
 1199BOLB   GL328767  15.043   3.403  39.284 -0.2251  0.2580 -0.2169
 1199BOLB   GL428768  15.374   3.504  39.178  0.4659 -0.0175 -0.0100
 1199BOLB   C1C28769  14.903   3.805  39.236  0.2036 -0.1199 -0.2928
 1199BOLB   C2C28770  14.975   4.096  38.927 -0.1666 -0.0840  0.2138
 1199BOLB   C3C28771  14.829   4.442  38.858 -0.1456  0.5815  0.0002
 1199BOLB   C4C28772  14.695   4.865  38.830 -0.0883  0.0131 -0.3671
 1199BOLB   C1D28773  15.406   3.929  39.161  0.0319 -0.0659  0.0530
 1199BOLB   C2D28774  15.472   4.224  38.916 -0.0730  0.3418 -0.1793
 1199BOLB   C3D28775  15.370   4.531  38.766  0.2138  0.1679 -0.1765
 1199BOLB   C4D28776  15.064   4.730  38.534 -0.2164 -0.0579  0.0436
 1200BOLB   NC128777  17.887   1.449  36.571 -0.0613 -0.2658 -0.0837
 1200BOLB   PO128778  17.622   1.147  36.283 -0.0759 -0.0292  0.0496
 1200BOLB   GL128779  17.624   1.588  36.130  0.1619  0.7012  0.1034
 1200BOLB   GL228780  17.230   1.479  36.062 -0.1278  0.0504  0.0375
 1200BOLB   C1A28781  17.494   1.986  35.862 -0.0340 -0.3071 -0.1482
 1200BOLB   C2A28782  17.378   2.157  35.482 -0.0701  0.2268  0.0507
 1200BOLB   C3A28783  17.239   2.486  35.204 -0.1313 -0.2298  0.0926
 1200BOLB   C4A28784  17.120   2.941  35.063  0.5207  0.1796 -0.4071
 1200BOLB   C1B28785  17.105   1.914  36.177 -0.1932 -0.1616  0.0808
 1200BOLB   C2B28786  17.142   2.339  36.126 -0.1491 -0.0717  0.4457
 1200BOLB   C3B28787  17.169   2.810  36.091  0.5133  0.1179  0.2297
 1200BOLB   C4B28788  17.249   3.338  36.153 -0.1816  0.0918 -0.0990
 1200BOLB   NC228789  16.450   5.370  35.267  0.0610 -0.1279  0.0619
 1200BOLB   PO228790  16.066   5.262  35.259  0.1609  0.2643  0.4571
 1200BOLB   GL328791  16.242   4.884  35.311 -0.1260  0.0587 -0.1381
 1200BOLB   GL428792  16.240   4.799  35.599 -0.1019 -0.0547  0.0213
 1200BOLB   C1C28793  16.332   4.468  35.049  0.4788 -0.2215  0.3758
 1200BOLB   C2C28794  16.496   4.036  34.994 -0.0649 -0.1836  0.3108
 1200BOLB   C3C28795  16.586   3.624  35.064 -0.2214 -0.1883 -0.1858
 1200BOLB   C4C28796  16.944   3.348  35.150 -0.1922  0.1111 -0.3434
 1200BOLB   C1D28797  16.272   4.572  35.972  0.2911 -0.3505 -0.2957
 1200BOLB   C2D28798  16.475   4.614  36.329 -0.1381 -0.3481  0.4054
 1200BOLB   C3D28799  16.695   4.518  36.747 -0.1397 -0.2463 -0.2033
 1200BOLB   C4D28800  16.963   4.366  37.035 -0.0722 -0.0749 -0.3339
 1201BOLB   NC128801  16.330   4.301  29.731  0.0706 -0.3370 -0.1201
 1201BOLB   PO128802  15.993   4.108  29.477  0.2833 -0.2472  0.0419
 1201BOLB   GL128803  15.749   3.808  29.760 -0.1364  0.0859  0.1969
 1201BOLB   GL228804  15.641   3.904  30.075 -0.1342  0.0571 -0.1168
 1201BOLB   C1A28805  15.576   3.390  29.928  0.0904  0.0611 -0.0538
 1201BOLB   C2A28806  15.424   2.928  29.748  0.1913  0.2865 -0.0889
 1201BOLB   C3A28807  15.225   2.593  29.675  0.1025  0.0766  0.0754
 1201BOLB   C4A28808  15.000   2.205  29.487 -0.0281  0.0869 -0.3351
 1201BOLB   C1B28809  15.843   3.590  30.336  0.0827 -0.2018  0.0242
 1201BOLB   C2B28810  15.910   3.116  30.375 -0.1130 -0.0373  0.2449
 1201BOLB   C3B28811  15.692   2.796  30.256  0.2148 -0.0151 -0.0721
 1201BOLB   C4B28812  15.290   2.625  30.245 -0.1073 -0.2438 -0.1300
 1201BOLB   NC228813  14.543  26.764  28.551  0.1811 -0.1471  0.4105
 1201BOLB   PO228814  14.472  27.020  28.885 -0.0760 -0.3747 -0.0643
 1201BOLB   GL328815  14.438   0.378  28.778  0.0442  0.4565  0.0682
 1201BOLB   GL428816  14.737   0.458  28.669 -0.1775 -0.0385  0.0779
 1201BOLB   C1C28817  14.513   0.798  28.960  0.1315 -0.1067  0.0284
 1201BOLB   C2C28818  14.459   1.143  29.139  0.0227 -0.4030 -0.1596
 1201BOLB   C3C28819  14.719   1.516  29.287  0.2066  0.1171 -0.2127
 1201BOLB   C4C28820  14.869   1.802  29.546 -0.0262  0.0001 -0.0708
 1201BOLB   C1D28821  15.016   0.718  28.969  0.2566  0.2995 -0.2689
 1201BOLB   C2D28822  15.341   0.876  29.338  0.2628  0.1655  0.0402
 1201BOLB   C3D28823  15.289   1.023  29.836 -0.0163 -0.0863 -0.0227
 1201BOLB   C4D28824  15.444   1.382  30.106 -0.0120 -0.0271  0.2473
 1202BOLB   NC128825  20.260  17.103  28.627 -0.1667  0.0355  0.0424
 1202BOLB   PO128826  20.711  17.055  28.921  0.3696  0.0656  0.2103
 1202BOLB   GL128827  20.946  17.347  28.863  0.1816  0.3601  0.0698
 1202BOLB   GL228828  20.849  17.679  28.786 -0.0152 -0.2171 -0.1767
 1202BOLB   C1A28829  21.292  17.599  28.957  0.0032  0.0604  0.0569
 1202BOLB   C2A28830  21.562  17.890  28.745  0.2292  0.2013  0.2439
 1202BOLB   C3A28831  21.697  17.949  28.287  0.0159  0.3055 -0.1289
 1202BOLB   C4A28832  21.925  18.317  27.955 -0.2140  0.4106  0.0237
 1202BOLB   C1B28833  21.025  17.934  28.539 -0.0961  0.1187 -0.1513
 1202BOLB   C2B28834  21.255  18.091  28.196 -0.0565 -0.1296 -0.3912
 1202BOLB   C3B28835  21.527  18.415  28.202  0.0165 -0.1400  0.4257
 1202BOLB   C4B28836  21.629  18.789  28.474 -0.1655 -0.0784  0.0456
 1202BOLB   NC228837  24.021  19.112  27.061  0.1251  0.2028 -0.3246
 1202BOLB   PO228838  23.823  19.315  26.771 -0.2507  0.3960 -0.0847
 1202BOLB   GL328839  23.354  19.216  26.865  0.0176 -0.1934  0.0654
 1202BOLB   GL428840  23.369  18.791  26.889  0.2189  0.0333  0.2521
 1202BOLB   C1C28841  23.047  19.071  27.280  0.0481 -0.0924  0.2411
 1202BOLB   C2C28842  22.857  18.886  27.523  0.0235  0.1249  0.0201
 1202BOLB   C3C28843  22.576  18.564  27.507 -0.1005 -0.2045  0.1924
 1202BOLB   C4C28844  22.126  18.368  27.596  0.1219  0.0541 -0.1598
 1202BOLB   C1D28845  23.444  18.585  27.254 -0.1803 -0.2520  0.4479
 1202BOLB   C2D28846  23.211  18.592  27.687  0.1744 -0.3106 -0.0101
 1202BOLB   C3D28847  22.957  18.449  27.891  0.0759 -0.1665 -0.1143
 1202BOLB   C4D28848  22.912  18.332  28.202  0.0342  0.1670  0.4252
 1203BOLB   NC128849   9.353   9.235  32.320 -0.2696 -0.1832  0.0176
 1203BOLB   PO128850   8.993   8.885  32.462  0.0128 -0.0140 -0.1054
 1203BOLB   GL128851   8.646   8.865  32.677  0.2778 -0.0099  0.1834
 1203BOLB   GL228852   8.464   8.903  32.326 -0.1116 -0.1164 -0.1214
 1203BOLB   C1A28853   8.213   8.773  32.856 -0.1936 -0.2227 -0.2715
 1203BOLB   C2A28854   7.885   8.724  33.069  0.1357  0.0445 -0.3405
 1203BOLB   C3A28855   7.751   8.536  33.397 -0.3177  0.0258  0.2006
 1203BOLB   C4A28856   7.543   8.088  33.637 -0.1246 -0.1220  0.0698
 1203BOLB   C1B28857   7.956   8.954  32.172  0.1447  0.4372  0.0378
 1203BOLB   C2B28858   7.564   9.084  31.923  0.1039  0.2586 -0.1679
 1203BOLB   C3B28859   7.156   9.171  31.751 -0.2045  0.3546 -0.0280
 1203BOLB   C4B28860   6.734   9.279  31.813 -0.3914  0.0762 -0.1568
 1203BOLB   NC228861   6.102   6.128  33.364 -0.1129  0.1692 -0.3470
 1203BOLB   PO228862   5.895   6.395  33.457  0.2141  0.2132  0.3341
 1203BOLB   GL328863   6.175   6.660  33.289  0.0692  0.1598  0.0049
 1203BOLB   GL428864   6.518   6.443  33.286 -0.0504 -0.1442 -0.1022
 1203BOLB   C1C28865   6.376   6.958  33.386  0.0838 -0.2381  0.0563
 1203BOLB   C2C28866   6.660   7.268  33.573 -0.2924  0.0166  0.5072
 1203BOLB   C3C28867   7.001   7.499  33.789 -0.0798  0.0334 -0.1805
 1203BOLB   C4C28868   7.364   7.693  33.674  0.0047  0.0848 -0.0012
 1203BOLB   C1D28869   6.780   6.702  33.092 -0.2127 -0.2374  0.2027
 1203BOLB   C2D28870   7.167   6.799  32.888 -0.0171  0.1337  0.0472
 1203BOLB   C3D28871   7.602   6.888  32.922  0.1028  0.0688  0.3049
 1203BOLB   C4D28872   7.982   7.044  33.166  0.1200 -0.0081 -0.3484
 1204BOLB   NC128873  10.696  18.867  34.432 -0.2326  0.1701  0.1071
 1204BOLB   PO128874  10.443  18.583  34.753  0.5649  0.1511 -0.1691
 1204BOLB   GL128875  10.179  18.765  35.121  0.2074 -0.0773  0.3399
 1204BOLB   GL228876   9.946  18.967  34.907  0.0664 -0.0259  0.0192
 1204BOLB   C1A28877   9.956  18.918  35.574  0.2557  0.1210  0.0535
 1204BOLB   C2A28878   9.670  19.004  35.909  0.1016 -0.0628  0.1461
 1204BOLB   C3A28879   9.672  18.909  36.396  0.2678 -0.3801  0.0583
 1204BOLB   C4A28880   9.538  19.013  36.730  0.0729 -0.1714 -0.2382
 1204BOLB   C1B28881   9.764  19.266  34.857  0.1186 -0.0660  0.0592
 1204BOLB   C2B28882   9.606  19.573  35.078  0.0093  0.2755  0.1392
 1204BOLB   C3B28883   9.545  19.941  35.228 -0.0568  0.2683 -0.1412
 1204BOLB   C4B28884   9.336  20.307  35.417  0.0443 -0.0443  0.0133
 1204BOLB   NC228885   8.275  20.626  38.867 -0.0821  0.0801  0.1412
 1204BOLB   PO228886   8.490  20.621  38.402  0.0718  0.1408  0.0296
 1204BOLB   GL328887   8.626  20.203  38.126  0.1972  0.3312 -0.0371
 1204BOLB   GL428888   8.719  20.418  37.954  0.3364  0.2071  0.3022
 1204BOLB   C1C28889   8.740  19.788  37.963  0.1435  0.5136  0.2716
 1204BOLB   C2C28890   8.850  19.538  37.643  0.1222 -0.0083 -0.0965
 1204BOLB   C3C28891   9.055  19.126  37.466 -0.0290 -0.2801  0.2210
 1204BOLB   C4C28892   9.153  19.062  37.046 -0.0396  0.2638 -0.0692
 1204BOLB   C1D28893   8.800  20.113  37.643  0.0209 -0.0003  0.0981
 1204BOLB   C2D28894   8.830  19.852  37.288 -0.2014 -0.1715 -0.1122
 1204BOLB   C3D28895   9.087  19.536  37.153  0.2012 -0.0586  0.3558
 1204BOLB   C4D28896   9.549  19.385  37.114  0.1978 -0.0764 -0.0317
 1205BOLB   NC128897  10.810  20.309  31.733  0.3354  0.1271  0.1304
 1205BOLB   PO128898  11.240  20.369  31.441  0.0217  0.2023 -0.0445
 1205BOLB   GL128899  11.123  20.656  31.673  0.3497 -0.1342  0.2070
 1205BOLB   GL228900  10.863  20.792  31.512  0.1752 -0.0938  0.2079
 1205BOLB   C1A28901  11.194  21.041  31.915  0.0652 -0.0759 -0.0027
 1205BOLB   C2A28902  11.367  21.369  32.194  0.2713  0.1919 -0.1383
 1205BOLB   C3A28903  11.301  21.788  32.380  0.3365 -0.1470 -0.1720
 1205BOLB   C4A28904  11.050  22.135  32.202  0.0670  0.4937  0.0395
 1205BOLB   C1B28905  10.848  21.215  31.569  0.2011  0.0314 -0.1566
 1205BOLB   C2B28906  10.889  21.393  32.005 -0.0861 -0.0060 -0.0042
 1205BOLB   C3B28907  10.765  21.692  32.246  0.0036  0.2008  0.0458
 1205BOLB   C4B28908  10.556  22.042  32.336  0.2320 -0.1330 -0.0722
 1205BOLB   NC228909  10.669  24.610  31.571 -0.2435 -0.1961 -0.2471
 1205BOLB   PO228910  10.291  24.448  31.584  0.1326  0.3404  0.0043
 1205BOLB   GL328911  10.618  23.989  31.630  0.1851 -0.0011 -0.1319
 1205BOLB   GL428912  10.832  24.127  31.801 -0.0774  0.0931 -0.1564
 1205BOLB   C1C28913  10.645  23.635  31.940  0.5266  0.0933  0.0230
 1205BOLB   C2C28914  10.844  23.125  32.028 -0.1650 -0.4208 -0.1825
 1205BOLB   C3C28915  10.874  22.774  31.870 -0.0934  0.3781 -0.0358
 1205BOLB   C4C28916  10.771  22.413  31.985  0.0729 -0.3672 -0.1876
 1205BOLB   C1D28917  11.157  23.753  31.690 -0.0150 -0.3153  0.0815
 1205BOLB   C2D28918  11.210  23.344  31.855 -0.1617 -0.2584  0.1951
 1205BOLB   C3D28919  11.300  22.966  31.966 -0.3133 -0.2478  0.3599
 1205BOLB   C4D28920  11.404  22.678  32.350 -0.1970  0.0152 -0.0917
 1206BOLB   NC128921  12.367   5.734  31.814  0.1646  0.0817 -0.2230
 1206BOLB   PO128922  11.954   5.631  31.937 -0.4932 -0.0235  0.1942
 1206BOLB   GL128923  11.577   5.353  32.166  0.1137 -0.2334 -0.1184
 1206BOLB   GL228924  11.517   5.003  32.272  0.0562 -0.0235  0.2682
 1206BOLB   C1A28925  11.086   5.207  32.369  0.1158  0.0970 -0.0813
 1206BOLB   C2A28926  10.753   4.997  32.567  0.3432 -0.0637  0.0652
 1206BOLB   C3A28927  10.378   4.853  32.726  0.1258 -0.3398 -0.0012
 1206BOLB   C4A28928  10.157   4.615  33.025  0.0148 -0.0998 -0.1928
 1206BOLB   C1B28929  11.604   4.551  32.121 -0.0109 -0.1956 -0.0211
 1206BOLB   C2B28930  11.384   4.142  32.014  0.4235  0.1901 -0.5247
 1206BOLB   C3B28931  11.034   3.943  32.134  0.0727 -0.1695  0.0651
 1206BOLB   C4B28932  10.624   4.054  32.184  0.3966  0.0088 -0.1333
 1206BOLB   NC228933   8.831   3.397  34.450  0.2792 -0.3773 -0.3041
 1206BOLB   PO228934   9.011   3.107  34.286 -0.0769 -0.1010  0.0657
 1206BOLB   GL328935   9.275   3.057  33.965  0.3033 -0.0996 -0.0018
 1206BOLB   GL428936   9.562   2.950  33.878  0.2452  0.1876  0.1375
 1206BOLB   C1C28937   9.216   3.298  33.608  0.1245  0.0507  0.2716
 1206BOLB   C2C28938   9.345   3.738  33.542 -0.4999  0.2434  0.2068
 1206BOLB   C3C28939   9.642   3.981  33.245  0.1083 -0.1771  0.0885
 1206BOLB   C4C28940   9.803   4.452  33.268 -0.3452 -0.1485  0.4206
 1206BOLB   C1D28941   9.967   3.191  33.927 -0.1878 -0.3343 -0.2400
 1206BOLB   C2D28942  10.331   3.343  34.020 -0.1819 -0.2700 -0.0509
 1206BOLB   C3D28943  10.759   3.502  33.968  0.1344  0.0260  0.1941
 1206BOLB   C4D28944  11.016   3.814  33.783 -0.4138  0.3439  0.0504
 1207BOLB   NC128945   9.913   8.780  25.438 -0.1486 -0.4187  0.1430
 1207BOLB   PO128946   9.685   8.946  25.808  0.0372 -0.0650 -0.1219
 1207BOLB   GL128947   9.331   9.110  25.520 -0.0994 -0.2057 -0.1151
 1207BOLB   GL228948   9.321   9.280  25.746 -0.0673 -0.4160 -0.0551
 1207BOLB   C1A28949   9.014   8.855  25.240 -0.3831 -0.1683 -0.0138
 1207BOLB   C2A28950   8.732   8.762  24.960  0.2852 -0.1181 -0.1573
 1207BOLB   C3A28951   8.770   8.606  24.526  0.1236 -0.2293  0.0030
 1207BOLB   C4A28952   8.436   8.505  24.141  0.2358 -0.0374 -0.0640
 1207BOLB   C1B28953   8.877   9.108  25.752 -0.3533  0.1150  0.0558
 1207BOLB   C2B28954   8.636   8.805  25.600 -0.2621 -0.2826  0.1289
 1207BOLB   C3B28955   8.472   8.518  25.367  0.0111 -0.1293  0.1111
 1207BOLB   C4B28956   8.257   8.459  25.033 -0.0232 -0.2124  0.0440
 1207BOLB   NC228957   7.670   7.077  22.310 -0.0565  0.3733 -0.0555
 1207BOLB   PO228958   7.595   7.005  22.760 -0.0451  0.1836 -0.3655
 1207BOLB   GL328959   7.700   7.113  23.150  0.1869 -0.1663  0.3834
 1207BOLB   GL428960   7.727   6.876  23.235  0.3647  0.0638  0.1089
 1207BOLB   C1C28961   7.709   7.421  23.483  0.1027 -0.0336 -0.1047
 1207BOLB   C2C28962   7.596   7.737  23.740 -0.0846 -0.3187  0.3556
 1207BOLB   C3C28963   7.921   8.016  23.951  0.0040 -0.0577  0.2223
 1207BOLB   C4C28964   8.071   8.391  24.019  0.0372 -0.2483  0.0846
 1207BOLB   C1D28965   8.060   7.029  23.460  0.1011  0.1901  0.0640
 1207BOLB   C2D28966   8.476   7.186  23.529 -0.1766 -0.2552  0.4775
 1207BOLB   C3D28967   8.768   7.582  23.557 -0.0865  0.2460 -0.2283
 1207BOLB   C4D28968   8.968   7.669  24.004  0.0676  0.0393  0.0244
 1208BOLB   NC128969  11.966  12.186  21.443 -0.2868  0.4754  0.1557
 1208BOLB   PO128970  12.116  12.488  21.097 -0.0183  0.0402  0.1741
 1208BOLB   GL128971  11.976  12.363  20.758  0.1523  0.0898  0.0812
 1208BOLB   GL228972  12.244  12.548  20.429  0.3005 -0.2081  0.0131
 1208BOLB   C1A28973  11.977  11.970  20.444 -0.2779 -0.2091 -0.0857
 1208BOLB   C2A28974  11.805  11.734  20.176 -0.1497 -0.2863  0.0639
 1208BOLB   C3A28975  11.688  11.823  19.769 -0.0997 -0.2230 -0.1287
 1208BOLB   C4A28976  11.587  12.125  19.447  0.1095 -0.1711 -0.4080
 1208BOLB   C1B28977  11.892  12.389  20.218 -0.1217  0.1058 -0.0129
 1208BOLB   C2B28978  11.994  12.204  19.911 -0.4283 -0.0127  0.0624
 1208BOLB   C3B28979  12.064  12.293  19.455 -0.0811 -0.2039 -0.2215
 1208BOLB   C4B28980  11.986  12.049  19.182  0.0975  0.1345  0.0622
 1208BOLB   NC228981  10.539  10.846  17.953 -0.0071 -0.1258 -0.2582
 1208BOLB   PO228982  10.148  11.175  17.908 -0.3731  0.0893 -0.0237
 1208BOLB   GL328983  10.445  11.253  18.229 -0.2604 -0.2185 -0.1535
 1208BOLB   GL428984  10.770  11.161  18.324 -0.2659 -0.0397  0.1385
 1208BOLB   C1C28985  10.665  11.661  18.350  0.4069 -0.4239 -0.7168
 1208BOLB   C2C28986  10.508  11.957  18.549  0.1583  0.1718 -0.0888
 1208BOLB   C3C28987  10.749  12.080  18.924 -0.0757  0.1657  0.4758
 1208BOLB   C4C28988  11.268  12.200  19.102  0.0065 -0.0143  0.3038
 1208BOLB   C1D28989  11.085  11.297  18.751 -0.1555  0.1129 -0.2288
 1208BOLB   C2D28990  11.359  11.319  19.198 -0.0227 -0.2004 -0.1267
 1208BOLB   C3D28991  11.595  11.401  19.552  0.0297  0.0078 -0.3710
 1208BOLB   C4D28992  11.869  11.364  19.841 -0.0889  0.0835  0.2330
 1209BOLB   NC128993   8.512   8.420  28.625 -0.1097 -0.0922  0.2630
 1209BOLB   PO128994   8.747   8.763  28.919 -0.1617  0.2240  0.0674
 1209BOLB   GL128995   8.416   8.421  29.169 -0.1087 -0.0218  0.2274
 1209BOLB   GL228996   8.400   8.030  29.058 -0.0199 -0.0203 -0.0425
 1209BOLB   C1A28997   7.960   8.253  29.269 -0.0693  0.0165 -0.0358
 1209BOLB   C2A28998   7.591   8.091  29.393  0.1685  0.2010  0.1030
 1209BOLB   C3A28999   7.254   7.888  29.428 -0.3740  0.2147 -0.1189
 1209BOLB   C4A29000   6.906   7.683  29.363 -0.0753  0.1476 -0.1878
 1209BOLB   C1B29001   7.920   7.860  28.946 -0.0787 -0.1691 -0.1415
 1209BOLB   C2B29002   7.631   7.606  28.710 -0.1048 -0.1795 -0.3660
 1209BOLB   C3B29003   7.292   7.572  28.347  0.1000 -0.1829 -0.0246
 1209BOLB   C4B29004   6.976   7.355  28.111 -0.2051  0.3196 -0.1413
 1209BOLB   NC229005   5.185   6.305  28.617  0.1606 -0.1275  0.1592
 1209BOLB   PO229006   5.300   6.102  28.269 -0.4796 -0.1082 -0.0689
 1209BOLB   GL329007   5.549   6.424  28.250  0.0105  0.2312  0.1840
 1209BOLB   GL429008   5.904   6.421  28.141 -0.2874 -0.1453  0.2720
 1209BOLB   C1C29009   5.728   6.734  28.561  0.0301  0.1964 -0.2569
 1209BOLB   C2C29010   6.008   6.806  28.932 -0.2089 -0.2012 -0.3242
 1209BOLB   C3C29011   6.178   7.092  29.293  0.0262  0.0170 -0.0542
 1209BOLB   C4C29012   6.518   7.447  29.270 -0.1175  0.0159  0.2065
 1209BOLB   C1D29013   6.049   6.845  28.091  0.0545  0.4142  0.2293
 1209BOLB   C2D29014   6.410   7.152  28.112 -0.2397  0.1907 -0.1977
 1209BOLB   C3D29015   6.530   7.513  28.308  0.0528 -0.3346  0.0896
 1209BOLB   C4D29016   6.828   7.810  28.400 -0.2229 -0.0205  0.1679
 1210BOLB   NC129017   9.236  17.608  27.979  0.0191 -0.2568  0.0890
 1210BOLB   PO129018   8.761  17.666  27.838  0.0698 -0.1513  0.0432
 1210BOLB   GL129019   8.315  17.711  27.904  0.3399 -0.0141  0.0567
 1210BOLB   GL229020   8.066  17.425  27.826  0.0093  0.1287  0.3586
 1210BOLB   C1A29021   7.979  17.899  28.109 -0.2008  0.0563  0.2844
 1210BOLB   C2A29022   7.535  18.044  27.930  0.2459 -0.1317  0.0054
 1210BOLB   C3A29023   7.071  18.127  28.091  0.1326 -0.1612  0.2259
 1210BOLB   C4A29024   6.718  18.141  28.218 -0.0351  0.1972 -0.2312
 1210BOLB   C1B29025   7.650  17.558  27.882 -0.0426  0.1578 -0.0424
 1210BOLB   C2B29026   7.164  17.612  27.876  0.1165  0.1856  0.0201
 1210BOLB   C3B29027   6.978  17.832  27.559 -0.0353 -0.2191 -0.0849
 1210BOLB   C4B29028   6.751  18.113  27.298 -0.2680  0.3141  0.4033
 1210BOLB   NC229029   4.838  19.433  28.384  0.0030  0.0717  0.0365
 1210BOLB   PO229030   4.481  19.199  28.713 -0.1962  0.2559  0.0747
 1210BOLB   GL329031   4.842  18.860  28.670 -0.0511  0.0302  0.2705
 1210BOLB   GL429032   5.122  19.052  28.695  0.1778 -0.4362 -0.1417
 1210BOLB   C1C29033   5.112  18.585  28.537 -0.0119  0.3230  0.1499
 1210BOLB   C2C29034   5.433  18.319  28.442  0.0621 -0.2901 -0.1487
 1210BOLB   C3C29035   5.852  18.243  28.308 -0.0858 -0.2155 -0.1410
 1210BOLB   C4C29036   6.310  18.214  28.291  0.2995 -0.2421  0.0811
 1210BOLB   C1D29037   5.513  19.006  28.695  0.1006  0.0498  0.2804
 1210BOLB   C2D29038   5.758  18.642  28.660  0.0289 -0.2495  0.3610
 1210BOLB   C3D29039   6.119  18.446  28.737  0.1563 -0.1228 -0.0804
 1210BOLB   C4D29040   6.531  18.520  28.631 -0.0548  0.2546  0.0111
 1211BOLB   NC129041  11.085  14.696  37.929  0.3400 -0.0042  0.0943
 1211BOLB   PO129042  10.693  14.541  37.684  0.0892 -0.0659  0.4072
 1211BOLB   GL129043  10.339  14.723  37.594  0.0796 -0.1647  0.1419
 1211BOLB   GL229044  10.127  14.415  37.660  0.1594  0.0947  0.1517
 1211BOLB   C1A29045  10.016  14.828  37.907  0.1485  0.0022  0.0514
 1211BOLB   C2A29046   9.664  14.808  38.132  0.0217  0.1804 -0.0133
 1211BOLB   C3A29047   9.148  14.897  38.204 -0.0864 -0.1321 -0.0953
 1211BOLB   C4A29048   8.743  14.885  38.373  0.2523  0.1532  0.0662
 1211BOLB   C1B29049   9.897  14.398  38.032 -0.1041  0.3075 -0.0803
 1211BOLB   C2B29050   9.832  13.910  38.305 -0.2474 -0.0779  0.0834
 1211BOLB   C3B29051   9.495  13.879  38.509 -0.1070 -0.2480 -0.2940
 1211BOLB   C4B29052   9.177  14.077  38.747 -0.0854 -0.3855 -0.0025
 1211BOLB   NC229053   7.151  15.600  40.179 -0.0172  0.0757  0.1364
 1211BOLB   PO229054   7.423  15.292  40.271 -0.1301 -0.1084  0.1327
 1211BOLB   GL329055   7.499  15.201  39.899 -0.0033  0.1464 -0.1489
 1211BOLB   GL429056   7.598  15.291  39.724 -0.0050  0.1978 -0.0311
 1211BOLB   C1C29057   7.571  14.788  39.617 -0.1938 -0.1857 -0.2108
 1211BOLB   C2C29058   7.967  14.702  39.306 -0.1616  0.5402  0.0671
 1211BOLB   C3C29059   8.262  14.753  38.935 -0.0001  0.0859  0.0464
 1211BOLB   C4C29060   8.483  14.581  38.689 -0.0993 -0.2661 -0.0091
 1211BOLB   C1D29061   7.768  15.312  39.223 -0.0963 -0.1073 -0.0314
 1211BOLB   C2D29062   7.792  15.372  38.824 -0.1248 -0.0778 -0.4485
 1211BOLB   C3D29063   7.977  15.459  38.446 -0.2790  0.1740 -0.0721
 1211BOLB   C4D29064   8.358  15.332  38.188  0.1331  0.1709 -0.1661
 1212BOLB   NC129065   8.163  10.619  28.459  0.1716 -0.2181  0.1315
 1212BOLB   PO129066   7.712  10.537  28.269 -0.1940 -0.1673  0.0190
 1212BOLB   GL129067   7.405  10.378  28.516  0.0193  0.0294  0.1465
 1212BOLB   GL229068   7.340  10.189  28.770 -0.2775  0.2168  0.2035
 1212BOLB   C1A29069   7.155  10.244  28.346 -0.0454 -0.1612  0.0899
 1212BOLB   C2A29070   6.804   9.978  28.358 -0.0002 -0.0591  0.2865
 1212BOLB   C3A29071   6.485   9.813  28.413 -0.0087 -0.0882  0.0107
 1212BOLB   C4A29072   6.209   9.528  28.614  0.2818  0.1327 -0.2019
 1212BOLB   C1B29073   7.183   9.780  28.687  0.0730  0.2711  0.1600
 1212BOLB   C2B29074   6.985   9.304  28.703 -0.0936  0.1412 -0.0493
 1212BOLB   C3B29075   6.709   8.895  28.619  0.0955 -0.0827  0.0664
 1212BOLB   C4B29076   6.646   8.414  28.561 -0.5464 -0.0209 -0.2938
 1212BOLB   NC229077   3.597   9.596  28.471  0.1482  0.2569 -0.1832
 1212BOLB   PO229078   3.908   9.146  28.450  0.1212 -0.0001  0.2264
 1212BOLB   GL329079   4.360   9.225  28.627  0.0188  0.1793 -0.2720
 1212BOLB   GL429080   4.668   9.379  28.504  0.2426 -0.0644  0.0612
 1212BOLB   C1C29081   4.778   9.101  28.930  0.0000 -0.0658  0.2296
 1212BOLB   C2C29082   5.083   9.170  28.746 -0.2619  0.3811  0.0999
 1212BOLB   C3C29083   5.478   9.257  28.609 -0.2997 -0.0676  0.0441
 1212BOLB   C4C29084   5.905   9.304  28.785  0.2171 -0.1593  0.0608
 1212BOLB   C1D29085   5.001   9.342  28.282  0.2037 -0.0142 -0.1050
 1212BOLB   C2D29086   5.291   9.576  28.305 -0.0508  0.1830 -0.0558
 1212BOLB   C3D29087   5.828   9.514  28.317 -0.2134 -0.0458  0.1220
 1212BOLB   C4D29088   6.145   9.769  28.106 -0.1105  0.1602 -0.0872
 1213BOLB   NC129089  22.454   2.837  36.640 -0.1103  0.1664 -0.0597
 1213BOLB   PO129090  22.074   3.188  36.646  0.1133 -0.1170 -0.4515
 1213BOLB   GL129091  21.696   3.345  36.434  0.2813 -0.0215 -0.2547
 1213BOLB   GL229092  21.735   3.190  36.275 -0.1844 -0.1865  0.0802
 1213BOLB   C1A29093  21.474   3.725  36.332  0.1292 -0.3601 -0.3473
 1213BOLB   C2A29094  21.140   3.971  36.052 -0.0013  0.0115 -0.3482
 1213BOLB   C3A29095  21.093   4.120  35.662 -0.2170  0.2411 -0.0861
 1213BOLB   C4A29096  20.727   4.400  35.457  0.1140 -0.1627  0.0681
 1213BOLB   C1B29097  21.544   3.395  35.925 -0.1013 -0.0741  0.1858
 1213BOLB   C2B29098  21.266   3.610  35.734  0.0779 -0.1248  0.2224
 1213BOLB   C3B29099  21.022   3.776  35.275  0.1455 -0.3179 -0.0518
 1213BOLB   C4B29100  21.116   4.273  35.162 -0.2594  0.1233  0.2098
 1213BOLB   NC229101  20.919   2.376  35.430  0.2869 -0.1972  0.2026
 1213BOLB   PO229102  20.665   2.393  35.805  0.2183 -0.1129  0.0534
 1213BOLB   GL329103  20.650   2.769  35.719 -0.2765  0.1863 -0.1055
 1213BOLB   GL429104  20.833   2.870  35.481 -0.1732  0.1514  0.1548
 1213BOLB   C1C29105  20.361   3.085  35.697  0.0356  0.3192  0.0420
 1213BOLB   C2C29106  20.112   3.428  35.495 -0.2625 -0.0125 -0.1187
 1213BOLB   C3C29107  19.927   3.872  35.398  0.2767  0.0547  0.0963
 1213BOLB   C4C29108  20.257   4.165  35.501  0.1242  0.0061 -0.3453
 1213BOLB   C1D29109  21.077   3.241  35.330 -0.1585 -0.2845 -0.0197
 1213BOLB   C2D29110  21.403   3.520  35.137  0.2591 -0.0028 -0.1749
 1213BOLB   C3D29111  21.465   3.766  34.836 -0.3583 -0.0716  0.2691
 1213BOLB   C4D29112  21.397   4.002  34.426 -0.0520  0.1192 -0.1169
 1214BOLB   NC129113  21.193   8.355  34.588 -0.1166 -0.0873  0.1981
 1214BOLB   PO129114  21.600   8.307  34.298 -0.2765  0.0709  0.1575
 1214BOLB   GL129115  22.009   8.061  34.480  0.2283  0.2321 -0.0435
 1214BOLB   GL229116  22.030   7.735  34.561  0.5226 -0.1991  0.0515
 1214BOLB   C1A29117  22.510   7.881  34.390  0.1364  0.1524 -0.0921
 1214BOLB   C2A29118  22.805   7.913  34.776 -0.0312 -0.0927  0.0694
 1214BOLB   C3A29119  22.963   7.663  35.069 -0.2351  0.3474 -0.1561
 1214BOLB   C4A29120  23.077   7.363  35.389 -0.1251  0.0772 -0.2483
 1214BOLB   C1B29121  22.312   7.397  34.451 -0.5009  0.1085 -0.1770
 1214BOLB   C2B29122  22.652   7.182  34.441 -0.3214  0.0008 -0.0929
 1214BOLB   C3B29123  23.140   6.942  34.384  0.0227 -0.0125  0.1389
 1214BOLB   C4B29124  23.487   6.800  34.207  0.0613  0.1014  0.1276
 1214BOLB   NC229125  25.106   5.202  36.590  0.0572  0.0362 -0.2709
 1214BOLB   PO229126  25.073   5.548  36.348  0.1887  0.0534  0.1141
 1214BOLB   GL329127  24.698   5.803  36.271 -0.1900 -0.0351  0.1148
 1214BOLB   GL429128  24.416   5.817  36.468 -0.2183 -0.2887 -0.0287
 1214BOLB   C1C29129  24.453   6.201  36.146  0.1999 -0.0570 -0.1595
 1214BOLB   C2C29130  23.940   6.337  36.026 -0.2422 -0.0531 -0.0933
 1214BOLB   C3C29131  23.585   6.631  35.872  0.1927  0.2055  0.0924
 1214BOLB   C4C29132  23.305   6.998  35.677 -0.4226  0.2730 -0.1683
 1214BOLB   C1D29133  24.120   6.109  36.467 -0.1090 -0.0672  0.0491
 1214BOLB   C2D29134  23.874   6.342  36.853 -0.1402  0.1186  0.1327
 1214BOLB   C3D29135  23.731   6.842  36.792 -0.0148  0.3364  0.1760
 1214BOLB   C4D29136  23.948   7.239  36.884  0.2327 -0.0224  0.1959
 1215BOLB   NC129137  13.218  14.177  20.589  0.0654  0.1336  0.2717
 1215BOLB   PO129138  13.369  14.631  20.696  0.4469 -0.1336  0.3803
 1215BOLB   GL129139  13.059  14.721  20.277  0.2339 -0.0035  0.2237
 1215BOLB   GL229140  12.866  14.408  20.346  0.1861 -0.0655 -0.1795
 1215BOLB   C1A29141  12.738  14.875  20.026  0.0890  0.1438  0.4763
 1215BOLB   C2A29142  12.391  15.080  19.844  0.0232  0.1439  0.0227
 1215BOLB   C3A29143  12.155  15.119  19.402  0.0453 -0.0300  0.3782
 1215BOLB   C4A29144  12.071  14.934  19.025  0.3110  0.1584  0.1530
 1215BOLB   C1B29145  12.693  14.379  19.992 -0.1940 -0.2302 -0.1331
 1215BOLB   C2B29146  12.526  14.625  19.583  0.0876 -0.0075 -0.2596
 1215BOLB   C3B29147  12.480  14.683  19.119  0.0019 -0.1519  0.0408
 1215BOLB   C4B29148  12.570  14.719  18.825  0.2465  0.0455 -0.0379
 1215BOLB   NC229149  10.864  13.529  17.024 -0.1544 -0.2804 -0.0778
 1215BOLB   PO229150  11.377  13.776  17.012  0.3082  0.2338  0.0529
 1215BOLB   GL329151  11.483  13.795  17.472  0.1640 -0.3486 -0.0865
 1215BOLB   GL429152  11.644  13.600  17.536 -0.2825 -0.2294  0.0236
 1215BOLB   C1C29153  11.564  13.804  17.965 -0.0740  0.3534  0.2190
 1215BOLB   C2C29154  11.570  14.148  18.167  0.1399 -0.0368  0.1242
 1215BOLB   C3C29155  11.751  14.448  18.451  0.1519 -0.1858  0.1258
 1215BOLB   C4C29156  12.015  14.659  18.686  0.3005 -0.0212  0.0623
 1215BOLB   C1D29157  12.047  13.571  17.416  0.0254  0.0798 -0.1831
 1215BOLB   C2D29158  12.394  13.716  17.533  0.0789 -0.1754  0.2704
 1215BOLB   C3D29159  12.663  13.946  17.769 -0.0059  0.0270  0.0283
 1215BOLB   C4D29160  12.842  14.018  18.119 -0.0797 -0.2384 -0.1741
 1216BOLB   NC129161  18.940   4.421  30.215 -0.1234 -0.0554 -0.0401
 1216BOLB   PO129162  18.755   4.137  30.577 -0.1666 -0.3882 -0.3272
 1216BOLB   GL129163  18.682   3.873  30.366 -0.1870  0.0087  0.0980
 1216BOLB   GL229164  18.348   3.900  30.079 -0.0523 -0.2552 -0.2689
 1216BOLB   C1A29165  18.830   3.711  29.972 -0.1975  0.1158 -0.0475
 1216BOLB   C2A29166  19.313   3.650  29.785  0.2559 -0.1641 -0.1880
 1216BOLB   C3A29167  19.543   3.406  30.051  0.0505  0.0246 -0.4195
 1216BOLB   C4A29168  19.590   3.088  30.374  0.1237 -0.3927 -0.0082
 1216BOLB   C1B29169  18.370   3.502  30.170  0.1845  0.0344 -0.2768
 1216BOLB   C2B29170  18.372   3.003  30.268  0.2360 -0.2656 -0.2234
 1216BOLB   C3B29171  18.200   2.510  30.437 -0.0412 -0.1581  0.1175
 1216BOLB   C4B29172  18.064   2.093  30.452  0.1014 -0.0616 -0.2085
 1216BOLB   NC229173  21.074   0.842  30.832 -0.1630 -0.0509 -0.2852
 1216BOLB   PO229174  20.704   0.820  30.791 -0.0752 -0.0632  0.0463
 1216BOLB   GL329175  20.554   1.208  30.989  0.1835  0.0024  0.2260
 1216BOLB   GL429176  20.306   1.361  30.736  0.1555 -0.1638 -0.1687
 1216BOLB   C1C29177  20.522   1.683  31.016  0.1585 -0.0822 -0.0166
 1216BOLB   C2C29178  20.303   1.957  30.855  0.0686 -0.2072  0.4176
 1216BOLB   C3C29179  20.156   2.372  30.675  0.0782  0.1802 -0.0953
 1216BOLB   C4C29180  19.931   2.712  30.449 -0.0276 -0.0259 -0.2222
 1216BOLB   C1D29181  19.924   1.617  30.778 -0.3792  0.2304 -0.1929
 1216BOLB   C2D29182  19.652   1.927  30.659  0.1332 -0.2233  0.0993
 1216BOLB   C3D29183  19.620   2.376  30.396  0.2173 -0.0378  0.3061
 1216BOLB   C4D29184  19.237   2.467  30.157 -0.0740 -0.2591 -0.1387
 1217BOLB   NC129185  21.268   5.878  30.347 -0.2086  0.2034 -0.1620
 1217BOLB   PO129186  21.657   5.991  30.478 -0.1421 -0.1718 -0.1983
 1217BOLB   GL129187  22.075   5.821  30.452  0.3320  0.0077  0.2642
 1217BOLB   GL229188  22.057   5.807  30.793  0.1354  0.0240 -0.1793
 1217BOLB   C1A29189  22.152   5.441  30.184  0.4851  0.0054 -0.1288
 1217BOLB   C2A29190  22.369   5.139  30.220 -0.4170 -0.2851  0.0611
 1217BOLB   C3A29191  22.526   4.886  30.606  0.1465 -0.0456 -0.1552
 1217BOLB   C4A29192  22.927   4.623  30.638  0.4428 -0.1450  0.1766
 1217BOLB   C1B29193  22.337   5.420  30.657  0.2173  0.1483 -0.0536
 1217BOLB   C2B29194  22.721   5.313  30.568  0.1964  0.1059 -0.1773
 1217BOLB   C3B29195  22.926   5.032  30.896  0.0049  0.0806  0.0945
 1217BOLB   C4B29196  23.055   5.086  31.304  0.5374 -0.0162 -0.0867
 1217BOLB   NC229197  25.020   3.852  30.459 -0.1201  0.1228 -0.2980
 1217BOLB   PO229198  24.768   3.442  30.273 -0.1353 -0.0955 -0.0325
 1217BOLB   GL329199  24.288   3.522  30.237  0.0865 -0.2807 -0.0399
 1217BOLB   GL429200  24.350   3.836  30.228  0.1318 -0.0896  0.0823
 1217BOLB   C1C29201  23.891   3.641  30.205  0.2485 -0.2667  0.0701
 1217BOLB   C2C29202  23.481   3.596  30.301  0.0856  0.1725  0.2305
 1217BOLB   C3C29203  23.223   3.977  30.246  0.2718 -0.3911 -0.2877
 1217BOLB   C4C29204  23.191   4.324  30.503 -0.0214  0.1231  0.1838
 1217BOLB   C1D29205  24.115   4.094  30.136  0.0771  0.0432  0.1574
 1217BOLB   C2D29206  23.858   4.516  30.137  0.3438  0.1352 -0.0630
 1217BOLB   C3D29207  23.399   4.586  30.073  0.0242 -0.0109 -0.2043
 1217BOLB   C4D29208  23.078   4.738  29.843 -0.0478  0.1827 -0.0783
 1218BOLB   NC129209  13.156  13.330  39.178 -0.2596 -0.0805  0.1435
 1218BOLB   PO129210  12.789  13.198  39.455  0.1761  0.0571 -0.2102
 1218BOLB   GL129211  12.686  13.239  39.887  0.1222  0.0398  0.0472
 1218BOLB   GL229212  12.453  13.256  39.905 -0.0781 -0.1827  0.2668
 1218BOLB   C1A29213  12.855  13.359  40.220  0.3081 -0.1084 -0.0733
 1218BOLB   C2A29214  12.816  13.487  40.710 -0.1352 -0.0017  0.0211
 1218BOLB   C3A29215  12.796  13.197  40.989  0.0936 -0.3042  0.1098
 1218BOLB   C4A29216  12.860  12.900  41.287  0.0430 -0.0349 -0.0270
 1218BOLB   C1B29217  12.348  13.337  40.396 -0.1554  0.0234 -0.0086
 1218BOLB   C2B29218  12.147  13.455  40.725  0.1754  0.2213  0.1950
 1218BOLB   C3B29219  12.106  13.277  41.084  0.0061  0.0412 -0.1594
 1218BOLB   C4B29220  12.004  13.379  41.503 -0.1189 -0.2408 -0.1391
 1218BOLB   NC229221  12.792  12.176  43.833 -0.0792 -0.3620  0.0278
 1218BOLB   PO229222  12.822  12.585  43.632 -0.0020  0.0477 -0.1981
 1218BOLB   GL329223  12.769  12.707  43.264  0.0740  0.0103  0.0478
 1218BOLB   GL429224  12.838  12.871  43.077  0.0220  0.1525 -0.0795
 1218BOLB   C1C29225  12.631  12.486  42.788 -0.1797 -0.0829  0.0624
 1218BOLB   C2C29226  12.851  12.474  42.406 -0.0038 -0.0535 -0.0826
 1218BOLB   C3C29227  12.901  12.699  42.061 -0.1884  0.0054 -0.2947
 1218BOLB   C4C29228  12.913  12.799  41.673  0.1584 -0.2678  0.0549
 1218BOLB   C1D29229  12.952  12.883  42.739 -0.0959 -0.2595  0.1653
 1218BOLB   C2D29230  13.133  13.203  42.491  0.1387  0.0699  0.0912
 1218BOLB   C3D29231  13.149  13.583  42.211 -0.0422 -0.0555 -0.1011
 1218BOLB   C4D29232  12.937  13.792  41.927 -0.1002 -0.0320 -0.4363
 1219BOLB   NC129233  17.150  10.783  39.634 -0.0280 -0.5620 -0.1765
 1219BOLB   PO129234  17.329  10.317  39.475  0.0570 -0.0444  0.1872
 1219BOLB   GL129235  17.570  10.315  39.735  0.1373 -0.1970  0.0367
 1219BOLB   GL229236  17.780  10.002  39.681 -0.3128  0.1350 -0.0874
 1219BOLB   C1A29237  17.452  10.439  40.166  0.1443  0.2995 -0.1457
 1219BOLB   C2A29238  17.319  10.223  40.513 -0.2191 -0.4229 -0.0567
 1219BOLB   C3A29239  17.402  10.408  40.923 -0.0718  0.1505  0.2540
 1219BOLB   C4A29240  17.384  10.337  41.319  0.0366 -0.1212  0.1966
 1219BOLB   C1B29241  17.471   9.907  40.047  0.4301  0.4114  0.0197
 1219BOLB   C2B29242  17.272   9.743  40.421  0.0223 -0.0860 -0.0028
 1219BOLB   C3B29243  17.221   9.658  40.828  0.0973  0.0333  0.1731
 1219BOLB   C4B29244  17.287   9.439  41.234  0.4618 -0.2215 -0.2076
 1219BOLB   NC229245  16.509  10.053  44.323  0.1954  0.1031 -0.3144
 1219BOLB   PO229246  16.761  10.225  43.987  0.1219  0.0796 -0.1508
 1219BOLB   GL329247  16.921  10.012  43.620  0.2581  0.1526  0.1338
 1219BOLB   GL429248  16.687   9.753  43.430 -0.1635  0.2290 -0.2167
 1219BOLB   C1C29249  17.005  10.031  43.122  0.4970 -0.0123  0.0264
 1219BOLB   C2C29250  17.189   9.945  42.681  0.1648 -0.1215 -0.1234
 1219BOLB   C3C29251  17.282  10.130  42.276  0.2082  0.1829  0.2044
 1219BOLB   C4C29252  17.459  10.315  41.901 -0.2708 -0.0901 -0.2248
 1219BOLB   C1D29253  16.550   9.617  43.060  0.0478  0.0585  0.0738
 1219BOLB   C2D29254  16.499   9.385  42.683  0.2962 -0.0625  0.2012
 1219BOLB   C3D29255  16.602   9.441  42.214  0.1423 -0.1301 -0.2694
 1219BOLB   C4D29256  16.616   9.639  41.824 -0.2626 -0.0272 -0.0922
 1220BOLB   NC129257   9.194   7.994  29.814 -0.1433  0.1014  0.2017
 1220BOLB   PO129258   9.275   8.151  29.423  0.0094 -0.0744 -0.4373
 1220BOLB   GL129259   8.934   7.879  29.291 -0.1694 -0.1072  0.0214
 1220BOLB   GL229260   9.026   7.649  28.987 -0.3358  0.3059  0.2268
 1220BOLB   C1A29261   8.602   7.618  29.388 -0.0000 -0.1154 -0.1607
 1220BOLB   C2A29262   8.245   7.539  29.157 -0.0525  0.0141  0.2188
 1220BOLB   C3A29263   7.925   7.289  29.082 -0.0264 -0.1557  0.3332
 1220BOLB   C4A29264   7.425   7.127  28.982 -0.0841 -0.0311 -0.2104
 1220BOLB   C1B29265   8.799   7.348  28.925 -0.1346  0.1454 -0.0013
 1220BOLB   C2B29266   8.469   7.164  28.895 -0.3553  0.3103 -0.3476
 1220BOLB   C3B29267   8.219   6.916  28.696 -0.2591 -0.2162 -0.2149
 1220BOLB   C4B29268   8.039   6.708  28.322 -0.1992  0.0469 -0.1586
 1220BOLB   NC229269   4.927   5.563  28.970 -0.1602  0.0252 -0.0825
 1220BOLB   PO229270   5.046   6.035  29.052 -0.1282  0.0316 -0.1787
 1220BOLB   GL329271   5.565   6.140  29.097 -0.1678 -0.2935 -0.1171
 1220BOLB   GL429272   5.575   6.428  28.998 -0.0515  0.1820 -0.4318
 1220BOLB   C1C29273   5.986   6.271  29.145 -0.2046 -0.3457  0.0391
 1220BOLB   C2C29274   6.341   6.568  29.196  0.1277 -0.1388  0.2136
 1220BOLB   C3C29275   6.622   7.003  29.033 -0.1311 -0.0962 -0.0126
 1220BOLB   C4C29276   7.056   7.209  29.215  0.0114 -0.2048 -0.1879
 1220BOLB   C1D29277   5.861   6.196  28.674  0.2316  0.2976  0.0292
 1220BOLB   C2D29278   6.165   6.455  28.572  0.0066  0.0580 -0.1275
 1220BOLB   C3D29279   6.433   6.743  28.688  0.1254 -0.1849 -0.2479
 1220BOLB   C4D29280   6.700   7.035  28.440 -0.0886 -0.1230 -0.0952
 1221BOLB   NC129281   9.666   9.049  35.393 -0.1308 -0.0052 -0.0386
 1221BOLB   PO129282   9.445   9.432  35.293  0.2058  0.3884  0.0553
 1221BOLB   GL129283   9.092   9.197  35.377  0.2550 -0.2069 -0.2430
 1221BOLB   GL229284   9.151   8.932  35.494  0.4926  0.3806  0.0051
 1221BOLB   C1A29285   8.632   9.315  35.343 -0.2052  0.2620  0.1931
 1221BOLB   C2A29286   8.216   9.397  35.513  0.0227 -0.0218  0.1325
 1221BOLB   C3A29287   7.931   9.318  35.815 -0.3313  0.2688 -0.1245
 1221BOLB   C4A29288   7.713   9.417  36.143 -0.0995  0.0297  0.1297
 1221BOLB   C1B29289   8.929   8.651  35.668 -0.0043  0.4102 -0.1920
 1221BOLB   C2B29290   9.057   8.277  36.034  0.0509 -0.3146  0.2009
 1221BOLB   C3B29291   8.850   8.130  36.404  0.0493 -0.3196  0.1627
 1221BOLB   C4B29292   8.707   7.896  36.600  0.1563 -0.1658 -0.4810
 1221BOLB   NC229293   6.788   8.576  37.947  0.1723  0.1248 -0.0487
 1221BOLB   PO229294   6.446   8.881  37.925  0.0547  0.2186 -0.0680
 1221BOLB   GL329295   6.893   9.065  37.711  0.0955  0.0554 -0.0273
 1221BOLB   GL429296   6.978   9.369  37.942 -0.2445 -0.2440  0.0562
 1221BOLB   C1C29297   6.879   9.224  37.390  0.0953 -0.0962 -0.0994
 1221BOLB   C2C29298   7.146   9.401  37.172 -0.0751 -0.0301  0.0819
 1221BOLB   C3C29299   7.407   9.639  36.894  0.1699  0.3087  0.0170
 1221BOLB   C4C29300   7.463   9.449  36.450  0.2692  0.3422  0.2187
 1221BOLB   C1D29301   7.288   9.464  37.660 -0.0748  0.0090  0.0709
 1221BOLB   C2D29302   7.637   9.613  37.475 -0.0114  0.0525 -0.0969
 1221BOLB   C3D29303   8.044   9.624  37.463 -0.0175  0.2342  0.2162
 1221BOLB   C4D29304   8.521   9.714  37.416 -0.0478 -0.2936 -0.1143
 1222BOLB   NC129305  13.164  20.704  25.934  0.0163  0.0313 -0.1471
 1222BOLB   PO129306  12.917  20.781  25.618  0.0092 -0.0584  0.0923
 1222BOLB   GL129307  12.988  21.140  25.879  0.1802  0.0075  0.2700
 1222BOLB   GL229308  12.840  21.360  26.087 -0.1149 -0.2574  0.1333
 1222BOLB   C1A29309  13.183  21.531  25.696  0.3344  0.0934  0.1726
 1222BOLB   C2A29310  13.225  21.729  25.286 -0.2053  0.0391  0.0474
 1222BOLB   C3A29311  12.987  22.029  25.028  0.1172 -0.2691 -0.1046
 1222BOLB   C4A29312  12.705  22.402  25.026  0.0445 -0.0913 -0.2345
 1222BOLB   C1B29313  12.832  21.819  25.995  0.3866  0.0224 -0.2125
 1222BOLB   C2B29314  12.797  22.226  26.003 -0.2067  0.0145 -0.2266
 1222BOLB   C3B29315  12.834  22.531  25.741  0.0246 -0.0200 -0.1501
 1222BOLB   C4B29316  13.022  22.627  25.333 -0.2580  0.2860  0.3676
 1222BOLB   NC229317  12.016  24.778  25.064 -0.0987 -0.0509  0.1028
 1222BOLB   PO229318  12.406  24.797  24.995 -0.1502  0.3663 -0.0534
 1222BOLB   GL329319  12.258  24.396  24.939 -0.0532  0.1177 -0.0666
 1222BOLB   GL429320  12.613  24.284  24.809  0.1506  0.1019  0.0919
 1222BOLB   C1C29321  12.163  24.061  25.107 -0.2517  0.2796  0.0887
 1222BOLB   C2C29322  12.130  23.578  24.952  0.2684 -0.0459 -0.3454
 1222BOLB   C3C29323  12.357  23.176  24.901  0.1262  0.2727  0.0977
 1222BOLB   C4C29324  12.390  22.770  24.847  0.3027 -0.2601  0.1417
 1222BOLB   C1D29325  12.630  23.799  24.849  0.0565  0.1312 -0.2822
 1222BOLB   C2D29326  12.809  23.406  24.924 -0.1025  0.1802  0.1223
 1222BOLB   C3D29327  12.799  23.138  25.231 -0.0670  0.1460  0.1228
 1222BOLB   C4D29328  13.024  23.058  25.644  0.1284  0.4726 -0.0066
 1223BOLB   NC129329  17.930  19.119  24.578  0.0536 -0.0763 -0.1130
 1223BOLB   PO129330  17.820  19.538  24.447 -0.0213  0.2186 -0.3435
 1223BOLB   GL129331  18.131  19.825  24.589 -0.2080  0.3092  0.0397
 1223BOLB   GL229332  17.887  20.081  24.731 -0.0308  0.1676 -0.1502
 1223BOLB   C1A29333  18.366  20.091  24.514 -0.3747  0.2102 -0.0893
 1223BOLB   C2A29334  18.745  20.121  24.452 -0.1290 -0.0468  0.0967
 1223BOLB   C3A29335  19.068  20.389  24.490  0.1151  0.2445  0.4531
 1223BOLB   C4A29336  19.163  20.828  24.663  0.0614  0.1000  0.3447
 1223BOLB   C1B29337  18.234  20.197  24.999  0.2495  0.0574  0.0100
 1223BOLB   C2B29338  18.550  20.116  25.279  0.0254  0.2023  0.2565
 1223BOLB   C3B29339  18.855  20.310  25.630 -0.2432  0.0513 -0.0386
 1223BOLB   C4B29340  19.254  20.277  25.753 -0.0922 -0.1720  0.1091
 1223BOLB   NC229341  20.742  22.549  24.307  0.3363  0.1236 -0.1963
 1223BOLB   PO229342  20.747  22.571  24.758 -0.0600 -0.0669  0.0110
 1223BOLB   GL329343  20.496  22.193  25.006  0.0765  0.2555  0.0130
 1223BOLB   GL429344  20.624  21.937  25.356 -0.0400 -0.0080 -0.2007
 1223BOLB   C1C29345  20.050  22.105  24.967  0.3326  0.0774  0.1836
 1223BOLB   C2C29346  19.606  21.881  25.014  0.2585  0.0499 -0.1754
 1223BOLB   C3C29347  19.218  21.651  24.948 -0.1449  0.0547 -0.3403
 1223BOLB   C4C29348  19.041  21.295  24.653 -0.2473  0.2623 -0.0583
 1223BOLB   C1D29349  20.497  21.575  25.263 -0.1313  0.0759  0.2125
 1223BOLB   C2D29350  20.088  21.376  25.234 -0.0438  0.2763  0.1824
 1223BOLB   C3D29351  19.653  21.188  25.469  0.0753  0.1512 -0.0181
 1223BOLB   C4D29352  19.452  20.677  25.553 -0.2393 -0.0372  0.1433
 1224BOLB   NC129353  18.884  16.587  37.060 -0.2357 -0.1680  0.0823
 1224BOLB   PO129354  19.178  16.860  37.046 -0.2040  0.0452  0.2899
 1224BOLB   GL129355  19.191  17.018  37.532 -0.3602 -0.0110 -0.0284
 1224BOLB   GL229356  19.270  16.907  37.771  0.0869  0.1121  0.2545
 1224BOLB   C1A29357  19.413  17.356  37.744  0.1773 -0.0769 -0.1992
 1224BOLB   C2A29358  19.545  17.753  37.975  0.0456  0.0330 -0.1791
 1224BOLB   C3A29359  19.907  17.668  38.217 -0.0464 -0.0456  0.2077
 1224BOLB   C4A29360  20.100  17.653  38.671  0.1494  0.1597  0.2505
 1224BOLB   C1B29361  19.587  16.914  38.094 -0.2153 -0.0438  0.1810
 1224BOLB   C2B29362  20.003  17.012  38.190  0.1359  0.0009 -0.3171
 1224BOLB   C3B29363  20.356  17.184  38.509  0.1220  0.0160  0.0764
 1224BOLB   C4B29364  20.660  17.131  38.826  0.1817 -0.0103  0.2322
 1224BOLB   NC229365  20.809  18.031  40.767 -0.1556 -0.0433  0.1039
 1224BOLB   PO229366  21.226  18.148  40.628  0.1872  0.0154  0.0858
 1224BOLB   GL329367  20.978  17.967  40.316  0.2215  0.0337 -0.0586
 1224BOLB   GL429368  21.309  17.913  40.150 -0.3538  0.1873  0.1169
 1224BOLB   C1C29369  20.790  18.003  39.897  0.2306 -0.1200  0.1863
 1224BOLB   C2C29370  20.806  17.987  39.443  0.2888  0.0494 -0.0487
 1224BOLB   C3C29371  20.793  17.746  39.137  0.2497 -0.1836  0.2254
 1224BOLB   C4C29372  20.431  17.553  39.017  0.1672  0.0449  0.1129
 1224BOLB   C1D29373  21.281  18.381  39.954  0.0161 -0.0085  0.2313
 1224BOLB   C2D29374  20.901  18.478  39.802 -0.3092  0.0369  0.1200
 1224BOLB   C3D29375  20.417  18.425  39.721 -0.0047  0.4027 -0.2516
 1224BOLB   C4D29376  19.976  18.392  39.644 -0.0806 -0.4591 -0.0680
 1225BOLB   NC129377   5.418   8.753  24.569 -0.3201 -0.1845  0.0728
 1225BOLB   PO129378   5.489   8.845  24.041  0.0286  0.0228 -0.1311
 1225BOLB   GL129379   5.786   9.038  24.332  0.0984 -0.0552  0.0088
 1225BOLB   GL229380   5.782   9.389  24.526  0.3938 -0.0419 -0.0943
 1225BOLB   C1A29381   6.232   9.132  24.546 -0.3344 -0.0889  0.1698
 1225BOLB   C2A29382   6.701   9.065  24.625 -0.2270  0.1115  0.2036
 1225BOLB   C3A29383   7.036   9.161  24.800  0.1585  0.2041 -0.1494
 1225BOLB   C4A29384   7.267   9.584  24.850  0.1628 -0.0334  0.1270
 1225BOLB   C1B29385   5.880   9.664  24.903  0.3063  0.2299 -0.2156
 1225BOLB   C2B29386   6.256   9.835  25.056  0.1395  0.0163  0.5018
 1225BOLB   C3B29387   6.642  10.081  24.922 -0.3535 -0.4094 -0.1910
 1225BOLB   C4B29388   7.032  10.152  24.864 -0.1095 -0.0031  0.0874
 1225BOLB   NC229389   5.862   9.729  23.592  0.0419 -0.0916 -0.3227
 1225BOLB   PO229390   5.663  10.095  23.470 -0.1781  0.0428 -0.3096
 1225BOLB   GL329391   6.086  10.171  23.475 -0.0299 -0.2305  0.1238
 1225BOLB   GL429392   6.279  10.184  23.135 -0.0326 -0.0203  0.0147
 1225BOLB   C1C29393   6.456  10.133  23.541 -0.0154 -0.3482 -0.0621
 1225BOLB   C2C29394   6.741   9.964  23.822 -0.0319  0.0640 -0.3741
 1225BOLB   C3C29395   6.948   9.826  24.171  0.1566 -0.4797 -0.2118
 1225BOLB   C4C29396   7.176   9.851  24.493  0.2793  0.2319 -0.1274
 1225BOLB   C1D29397   6.696  10.189  23.138 -0.0612 -0.1451 -0.0095
 1225BOLB   C2D29398   7.006  10.294  23.505 -0.0526 -0.0102 -0.0519
 1225BOLB   C3D29399   7.372  10.503  23.510  0.1086 -0.1495 -0.4380
 1225BOLB   C4D29400   7.766  10.444  23.732  0.0888 -0.1145 -0.2934
 1226BOLB   NC129401  10.234  14.733  22.901 -0.0759  0.3056  0.0149
 1226BOLB   PO129402  10.391  14.323  22.907  0.0853 -0.1555 -0.1226
 1226BOLB   GL129403  10.051  14.228  22.655 -0.2102  0.1913  0.1938
 1226BOLB   GL229404   9.976  13.898  22.551 -0.4768 -0.0575 -0.3496
 1226BOLB   C1A29405   9.826  14.372  22.318 -0.0914  0.0516  0.1809
 1226BOLB   C2A29406   9.367  14.133  21.942 -0.0602  0.0181  0.1539
 1226BOLB   C3A29407   9.086  13.778  21.628 -0.0619 -0.0056 -0.0658
 1226BOLB   C4A29408   8.860  13.395  21.670  0.3130  0.0167  0.3119
 1226BOLB   C1B29409   9.569  13.941  22.426  0.0300  0.1329 -0.0649
 1226BOLB   C2B29410   9.126  14.088  22.378  0.1189  0.2368 -0.2208
 1226BOLB   C3B29411   8.717  14.132  22.253 -0.0642 -0.3272 -0.1101
 1226BOLB   C4B29412   8.490  14.311  21.916 -0.1228  0.0666 -0.0357
 1226BOLB   NC229413   7.615  12.525  19.948  0.1829  0.3015  0.3074
 1226BOLB   PO229414   7.498  12.444  20.428  0.1676 -0.1169  0.1884
 1226BOLB   GL329415   7.374  12.499  20.831 -0.3233 -0.0314 -0.0153
 1226BOLB   GL429416   7.471  12.776  20.803 -0.0396  0.3489 -0.0663
 1226BOLB   C1C29417   7.331  12.482  21.273 -0.1015 -0.1146  0.0679
 1226BOLB   C2C29418   7.658  12.790  21.588  0.2295  0.1957  0.2630
 1226BOLB   C3C29419   7.984  13.036  21.744 -0.0485 -0.1526  0.2226
 1226BOLB   C4C29420   8.428  13.317  21.813  0.0924 -0.1260 -0.0711
 1226BOLB   C1D29421   7.778  12.648  21.096 -0.1481 -0.1418 -0.0598
 1226BOLB   C2D29422   8.095  12.530  21.392  0.0146 -0.0150 -0.0843
 1226BOLB   C3D29423   8.331  12.487  21.692  0.0548 -0.2586 -0.4135
 1226BOLB   C4D29424   8.641  12.853  21.929  0.0699  0.3156  0.1507
 1227BOLB   NC129425  18.135  19.047  29.874  0.0010 -0.1630  0.1322
 1227BOLB   PO129426  18.292  19.190  30.290  0.0800  0.2129  0.4145
 1227BOLB   GL129427  18.626  19.553  30.198 -0.0887 -0.0476 -0.0428
 1227BOLB   GL229428  18.620  19.875  30.253  0.1730  0.2418 -0.4128
 1227BOLB   C1A29429  19.040  19.823  30.032  0.0657  0.0397 -0.0679
 1227BOLB   C2A29430  19.307  20.133  30.118  0.0520  0.1108 -0.0970
 1227BOLB   C3A29431  19.616  20.403  30.077 -0.0837 -0.1904 -0.0181
 1227BOLB   C4A29432  19.934  20.698  29.935  0.1331  0.2425  0.0366
 1227BOLB   C1B29433  18.808  20.252  29.980 -0.1706 -0.1649  0.1529
 1227BOLB   C2B29434  18.813  20.555  29.678  0.1869  0.1371 -0.0253
 1227BOLB   C3B29435  18.784  20.927  29.357  0.0995 -0.0706  0.1956
 1227BOLB   C4B29436  18.767  21.195  28.921 -0.0153  0.0617  0.0963
 1227BOLB   NC229437  20.968  22.818  29.307  0.0933 -0.2366 -0.0879
 1227BOLB   PO229438  21.256  22.712  28.991  0.0174 -0.0507 -0.1439
 1227BOLB   GL329439  21.005  22.338  29.241  0.4007  0.3587 -0.0217
 1227BOLB   GL429440  20.970  22.079  28.957 -0.0593 -0.1957  0.1474
 1227BOLB   C1C29441  20.615  22.147  29.378 -0.3488 -0.0183 -0.0392
 1227BOLB   C2C29442  20.407  21.813  29.627  0.3024 -0.3575 -0.0494
 1227BOLB   C3C29443  20.415  21.342  29.626  0.0976 -0.2329  0.0203
 1227BOLB   C4C29444  20.291  20.871  29.772 -0.0624  0.1126 -0.0670
 1227BOLB   C1D29445  20.520  22.257  28.813  0.0428 -0.0797  0.0579
 1227BOLB   C2D29446  20.209  22.046  28.756  0.1711 -0.0694 -0.0762
 1227BOLB   C3D29447  19.865  21.837  28.551 -0.0453 -0.1118 -0.0317
 1227BOLB   C4D29448  19.476  21.501  28.517  0.0768  0.2490  0.2587
 1228BOLB   NC129449  12.576   7.312  36.961 -0.0424  0.0249  0.0651
 1228BOLB   PO129450  12.252   7.058  36.706  0.1084 -0.0276 -0.0275
 1228BOLB   GL129451  11.991   7.200  37.027 -0.1545  0.3225 -0.0251
 1228BOLB   GL229452  11.658   7.175  37.037  0.2811  0.1358  0.2451
 1228BOLB   C1A29453  11.737   6.867  37.423  0.1212  0.2118 -0.0524
 1228BOLB   C2A29454  11.551   6.581  37.756 -0.2678 -0.1454  0.4754
 1228BOLB   C3A29455  11.777   6.170  37.782 -0.1003 -0.1986 -0.0165
 1228BOLB   C4A29456  11.951   5.725  37.977 -0.0961 -0.2173  0.0938
 1228BOLB   C1B29457  11.294   6.858  37.120  0.0458  0.2931 -0.0644
 1228BOLB   C2B29458  11.090   6.520  37.415  0.1392  0.2654  0.2583
 1228BOLB   C3B29459  11.043   6.564  37.803  0.1104  0.1287 -0.0375
 1228BOLB   C4B29460  10.805   6.697  38.014  0.0661 -0.0110 -0.0428
 1228BOLB   NC229461  10.534   4.505  39.973  0.0494 -0.0272 -0.3045
 1228BOLB   PO229462  10.337   4.527  39.666  0.1873  0.1617 -0.1669
 1228BOLB   GL329463  10.714   4.712  39.460  0.3084  0.3113  0.0503
 1228BOLB   GL429464  10.667   4.524  39.269 -0.3216  0.3940  0.1671
 1228BOLB   C1C29465  10.865   5.019  39.112 -0.0378  0.0484  0.2752
 1228BOLB   C2C29466  11.018   4.985  38.726  0.0689  0.2208  0.0111
 1228BOLB   C3C29467  11.301   5.343  38.557 -0.2944  0.0689 -0.1616
 1228BOLB   C4C29468  11.631   5.462  38.280  0.1385  0.2993  0.2801
 1228BOLB   C1D29469  10.544   4.689  38.865 -0.0747  0.1821  0.0225
 1228BOLB   C2D29470  10.638   4.845  38.388  0.0008 -0.1293 -0.1878
 1228BOLB   C3D29471  10.942   5.074  38.214  0.1202 -0.1450 -0.1168
 1228BOLB   C4D29472  11.231   5.209  37.932 -0.1340 -0.1409 -0.0463
 1229BOLB   NC129473  22.057   8.738  35.430  0.1570  0.2403  0.2262
 1229BOLB   PO129474  21.873   8.655  35.069 -0.1796 -0.1939 -0.3354
 1229BOLB   GL129475  22.284   8.616  34.941 -0.0450 -0.2062  0.0133
 1229BOLB   GL229476  22.215   8.347  34.819  0.2742 -0.1846 -0.1564
 1229BOLB   C1A29477  22.667   8.467  34.945 -0.1394 -0.2398 -0.0396
 1229BOLB   C2A29478  23.065   8.394  34.982 -0.2854  0.1924 -0.1699
 1229BOLB   C3A29479  23.511   8.290  35.053 -0.0898 -0.2917 -0.0259
 1229BOLB   C4A29480  23.737   8.046  35.044 -0.4465  0.0463  0.1684
 1229BOLB   C1B29481  22.341   8.041  34.888 -0.0607  0.2074  0.0161
 1229BOLB   C2B29482  22.604   7.871  35.260 -0.0051  0.0044 -0.2646
 1229BOLB   C3B29483  22.832   7.774  35.568 -0.1959 -0.1740 -0.0743
 1229BOLB   C4B29484  23.251   7.714  35.808  0.0276 -0.0653  0.0280
 1229BOLB   NC229485  25.540   6.405  36.089  0.4260  0.0695  0.0607
 1229BOLB   PO229486  25.415   6.759  35.882  0.4075 -0.1903 -0.0666
 1229BOLB   GL329487  25.000   6.676  35.817 -0.0720  0.1077 -0.4619
 1229BOLB   GL429488  24.853   6.435  36.019 -0.2450 -0.1815  0.3338
 1229BOLB   C1C29489  24.643   6.905  35.821 -0.0005  0.0685  0.1400
 1229BOLB   C2C29490  24.370   7.200  35.858 -0.1708 -0.0948  0.1960
 1229BOLB   C3C29491  24.167   7.583  35.703  0.0464 -0.1552  0.1568
 1229BOLB   C4C29492  24.068   7.736  35.207  0.2645  0.1307 -0.0672
 1229BOLB   C1D29493  24.534   6.651  36.249  0.0919 -0.2443 -0.2852
 1229BOLB   C2D29494  24.212   6.744  36.011 -0.1162 -0.4023 -0.0235
 1229BOLB   C3D29495  23.915   6.974  35.665 -0.2719 -0.0886 -0.1554
 1229BOLB   C4D29496  23.690   7.288  35.410 -0.1776  0.3030  0.2235
 1230BOLB   NC129497  18.359   6.135  35.984  0.2427  0.1302 -0.0105
 1230BOLB   PO129498  18.796   6.252  35.803  0.3791 -0.0937  0.0568
 1230BOLB   GL129499  18.923   5.904  36.093 -0.1962  0.0669 -0.5843
 1230BOLB   GL229500  18.638   5.758  36.221 -0.0447  0.0082 -0.1231
 1230BOLB   C1A29501  19.267   5.651  36.120  0.3411  0.2425 -0.0455
 1230BOLB   C2A29502  19.617   5.329  36.128 -0.0346 -0.3204 -0.0825
 1230BOLB   C3A29503  19.916   4.966  36.060 -0.0197  0.1649  0.0887
 1230BOLB   C4A29504  20.254   4.655  36.358  0.0272 -0.2606 -0.0468
 1230BOLB   C1B29505  18.372   5.359  36.262  0.1567  0.0986  0.1181
 1230BOLB   C2B29506  18.152   5.029  36.294 -0.3262  0.0490 -0.0097
 1230BOLB   C3B29507  17.844   4.965  36.600 -0.1774  0.5245  0.1117
 1230BOLB   C4B29508  17.850   4.591  36.972 -0.2482  0.2043 -0.0115
 1230BOLB   NC229509  21.666   3.180  36.985  0.2336  0.0900 -0.1610
 1230BOLB   PO229510  21.654   3.326  37.460 -0.2761 -0.2150  0.4579
 1230BOLB   GL329511  21.543   3.679  37.282  0.1202 -0.1417 -0.0524
 1230BOLB   GL429512  21.657   4.002  37.176 -0.2439 -0.0107 -0.0498
 1230BOLB   C1C29513  21.172   4.039  37.153 -0.0479 -0.1955  0.0386
 1230BOLB   C2C29514  20.990   4.547  37.220  0.0364 -0.0482 -0.0548
 1230BOLB   C3C29515  20.943   4.841  36.873  0.1378 -0.1445 -0.3045
 1230BOLB   C4C29516  20.625   4.749  36.555  0.0767 -0.1086 -0.5375
 1230BOLB   C1D29517  21.551   4.066  36.721  0.1183  0.2485 -0.4052
 1230BOLB   C2D29518  21.334   4.333  36.289 -0.0664  0.1249 -0.2173
 1230BOLB   C3D29519  21.189   4.477  36.093  0.0709 -0.0531  0.0067
 1230BOLB   C4D29520  21.219   4.851  36.125  0.0612  0.2274  0.2676
 1231BOLB   NC129521  19.396   5.909  32.994 -0.0211  0.1374  0.0215
 1231BOLB   PO129522  19.651   5.583  33.003 -0.0975 -0.3769  0.0538
 1231BOLB   GL129523  19.661   5.241  33.293 -0.0176 -0.1395  0.0381
 1231BOLB   GL229524  19.893   5.034  33.306  0.0601 -0.0885  0.0110
 1231BOLB   C1A29525  19.533   4.713  33.542 -0.4748 -0.1475  0.0782
 1231BOLB   C2A29526  19.558   4.253  33.559  0.1518  0.2922  0.2759
 1231BOLB   C3A29527  19.582   3.853  33.693 -0.1169  0.1905 -0.2693
 1231BOLB   C4A29528  19.255   3.636  33.798  0.0190 -0.2453  0.3397
 1231BOLB   C1B29529  20.039   4.590  33.460  0.2831 -0.1463 -0.2281
 1231BOLB   C2B29530  19.979   4.230  33.236  0.4940 -0.0024  0.0142
 1231BOLB   C3B29531  20.068   3.916  33.469 -0.2647  0.4150  0.0966
 1231BOLB   C4B29532  20.091   3.667  33.779  0.0497  0.2194  0.5389
 1231BOLB   NC229533  20.484   1.624  35.109 -0.0381  0.1043 -0.0413
 1231BOLB   PO229534  20.143   1.925  35.236  0.0346  0.1750 -0.1104
 1231BOLB   GL329535  20.018   2.201  35.005  0.1264  0.0783 -0.0357
 1231BOLB   GL429536  20.084   2.499  35.003  0.0530 -0.3342 -0.1674
 1231BOLB   C1C29537  19.664   2.336  34.813  0.1433  0.4587  0.2287
 1231BOLB   C2C29538  19.393   2.611  34.590 -0.5394  0.3597 -0.1260
 1231BOLB   C3C29539  19.290   2.900  34.294 -0.0302  0.1050  0.1061
 1231BOLB   C4C29540  19.264   3.236  33.933  0.0296  0.2326 -0.0782
 1231BOLB   C1D29541  20.221   2.833  34.848  0.0563 -0.1242 -0.1023
 1231BOLB   C2D29542  20.355   3.271  34.790 -0.3514  0.4218 -0.2961
 1231BOLB   C3D29543  20.431   3.700  34.766  0.0904  0.1234 -0.0821
 1231BOLB   C4D29544  20.417   4.021  34.545 -0.0039 -0.3129 -0.2243
 1232BOLB   NC129545   9.273   9.978  34.363 -0.5270 -0.1477  0.2363
 1232BOLB   PO129546   8.989  10.364  34.335  0.0611  0.0939  0.1669
 1232BOLB   GL129547   8.639  10.084  34.436 -0.1743  0.0121 -0.3285
 1232BOLB   GL229548   8.789  10.121  34.755 -0.2578 -0.1498 -0.1403
 1232BOLB   C1A29549   8.307   9.801  34.673  0.0538 -0.1859  0.0284
 1232BOLB   C2A29550   8.048   9.457  34.787  0.0348  0.1738  0.0603
 1232BOLB   C3A29551   7.699   9.141  34.889  0.0137  0.0402  0.3332
 1232BOLB   C4A29552   7.557   8.692  35.058  0.0697 -0.1056  0.1345
 1232BOLB   C1B29553   8.807   9.668  34.761 -0.0052  0.0305 -0.0239
 1232BOLB   C2B29554   8.520   9.304  34.826  0.1076 -0.1259  0.0762
 1232BOLB   C3B29555   8.178   9.088  35.084  0.1032  0.3590 -0.4795
 1232BOLB   C4B29556   7.948   8.889  35.300 -0.2343 -0.0116  0.0335
 1232BOLB   NC229557   5.992   7.600  36.402 -0.1623 -0.2153  0.0479
 1232BOLB   PO229558   5.870   7.559  35.966  0.1093 -0.2061  0.2336
 1232BOLB   GL329559   6.246   7.607  35.887  0.0716 -0.0756  0.3589
 1232BOLB   GL429560   6.409   7.774  36.101  0.0677  0.0839 -0.2679
 1232BOLB   C1C29561   6.590   7.549  35.690 -0.0704 -0.0271  0.1099
 1232BOLB   C2C29562   6.962   7.624  35.310 -0.2605  0.0603 -0.2156
 1232BOLB   C3C29563   7.060   8.024  35.170 -0.1433 -0.2245 -0.1324
 1232BOLB   C4C29564   7.347   8.357  35.214 -0.3892  0.3683 -0.2051
 1232BOLB   C1D29565   6.863   7.804  36.065 -0.1577 -0.3051 -0.0195
 1232BOLB   C2D29566   7.186   8.067  36.188  0.0313 -0.2543 -0.0419
 1232BOLB   C3D29567   7.504   8.452  36.149  0.0342  0.2058 -0.2559
 1232BOLB   C4D29568   7.642   8.904  36.023  0.2714 -0.0218  0.0068
 1233BOLB   NC129569  21.574   6.609  33.097 -0.1509  0.1216  0.0526
 1233BOLB   PO129570  21.412   6.749  33.396 -0.0602 -0.0489 -0.1215
 1233BOLB   GL129571  21.719   6.565  33.590  0.4135  0.5627 -0.1939
 1233BOLB   GL229572  22.078   6.726  33.554  0.1223  0.0240  0.1217
 1233BOLB   C1A29573  21.784   6.193  33.931  0.1567  0.2127  0.0970
 1233BOLB   C2A29574  21.609   5.941  34.075 -0.2863 -0.0543 -0.0032
 1233BOLB   C3A29575  21.623   5.616  34.311  0.1000  0.2846  0.1691
 1233BOLB   C4A29576  22.054   5.462  34.413  0.2759  0.0120  0.0070
 1233BOLB   C1B29577  22.212   6.369  33.576  0.1542 -0.1009  0.1794
 1233BOLB   C2B29578  22.260   6.020  33.901 -0.0886  0.1669 -0.0326
 1233BOLB   C3B29579  22.382   5.634  34.086  0.0130  0.1813 -0.1024
 1233BOLB   C4B29580  22.309   5.091  34.152 -0.1019 -0.0446  0.0332
 1233BOLB   NC229581  22.826   3.005  35.800  0.0032 -0.1129 -0.1781
 1233BOLB   PO229582  22.736   3.181  35.407  0.0450  0.0742 -0.0780
 1233BOLB   GL329583  22.692   3.678  35.150  0.0638  0.1075 -0.1123
 1233BOLB   GL429584  22.477   3.820  35.513  0.0181  0.1131  0.0119
 1233BOLB   C1C29585  22.802   4.148  35.022  0.0293 -0.0364  0.0927
 1233BOLB   C2C29586  22.653   4.645  34.939 -0.0840 -0.0630  0.0038
 1233BOLB   C3C29587  22.595   5.065  34.911 -0.1920  0.2389 -0.3672
 1233BOLB   C4C29588  22.461   5.347  34.554  0.2767 -0.1888  0.0331
 1233BOLB   C1D29589  22.320   4.024  35.141  0.0350 -0.4045  0.2343
 1233BOLB   C2D29590  21.893   4.287  35.087  0.0500  0.1287  0.1187
 1233BOLB   C3D29591  21.571   4.293  34.898  0.0793  0.1483  0.2527
 1233BOLB   C4D29592  21.247   4.616  34.778 -0.1056  0.1695 -0.2546
 1234BOLB   NC129593  10.791  14.136  22.290 -0.0202  0.1795  0.2930
 1234BOLB   PO129594  10.525  14.483  22.388  0.0197 -0.0377  0.2963
 1234BOLB   GL129595  10.329  14.356  22.118 -0.0617 -0.1881  0.2892
 1234BOLB   GL229596  10.248  14.075  22.157 -0.0574 -0.1620 -0.0781
 1234BOLB   C1A29597  10.079  14.394  21.737 -0.3934 -0.1975  0.1488
 1234BOLB   C2A29598   9.642  14.502  21.789 -0.1559 -0.1183 -0.2816
 1234BOLB   C3A29599   9.311  14.403  21.413  0.0947 -0.4413 -0.1156
 1234BOLB   C4A29600   9.463  14.373  21.002 -0.0817 -0.4129  0.0315
 1234BOLB   C1B29601   9.890  14.031  21.966 -0.0589 -0.2037  0.0904
 1234BOLB   C2B29602   9.759  14.115  21.514 -0.0786 -0.3500 -0.1375
 1234BOLB   C3B29603   9.914  14.420  21.227  0.1741  0.3831 -0.0628
 1234BOLB   C4B29604   9.705  14.756  21.259 -0.0094 -0.1242  0.0597
 1234BOLB   NC229605   8.594  14.059  18.388  0.2365 -0.0268 -0.0731
 1234BOLB   PO229606   8.645  14.340  18.774  0.0178 -0.0562  0.0279
 1234BOLB   GL329607   8.730  14.381  19.245  0.1216 -0.0438 -0.1514
 1234BOLB   GL429608   8.919  14.151  19.182  0.0181 -0.1532  0.1676
 1234BOLB   C1C29609   8.681  14.470  19.703 -0.3691  0.0087 -0.1070
 1234BOLB   C2C29610   8.908  14.285  19.999 -0.3532 -0.2515  0.0223
 1234BOLB   C3C29611   9.190  14.332  20.184  0.0695  0.0419 -0.1412
 1234BOLB   C4C29612   9.419  14.517  20.613 -0.0148 -0.0729  0.2449
 1234BOLB   C1D29613   9.136  14.298  19.556  0.0371  0.1625  0.0073
 1234BOLB   C2D29614   9.501  14.245  19.727 -0.1573  0.2509  0.0290
 1234BOLB   C3D29615   9.687  14.201  20.229  0.1417  0.2270 -0.0851
 1234BOLB   C4D29616  10.033  14.020  20.556 -0.0624  0.1949 -0.1620
 1235BOLB   NC129617   9.665  15.048  25.518  0.2142  0.0445 -0.3092
 1235BOLB   PO129618   9.357  14.969  25.236  0.0819 -0.1089 -0.0993
 1235BOLB   GL129619   9.045  14.900  24.876 -0.0377  0.0118  0.1078
 1235BOLB   GL229620   8.810  15.277  24.749 -0.0736  0.0954 -0.0187
 1235BOLB   C1A29621   8.844  14.815  24.590 -0.0750 -0.0380 -0.0669
 1235BOLB   C2A29622   8.572  14.821  24.210  0.0148  0.0602  0.0035
 1235BOLB   C3A29623   8.204  14.943  24.015 -0.3140  0.2362 -0.2441
 1235BOLB   C4A29624   7.843  15.018  23.931 -0.1261 -0.4599 -0.1263
 1235BOLB   C1B29625   8.460  15.193  24.571  0.3035 -0.4732  0.2532
 1235BOLB   C2B29626   8.057  15.330  24.390  0.0193 -0.2479 -0.1762
 1235BOLB   C3B29627   7.854  15.772  24.171 -0.3156 -0.2769 -0.1254
 1235BOLB   C4B29628   7.998  16.159  24.168  0.1260 -0.2687 -0.1759
 1235BOLB   NC229629   5.084  15.343  23.242 -0.1037  0.3022  0.5626
 1235BOLB   PO229630   5.428  15.556  23.374 -0.1156 -0.1398  0.0529
 1235BOLB   GL329631   5.898  15.537  23.371  0.1065  0.0599 -0.0741
 1235BOLB   GL429632   5.876  15.541  23.748  0.0125 -0.1763  0.1887
 1235BOLB   C1C29633   6.352  15.458  23.287 -0.0130 -0.1707 -0.0788
 1235BOLB   C2C29634   6.738  15.271  23.502  0.2370 -0.2217 -0.0943
 1235BOLB   C3C29635   7.060  15.004  23.591 -0.2065 -0.4321 -0.5042
 1235BOLB   C4C29636   7.485  14.865  23.770  0.0330 -0.2305 -0.0872
 1235BOLB   C1D29637   5.912  15.540  24.269 -0.3659  0.1269  0.1314
 1235BOLB   C2D29638   6.172  15.287  24.598 -0.0051  0.1364 -0.0136
 1235BOLB   C3D29639   6.378  15.158  25.059  0.0188 -0.0243  0.0486
 1235BOLB   C4D29640   6.730  15.009  25.207 -0.0493 -0.1610  0.2644
 1236BOLB   NC129641  14.727   7.675  37.601 -0.2238 -0.1233 -0.3166
 1236BOLB   PO129642  14.212   7.583  37.581 -0.0210 -0.0637 -0.1531
 1236BOLB   GL129643  14.135   7.251  37.943 -0.0011  0.1155 -0.0472
 1236BOLB   GL229644  13.870   7.017  37.820  0.2365  0.1239  0.1066
 1236BOLB   C1A29645  14.080   7.046  38.383  0.0169  0.0365  0.1079
 1236BOLB   C2A29646  13.819   6.964  38.725 -0.2402  0.2668 -0.2753
 1236BOLB   C3A29647  13.657   6.789  39.046 -0.1137  0.0392  0.0532
 1236BOLB   C4A29648  13.508   6.467  39.395  0.0184 -0.1178  0.1065
 1236BOLB   C1B29649  13.582   7.078  38.148  0.2367  0.0527  0.1130
 1236BOLB   C2B29650  13.318   7.015  38.545 -0.0197  0.0091 -0.0280
 1236BOLB   C3B29651  13.195   7.075  38.907  0.0859 -0.1841 -0.0647
 1236BOLB   C4B29652  13.003   7.093  39.338 -0.3163  0.0397  0.2036
 1236BOLB   NC229653  13.061   4.952  41.375 -0.1914  0.1301 -0.1615
 1236BOLB   PO229654  13.094   4.808  41.014 -0.3021  0.0235 -0.1965
 1236BOLB   GL329655  13.150   4.907  40.659 -0.1282  0.0900  0.2360
 1236BOLB   GL429656  13.478   4.885  40.447  0.0570 -0.4247  0.1161
 1236BOLB   C1C29657  13.094   5.180  40.386 -0.0946 -0.1846  0.2191
 1236BOLB   C2C29658  13.270   5.262  39.974 -0.2486  0.2426  0.0708
 1236BOLB   C3C29659  13.306   5.771  39.768  0.2240 -0.2839  0.1516
 1236BOLB   C4C29660  13.345   6.253  39.797  0.0322  0.1771 -0.0290
 1236BOLB   C1D29661  13.651   5.309  40.324 -0.0315 -0.0510  0.0659
 1236BOLB   C2D29662  13.786   5.672  40.182  0.2118 -0.1558  0.0280
 1236BOLB   C3D29663  13.931   5.851  39.985 -0.1423 -0.0888  0.2999
 1236BOLB   C4D29664  13.945   6.208  39.775 -0.1261  0.2208 -0.0674
 1237BOLB   NC129665  13.699  21.168  27.210 -0.0356  0.3403 -0.0031
 1237BOLB   PO129666  14.007  21.327  26.963 -0.2028  0.2540  0.2675
 1237BOLB   GL129667  13.949  21.552  26.699 -0.1119  0.2928 -0.1317
 1237BOLB   GL229668  13.657  21.735  26.631  0.2199  0.1057  0.0388
 1237BOLB   C1A29669  14.143  21.911  26.577 -0.1633  0.1720 -0.1776
 1237BOLB   C2A29670  14.126  22.335  26.527  0.1605  0.1361 -0.1187
 1237BOLB   C3A29671  13.828  22.669  26.494  0.0736  0.0038  0.1231
 1237BOLB   C4A29672  13.635  22.926  26.183 -0.1025  0.0144  0.0434
 1237BOLB   C1B29673  13.696  22.093  26.329  0.2388 -0.0099 -0.1536
 1237BOLB   C2B29674  13.640  22.414  26.122 -0.1780  0.1929 -0.2747
 1237BOLB   C3B29675  13.349  22.694  25.765  0.0229 -0.2476 -0.0407
 1237BOLB   C4B29676  13.542  22.652  25.370 -0.0263 -0.2052 -0.1591
 1237BOLB   NC229677  12.961  24.757  25.709 -0.0516 -0.0644 -0.0940
 1237BOLB   PO229678  13.296  25.054  25.914  0.0599 -0.1323 -0.2309
 1237BOLB   GL329679  13.405  24.718  26.001 -0.0967  0.1418 -0.0383
 1237BOLB   GL429680  13.300  24.650  26.301 -0.1714  0.2365  0.2147
 1237BOLB   C1C29681  13.315  24.210  25.944 -0.2275 -0.0375 -0.0324
 1237BOLB   C2C29682  13.348  23.828  25.687  0.1153  0.3464 -0.1991
 1237BOLB   C3C29683  13.405  23.504  25.875  0.2217  0.1224 -0.2085
 1237BOLB   C4C29684  13.392  23.120  25.984 -0.2646 -0.3212  0.2191
 1237BOLB   C1D29685  12.941  24.630  26.602 -0.4419  0.1327  0.2368
 1237BOLB   C2D29686  12.794  24.272  26.743 -0.1625  0.1989  0.0558
 1237BOLB   C3D29687  13.009  24.104  27.028  0.4863  0.3217  0.1618
 1237BOLB   C4D29688  13.075  23.677  27.136  0.0464  0.1112 -0.0056
 1238BOLB   NC129689   7.408  15.684  29.747  0.0941 -0.0525  0.1713
 1238BOLB   PO129690   7.735  15.744  29.395  0.0360 -0.1414  0.0029
 1238BOLB   GL129691   7.369  15.740  29.123  0.0309 -0.2213 -0.4011
 1238BOLB   GL229692   7.282  15.552  28.939 -0.0409  0.1571 -0.0931
 1238BOLB   C1A29693   6.958  15.880  29.122 -0.4353 -0.1529 -0.0470
 1238BOLB   C2A29694   6.676  16.038  28.862 -0.4288 -0.0644  0.0695
 1238BOLB   C3A29695   6.276  15.832  28.682 -0.0651 -0.0899 -0.3258
 1238BOLB   C4A29696   6.004  15.905  28.373  0.4627 -0.0935 -0.3794
 1238BOLB   C1B29697   6.942  15.696  28.636 -0.3385  0.3510  0.2390
 1238BOLB   C2B29698   6.789  15.758  28.337  0.1694  0.0916  0.2742
 1238BOLB   C3B29699   6.824  15.873  27.961 -0.1624 -0.1644  0.2003
 1238BOLB   C4B29700   7.107  16.128  27.704  0.0823 -0.0198  0.0856
 1238BOLB   NC229701   3.556  16.321  28.826  0.0887  0.0610  0.2312
 1238BOLB   PO229702   3.852  16.286  28.474 -0.0707 -0.1983 -0.3169
 1238BOLB   GL329703   4.159  16.110  28.245  0.0765  0.2565 -0.2203
 1238BOLB   GL429704   4.318  15.962  28.526 -0.0455 -0.0107  0.3397
 1238BOLB   C1C29705   4.576  16.116  27.979  0.2691  0.0704 -0.1619
 1238BOLB   C2C29706   4.907  16.211  27.915  0.0538  0.2391  0.0217
 1238BOLB   C3C29707   5.242  16.423  28.106  0.1288  0.3769  0.0447
 1238BOLB   C4C29708   5.726  16.161  28.093  0.3007 -0.1143  0.3556
 1238BOLB   C1D29709   4.424  15.629  28.552 -0.1865  0.1094 -0.2347
 1238BOLB   C2D29710   4.919  15.473  28.563  0.3467 -0.1289 -0.3101
 1238BOLB   C3D29711   5.384  15.454  28.772 -0.1548 -0.4311  0.1936
 1238BOLB   C4D29712   5.810  15.620  28.679 -0.2994  0.1043  0.3176
 1239BOLB   NC129713  13.598  21.277  18.097 -0.2878 -0.0016 -0.0928
 1239BOLB   PO129714  13.730  20.873  18.317 -0.0245 -0.0827 -0.2917
 1239BOLB   GL129715  13.938  20.657  18.545 -0.0643 -0.1315  0.0228
 1239BOLB   GL229716  14.100  20.272  18.501  0.1148  0.1516  0.0357
 1239BOLB   C1A29717  13.843  20.605  18.985 -0.2091 -0.1739 -0.1964
 1239BOLB   C2A29718  13.977  20.351  19.272 -0.0518 -0.1877 -0.2331
 1239BOLB   C3A29719  14.064  20.166  19.632 -0.0370 -0.0123  0.0644
 1239BOLB   C4A29720  14.248  19.767  19.724  0.0026  0.4891 -0.0915
 1239BOLB   C1B29721  14.067  19.969  18.867 -0.2068 -0.1726 -0.0407
 1239BOLB   C2B29722  14.179  19.848  19.216  0.0425 -0.4459 -0.0131
 1239BOLB   C3B29723  14.398  19.415  19.352 -0.1676  0.1825  0.1812
 1239BOLB   C4B29724  14.685  19.179  19.712  0.0776  0.2375 -0.1077
 1239BOLB   NC229725  15.371  21.407  18.810 -0.1274  0.2928 -0.1182
 1239BOLB   PO229726  14.958  21.487  18.687  0.0582 -0.0334 -0.0493
 1239BOLB   GL329727  14.976  21.066  18.917 -0.1624  0.1294  0.0135
 1239BOLB   GL429728  14.720  20.935  18.869  0.0204 -0.2394 -0.0616
 1239BOLB   C1C29729  15.113  20.723  19.211 -0.0055  0.2198  0.1839
 1239BOLB   C2C29730  15.036  20.356  19.368  0.1800  0.1732 -0.1720
 1239BOLB   C3C29731  14.964  19.997  19.464  0.1649  0.3415  0.0743
 1239BOLB   C4C29732  14.675  19.708  19.700  0.2128 -0.0384  0.0971
 1239BOLB   C1D29733  14.551  20.790  19.224  0.1857 -0.0729  0.0132
 1239BOLB   C2D29734  14.363  20.772  19.533  0.6202  0.0807 -0.0324
 1239BOLB   C3D29735  14.256  20.575  19.941  0.0936 -0.2029 -0.0985
 1239BOLB   C4D29736  14.176  20.301  20.389  0.2090 -0.2060  0.1335
 1240BOLB   NC129737  12.337  13.818  39.076 -0.0615  0.0535  0.4177
 1240BOLB   PO129738  12.212  14.141  38.842 -0.0381 -0.0464  0.0223
 1240BOLB   GL129739  11.778  14.182  38.972  0.0289 -0.0836 -0.2361
 1240BOLB   GL229740  11.602  13.940  39.018  0.3868  0.0563  0.0741
 1240BOLB   C1A29741  11.561  14.567  39.134 -0.1573  0.0854  0.2613
 1240BOLB   C2A29742  11.665  14.806  39.541  0.0325  0.1659 -0.2037
 1240BOLB   C3A29743  11.414  14.952  39.991 -0.0883  0.2128  0.3195
 1240BOLB   C4A29744  11.034  15.109  40.289  0.1351 -0.3832  0.1240
 1240BOLB   C1B29745  11.256  14.184  39.159 -0.1320 -0.4726  0.0315
 1240BOLB   C2B29746  11.000  14.368  39.325 -0.1391 -0.0772  0.0026
 1240BOLB   C3B29747  11.083  14.702  39.515 -0.1978 -0.2840 -0.2743
 1240BOLB   C4B29748  11.003  15.117  39.625  0.1009  0.1055  0.0064
 1240BOLB   NC229749   9.412  15.633  41.786 -0.0323  0.2065  0.4456
 1240BOLB   PO229750   9.555  15.954  41.409 -0.2875  0.0671 -0.3550
 1240BOLB   GL329751   9.801  16.022  41.069 -0.0901  0.0696  0.2005
 1240BOLB   GL429752   9.705  15.666  40.853 -0.4006  0.0712 -0.1393
 1240BOLB   C1C29753  10.089  15.990  40.725  0.0475  0.2035 -0.0380
 1240BOLB   C2C29754  10.241  15.873  40.410  0.1156  0.1161 -0.0125
 1240BOLB   C3C29755  10.356  15.687  39.999 -0.0194 -0.1615  0.0343
 1240BOLB   C4C29756  10.764  15.429  39.994 -0.1617  0.0813  0.1655
 1240BOLB   C1D29757   9.804  15.681  40.469  0.1624 -0.1399  0.1340
 1240BOLB   C2D29758  10.001  15.378  40.210  0.3684  0.2385  0.0363
 1240BOLB   C3D29759  10.134  15.213  39.748 -0.0270  0.0384 -0.1604
 1240BOLB   C4D29760  10.512  14.968  39.730 -0.0025  0.1382  0.1674
 1241BOLB   NC129761  12.747  10.157  38.177  0.0206 -0.0641 -0.2830
 1241BOLB   PO129762  12.267  10.219  38.290 -0.0919  0.2880 -0.2613
 1241BOLB   GL129763  12.085  10.060  38.595  0.1953 -0.0008  0.1577
 1241BOLB   GL229764  11.909   9.725  38.663 -0.2059  0.0261  0.2745
 1241BOLB   C1A29765  12.119   9.987  39.083 -0.0144 -0.0927  0.2589
 1241BOLB   C2A29766  11.985   9.760  39.537 -0.0010  0.2389  0.0367
 1241BOLB   C3A29767  11.894   9.747  40.015  0.3448 -0.1820  0.2128
 1241BOLB   C4A29768  11.675   9.851  40.413 -0.0997 -0.2499  0.2344
 1241BOLB   C1B29769  11.817   9.410  39.030  0.1024 -0.2229 -0.1835
 1241BOLB   C2B29770  11.860   9.289  39.421  0.2624  0.0797  0.1189
 1241BOLB   C3B29771  11.830   9.269  39.820 -0.1844  0.1170  0.0439
 1241BOLB   C4B29772  11.816   9.134  40.295  0.2412 -0.1193  0.1662
 1241BOLB   NC229773  11.348   8.835  42.666  0.1596  0.0011  0.4070
 1241BOLB   PO229774  11.662   8.513  42.495 -0.0221  0.1817  0.0654
 1241BOLB   GL329775  11.425   8.870  42.152 -0.1261 -0.4545 -0.2634
 1241BOLB   GL429776  11.377   9.216  42.225 -0.1534 -0.0146  0.0119
 1241BOLB   C1C29777  11.282   8.963  41.669 -0.0092  0.0577 -0.1089
 1241BOLB   C2C29778  11.253   9.201  41.353 -0.1353 -0.1678 -0.0349
 1241BOLB   C3C29779  11.439   9.416  41.130  0.0546 -0.2568  0.0014
 1241BOLB   C4C29780  11.553   9.655  40.801 -0.1770  0.1035  0.0587
 1241BOLB   C1D29781  11.477   9.454  41.804  0.0742  0.0524  0.0009
 1241BOLB   C2D29782  11.506   9.799  41.604  0.3930 -0.2901  0.1462
 1241BOLB   C3D29783  11.365   9.913  41.277  0.0751 -0.2044  0.1363
 1241BOLB   C4D29784  11.208  10.042  40.942  0.0505 -0.1647 -0.0104
 1242BOLB   NC129785  22.818   8.104  40.957 -0.0022 -0.2658 -0.2310
 1242BOLB   PO129786  22.830   8.529  41.129  0.3620  0.5786 -0.0259
 1242BOLB   GL129787  22.398   8.686  41.065 -0.1415 -0.1089  0.3379
 1242BOLB   GL229788  22.230   8.397  41.131  0.2773 -0.2079  0.2318
 1242BOLB   C1A29789  21.968   8.870  41.131 -0.0419  0.1315  0.0667
 1242BOLB   C2A29790  21.925   9.245  41.184  0.0524  0.3454  0.1198
 1242BOLB   C3A29791  21.790   9.488  41.541 -0.1712  0.0232 -0.0982
 1242BOLB   C4A29792  21.386   9.784  41.614  0.0539 -0.2482 -0.1694
 1242BOLB   C1B29793  22.153   8.578  40.656 -0.0284 -0.3273  0.1029
 1242BOLB   C2B29794  21.889   8.892  40.538  0.1042  0.0886 -0.2276
 1242BOLB   C3B29795  21.505   8.997  40.773 -0.0551  0.0328  0.1882
 1242BOLB   C4B29796  21.077   8.804  40.645  0.0144 -0.1476 -0.0840
 1242BOLB   NC229797  20.949   9.565  42.992  0.0424 -0.0804 -0.2507
 1242BOLB   PO229798  21.196   9.981  42.964  0.1673  0.0058 -0.0561
 1242BOLB   GL329799  20.923  10.194  42.533  0.1306  0.1754  0.1693
 1242BOLB   GL429800  20.645  10.062  42.524 -0.2764  0.3012  0.1716
 1242BOLB   C1C29801  20.763  10.336  42.068  0.1301  0.2786 -0.0041
 1242BOLB   C2C29802  20.530  10.311  41.708 -0.3731 -0.1644 -0.1327
 1242BOLB   C3C29803  20.609  10.020  41.425  0.0027 -0.0381  0.2194
 1242BOLB   C4C29804  20.960   9.658  41.499  0.1560 -0.0169 -0.0538
 1242BOLB   C1D29805  20.575   9.890  42.028 -0.0315 -0.0946  0.2252
 1242BOLB   C2D29806  20.132   9.877  41.730  0.3361  0.0237  0.2460
 1242BOLB   C3D29807  20.002   9.577  41.451  0.6726 -0.1830 -0.1621
 1242BOLB   C4D29808  19.971   9.512  41.061  0.1821 -0.2274 -0.0233
 1243BOLB   NC129809  19.771   5.190  32.624  0.0785  0.0875  0.1684
 1243BOLB   PO129810  20.149   5.343  32.349 -0.1242  0.1240  0.3204
 1243BOLB   GL129811  20.241   4.956  32.555 -0.0381 -0.1435  0.1228
 1243BOLB   GL229812  20.476   5.005  32.636  0.0513  0.1268 -0.2445
 1243BOLB   C1A29813  20.237   4.779  33.064 -0.1185 -0.2861  0.3484
 1243BOLB   C2A29814  20.476   4.552  33.342  0.2329 -0.2708 -0.1980
 1243BOLB   C3A29815  20.682   4.235  33.439  0.0813 -0.2037  0.2095
 1243BOLB   C4A29816  20.955   3.919  33.410  0.2182 -0.1565 -0.3659
 1243BOLB   C1B29817  20.773   4.583  32.826 -0.2161  0.0839  0.2366
 1243BOLB   C2B29818  20.901   4.191  32.914  0.1874  0.0539  0.1060
 1243BOLB   C3B29819  21.012   3.747  32.964 -0.2299  0.1773 -0.0541
 1243BOLB   C4B29820  21.326   3.435  33.107  0.0502 -0.2886 -0.1640
 1243BOLB   NC229821  21.981   1.825  34.919  0.2975 -0.0832 -0.0576
 1243BOLB   PO229822  22.365   2.249  34.942 -0.0880 -0.3462 -0.0576
 1243BOLB   GL329823  22.157   2.610  34.741 -0.2893  0.0109  0.0161
 1243BOLB   GL429824  22.067   2.599  34.366  0.0731 -0.0430 -0.3748
 1243BOLB   C1C29825  21.728   2.854  34.678  0.0920 -0.0344  0.1621
 1243BOLB   C2C29826  21.440   2.988  34.241  0.1366  0.1592  0.0748
 1243BOLB   C3C29827  21.132   3.286  33.983  0.2839 -0.1656  0.2085
 1243BOLB   C4C29828  21.047   3.562  33.659  0.1429 -0.1471  0.3940
 1243BOLB   C1D29829  21.652   2.525  34.206  0.1205 -0.0524 -0.2340
 1243BOLB   C2D29830  21.284   2.554  33.945 -0.0577 -0.2276  0.0708
 1243BOLB   C3D29831  21.037   2.799  33.849  0.3302 -0.3278  0.0182
 1243BOLB   C4D29832  20.644   2.925  33.887 -0.0941 -0.1644  0.1126
 1244BOLB   NC129833  10.424  18.979  33.668  0.1441  0.3127 -0.0433
 1244BOLB   PO129834  10.447  19.106  34.072 -0.2118  0.1996 -0.1677
 1244BOLB   GL129835  10.071  19.331  34.236 -0.3814  0.1849  0.0032
 1244BOLB   GL229836  10.291  19.590  34.346  0.1697 -0.1551 -0.0439
 1244BOLB   C1A29837   9.834  19.675  34.476  0.1942 -0.1305  0.3066
 1244BOLB   C2A29838   9.521  19.780  34.625 -0.1363 -0.1904 -0.1454
 1244BOLB   C3A29839   9.272  20.066  34.853  0.0588 -0.0290 -0.0051
 1244BOLB   C4A29840   8.973  20.037  35.179 -0.4825  0.0723 -0.1883
 1244BOLB   C1B29841  10.245  19.927  34.497 -0.0521  0.0667 -0.1663
 1244BOLB   C2B29842  10.283  20.429  34.626  0.3490 -0.2972 -0.0341
 1244BOLB   C3B29843  10.302  20.686  34.882  0.1389  0.0562 -0.1533
 1244BOLB   C4B29844  10.234  20.677  35.313  0.0641 -0.2462  0.0728
 1244BOLB   NC229845   7.599  20.970  36.770 -0.1889 -0.4386  0.0025
 1244BOLB   PO229846   7.758  20.871  37.202  0.1520  0.0081  0.5200
 1244BOLB   GL329847   7.782  20.510  36.936  0.1409  0.1901  0.0052
 1244BOLB   GL429848   7.794  20.099  37.097 -0.1392  0.2251  0.1768
 1244BOLB   C1C29849   7.901  20.201  36.556 -0.0975  0.0317 -0.2519
 1244BOLB   C2C29850   8.267  19.960  36.247  0.0759 -0.1329 -0.3040
 1244BOLB   C3C29851   8.698  19.942  35.881  0.0844  0.2684 -0.2873
 1244BOLB   C4C29852   8.802  19.922  35.533 -0.5029 -0.0822 -0.0979
 1244BOLB   C1D29853   8.050  19.742  37.083  0.1276 -0.0128 -0.2629
 1244BOLB   C2D29854   8.130  19.546  36.673 -0.2524 -0.0479  0.3357
 1244BOLB   C3D29855   8.299  19.364  36.417 -0.1360 -0.1377 -0.0204
 1244BOLB   C4D29856   8.534  19.155  36.187 -0.1886  0.2229 -0.0338
 1245BOLB   NC129857   8.335  18.593  31.311  0.2474  0.0277 -0.0803
 1245BOLB   PO129858   8.306  18.809  30.932  0.0895  0.2527  0.0734
 1245BOLB   GL129859   8.357  19.314  30.772 -0.2228 -0.2353 -0.1541
 1245BOLB   GL229860   8.552  19.470  31.027 -0.2984  0.0222  0.3116
 1245BOLB   C1A29861   7.907  19.413  30.897 -0.3481  0.1258 -0.2522
 1245BOLB   C2A29862   7.728  19.620  31.237  0.0555 -0.1882  0.3262
 1245BOLB   C3A29863   7.608  19.617  31.587 -0.1271 -0.0011 -0.0083
 1245BOLB   C4A29864   7.500  19.744  31.956  0.3156  0.0270  0.1346
 1245BOLB   C1B29865   8.422  19.827  30.704  0.2502  0.2552 -0.1256
 1245BOLB   C2B29866   8.032  19.969  30.545  0.0058  0.0996  0.1790
 1245BOLB   C3B29867   7.772  20.226  30.455 -0.1676 -0.1695  0.0007
 1245BOLB   C4B29868   7.761  20.684  30.333  0.1047 -0.0722 -0.0818
 1245BOLB   NC229869   5.660  20.771  33.215 -0.0794 -0.1859 -0.2564
 1245BOLB   PO229870   5.612  20.369  33.032 -0.3638 -0.2360  0.1583
 1245BOLB   GL329871   5.752  20.419  32.651 -0.1951 -0.3234  0.1746
 1245BOLB   GL429872   5.774  20.086  32.651 -0.0008  0.1354 -0.0865
 1245BOLB   C1C29873   6.180  20.393  32.410 -0.0668  0.0013 -0.1124
 1245BOLB   C2C29874   6.634  20.209  32.392  0.0274  0.0393 -0.0585
 1245BOLB   C3C29875   6.815  19.868  32.161  0.0134  0.2066  0.1946
 1245BOLB   C4C29876   7.170  19.789  32.192  0.1667 -0.0878  0.3626
 1245BOLB   C1D29877   5.814  19.661  32.624  0.1806 -0.4519  0.0615
 1245BOLB   C2D29878   6.117  19.365  32.736 -0.2377 -0.1434  0.2256
 1245BOLB   C3D29879   6.357  19.068  32.704 -0.2604  0.1332  0.2185
 1245BOLB   C4D29880   6.723  18.924  32.435  0.2448 -0.4548  0.0689
 1246BOLB   NC129881  19.880   9.008  38.161  0.2083  0.1823 -0.1646
 1246BOLB   PO129882  19.719   8.653  38.070 -0.1491 -0.0148  0.0017
 1246BOLB   GL129883  19.927   8.488  38.308 -0.0405 -0.0928  0.1629
 1246BOLB   GL229884  19.813   8.330  38.656 -0.0610  0.0418  0.0424
 1246BOLB   C1A29885  20.309   8.293  38.554  0.0640  0.0078  0.1112
 1246BOLB   C2A29886  20.497   7.936  38.679 -0.0543 -0.3287 -0.1317
 1246BOLB   C3A29887  20.801   7.536  38.668  0.0845 -0.0234  0.0818
 1246BOLB   C4A29888  21.009   7.139  38.669  0.0851  0.1589 -0.2386
 1246BOLB   C1B29889  19.974   7.998  39.051 -0.1263  0.0250  0.0798
 1246BOLB   C2B29890  20.042   7.522  39.290  0.2145  0.0600 -0.0214
 1246BOLB   C3B29891  19.649   7.276  39.320 -0.2025  0.0662 -0.1925
 1246BOLB   C4B29892  19.361   6.962  39.372 -0.0536  0.0571  0.0544
 1246BOLB   NC229893  22.613   5.105  39.207 -0.0153 -0.0130 -0.0184
 1246BOLB   PO229894  22.998   5.338  39.117  0.0540 -0.2069  0.1859
 1246BOLB   GL329895  22.652   5.411  38.701  0.4867  0.2428  0.1148
 1246BOLB   GL429896  22.344   5.279  38.770  0.2523 -0.1252 -0.1205
 1246BOLB   C1C29897  22.211   5.731  38.739 -0.2480  0.0302  0.2443
 1246BOLB   C2C29898  21.938   6.137  38.690  0.2030  0.1225 -0.2519
 1246BOLB   C3C29899  21.697   6.551  38.658  0.2235  0.2367 -0.6340
 1246BOLB   C4C29900  21.347   6.811  38.597 -0.0670  0.0387 -0.2492
 1246BOLB   C1D29901  21.924   5.342  38.728  0.0983 -0.2924  0.2338
 1246BOLB   C2D29902  21.701   5.696  38.880 -0.1796  0.0599  0.4685
 1246BOLB   C3D29903  21.713   6.104  39.096 -0.1744  0.0018 -0.2566
 1246BOLB   C4D29904  21.421   6.522  39.078  0.2654 -0.2556  0.2912
 1247BOLB   NC129905  18.316  19.332  31.531 -0.0453  0.2148 -0.0336
 1247BOLB   PO129906  18.681  19.486  31.567  0.0746 -0.0902  0.1278
 1247BOLB   GL129907  18.637  19.966  31.478 -0.0966  0.0361  0.1043
 1247BOLB   GL229908  18.266  20.128  31.465  0.0989  0.0371 -0.0401
 1247BOLB   C1A29909  18.729  20.228  31.189  0.0055  0.0786  0.1697
 1247BOLB   C2A29910  18.781  20.670  30.845 -0.0745  0.1181 -0.2056
 1247BOLB   C3A29911  18.847  20.957  30.484  0.0161 -0.2945 -0.2707
 1247BOLB   C4A29912  18.964  21.316  30.277 -0.0967  0.0528 -0.2158
 1247BOLB   C1B29913  18.069  20.519  31.409 -0.0716  0.0068 -0.0500
 1247BOLB   C2B29914  18.188  20.887  31.529 -0.1355  0.0512  0.1043
 1247BOLB   C3B29915  18.234  21.161  31.842  0.2023 -0.1947 -0.0300
 1247BOLB   C4B29916  18.224  21.496  32.077  0.0002 -0.5595  0.0492
 1247BOLB   NC229917  20.783  23.476  30.618  0.0849 -0.1486 -0.0803
 1247BOLB   PO229918  20.633  23.074  30.495  0.1515 -0.1598 -0.1029
 1247BOLB   GL329919  20.265  22.844  30.421  0.0750  0.0435 -0.1009
 1247BOLB   GL429920  20.160  23.006  30.227  0.2055  0.1433  0.0109
 1247BOLB   C1C29921  20.061  22.523  30.476 -0.3828  0.2061 -0.2417
 1247BOLB   C2C29922  19.727  22.243  30.499 -0.3009  0.0203  0.0871
 1247BOLB   C3C29923  19.396  21.983  30.421 -0.2470 -0.0201  0.4090
 1247BOLB   C4C29924  19.080  21.681  30.334 -0.3521 -0.1900  0.0411
 1247BOLB   C1D29925  19.837  22.630  30.014 -0.1882 -0.0015 -0.1923
 1247BOLB   C2D29926  19.534  22.229  29.894 -0.1567 -0.3567  0.1813
 1247BOLB   C3D29927  19.242  21.847  29.909 -0.0808 -0.0004 -0.0475
 1247BOLB   C4D29928  18.944  21.559  29.859 -0.1591  0.1811  0.0009
 1248BOLB   NC129929  19.548   4.743  26.703  0.2041  0.0283 -0.1015
 1248BOLB   PO129930  19.878   4.682  27.006  0.0474 -0.1901  0.0316
 1248BOLB   GL129931  19.821   4.275  26.964 -0.0421  0.0165 -0.0125
 1248BOLB   GL229932  20.009   4.190  27.119 -0.0536 -0.0250 -0.0636
 1248BOLB   C1A29933  19.635   3.856  27.001 -0.1097 -0.3159 -0.1409
 1248BOLB   C2A29934  19.553   3.476  27.296  0.2048  0.1589 -0.2283
 1248BOLB   C3A29935  19.447   3.036  27.551  0.0423 -0.0240 -0.0523
 1248BOLB   C4A29936  19.399   2.541  27.401  0.0291 -0.0452 -0.2549
 1248BOLB   C1B29937  20.257   3.981  26.833 -0.1085  0.1846  0.1411
 1248BOLB   C2B29938  20.324   3.792  26.361 -0.2580  0.4541 -0.1354
 1248BOLB   C3B29939  20.082   3.512  26.234  0.3219 -0.0039  0.0515
 1248BOLB   C4B29940  19.966   3.136  25.939  0.0077  0.2701 -0.1856
 1248BOLB   NC229941  20.958   0.710  27.697  0.2282 -0.0491 -0.0206
 1248BOLB   PO229942  20.989   0.763  27.332 -0.0247  0.0984 -0.2369
 1248BOLB   GL329943  20.707   0.956  27.097 -0.4153  0.1069 -0.1492
 1248BOLB   GL429944  20.614   1.168  27.444 -0.2232 -0.0562 -0.2071
 1248BOLB   C1C29945  20.312   1.260  27.077  0.0804  0.0339  0.0316
 1248BOLB   C2C29946  19.993   1.533  27.253 -0.0116  0.2607 -0.0468
 1248BOLB   C3C29947  19.622   1.833  27.128  0.4789 -0.0103 -0.1553
 1248BOLB   C4C29948  19.434   2.095  27.290  0.4240 -0.2044 -0.1909
 1248BOLB   C1D29949  20.724   1.613  27.342  0.1619  0.0334 -0.1729
 1248BOLB   C2D29950  20.812   2.023  27.436  0.0979  0.1902 -0.2219
 1248BOLB   C3D29951  20.685   2.312  27.729  0.1960  0.0668 -0.3149
 1248BOLB   C4D29952  20.650   2.547  28.130 -0.1554 -0.1234  0.1096
 1249BOLB   NC129953  14.506  20.649  31.915 -0.0508 -0.4675  0.0121
 1249BOLB   PO129954  14.826  20.604  31.673  0.2107 -0.2819 -0.0621
 1249BOLB   GL129955  14.877  21.078  31.678 -0.3275  0.0165  0.1486
 1249BOLB   GL229956  14.789  21.261  31.436 -0.0270  0.1004  0.0173
 1249BOLB   C1A29957  15.166  21.392  31.989  0.2152  0.1102 -0.0047
 1249BOLB   C2A29958  15.484  21.522  32.029 -0.2462 -0.0901 -0.1187
 1249BOLB   C3A29959  15.542  21.990  32.027 -0.0520  0.1777  0.4901
 1249BOLB   C4A29960  15.740  22.398  31.966  0.2333 -0.0124  0.1294
 1249BOLB   C1B29961  15.098  21.531  31.086 -0.0614  0.0660  0.3242
 1249BOLB   C2B29962  15.252  21.978  31.027  0.3778 -0.0141  0.0385
 1249BOLB   C3B29963  15.363  22.459  31.042  0.2918  0.0329 -0.0005
 1249BOLB   C4B29964  15.353  22.907  31.051 -0.2054  0.1275  0.0691
 1249BOLB   NC229965  17.031  24.552  32.671  0.2015 -0.0084  0.2962
 1249BOLB   PO229966  16.870  24.245  32.734  0.0572  0.1556 -0.2503
 1249BOLB   GL329967  17.037  23.909  32.500  0.0232 -0.1196 -0.0665
 1249BOLB   GL429968  17.364  23.908  32.450  0.0990  0.1240 -0.1692
 1249BOLB   C1C29969  16.726  23.538  32.500 -0.3691 -0.2904  0.3705
 1249BOLB   C2C29970  16.286  23.355  32.791  0.0803  0.0294  0.2187
 1249BOLB   C3C29971  15.983  23.098  32.442  0.0790 -0.1215  0.1064
 1249BOLB   C4C29972  16.033  22.764  32.146  0.1389  0.1827  0.2826
 1249BOLB   C1D29973  17.411  23.594  32.300  0.1745  0.2459 -0.1071
 1249BOLB   C2D29974  17.162  23.231  32.340 -0.0111 -0.1310 -0.3050
 1249BOLB   C3D29975  17.071  22.831  32.449  0.0082  0.0776 -0.0864
 1249BOLB   C4D29976  16.819  22.451  32.632  0.0995  0.1193 -0.1545
 1250BOLB   NC129977  16.244   6.527  36.387  0.2691  0.2235  0.1300
 1250BOLB   PO129978  16.089   6.137  36.692  0.1259 -0.1761  0.1535
 1250BOLB   GL129979  15.913   5.940  36.986  0.1178  0.1995 -0.0278
 1250BOLB   GL229980  15.754   5.617  36.923 -0.2568 -0.0507  0.1096
 1250BOLB   C1A29981  15.662   6.015  37.345 -0.2750 -0.2995  0.0548
 1250BOLB   C2A29982  15.534   5.854  37.737  0.0205 -0.0131  0.1540
 1250BOLB   C3A29983  15.487   5.552  38.143  0.0850 -0.0240 -0.6029
 1250BOLB   C4A29984  15.588   5.366  38.433 -0.2267  0.0174 -0.0773
 1250BOLB   C1B29985  15.936   5.606  37.353 -0.1163 -0.2897  0.1968
 1250BOLB   C2B29986  15.841   5.421  37.790 -0.1449 -0.1218 -0.2807
 1250BOLB   C3B29987  15.802   4.981  37.926  0.1542 -0.0791 -0.0892
 1250BOLB   C4B29988  15.828   4.558  37.750 -0.1584  0.2962  0.3512
 1250BOLB   NC229989  16.341   4.498  40.333  0.1877 -0.2880 -0.3640
 1250BOLB   PO229990  15.960   4.561  40.510 -0.0447 -0.1599  0.0355
 1250BOLB   GL329991  15.909   4.759  40.115  0.0009  0.2188 -0.3642
 1250BOLB   GL429992  16.172   5.018  40.111  0.4081 -0.0213 -0.0460
 1250BOLB   C1C29993  15.631   4.869  39.851  0.2953  0.1200 -0.1325
 1250BOLB   C2C29994  15.342   4.961  39.488  0.0711 -0.0140  0.5676
 1250BOLB   C3C29995  15.194   4.892  39.060 -0.0674  0.0292 -0.2036
 1250BOLB   C4C29996  15.466   5.075  38.721  0.1223 -0.0165 -0.0435
 1250BOLB   C1D29997  16.456   5.008  39.778 -0.0068  0.0582 -0.2261
 1250BOLB   C2D29998  16.837   4.934  39.670  0.0454 -0.0214  0.0319
 1250BOLB   C3D29999  16.983   4.727  39.275  0.0031  0.0245  0.3106
 1250BOLB   C4D30000  17.053   4.844  38.809 -0.1740  0.0293 -0.0506
 1251BOLB   NC130001  20.328   6.972  36.068 -0.0315  0.1677 -0.4253
 1251BOLB   PO130002  20.659   7.070  36.402 -0.0140 -0.2365 -0.1375
 1251BOLB   GL130003  21.036   6.817  36.459  0.0242 -0.4043 -0.0072
 1251BOLB   GL230004  20.923   6.679  36.704  0.2696 -0.1101  0.0129
 1251BOLB   C1A30005  21.405   6.734  36.526 -0.0041 -0.2710  0.0287
 1251BOLB   C2A30006  21.631   6.403  36.431 -0.1265  0.0903 -0.1559
 1251BOLB   C3A30007  21.613   6.101  36.644 -0.1162 -0.0013  0.4296
 1251BOLB   C4A30008  21.665   5.774  36.877 -0.0398 -0.3114  0.1004
 1251BOLB   C1B30009  21.321   6.495  36.950 -0.2593  0.0236 -0.2104
 1251BOLB   C2B30010  21.737   6.337  37.029 -0.1120 -0.2674 -0.3822
 1251BOLB   C3B30011  22.102   6.540  36.874  0.0888 -0.0161 -0.1613
 1251BOLB   C4B30012  22.408   6.711  36.927 -0.3961 -0.1454 -0.1049
 1251BOLB   NC230013  21.257   3.486  37.674  0.3343 -0.3126 -0.2316
 1251BOLB   PO230014  21.649   3.652  37.817 -0.5125 -0.0587 -0.2366
 1251BOLB   GL330015  21.631   4.037  37.678  0.0824  0.1022  0.1672
 1251BOLB   GL430016  21.895   4.165  37.642  0.3088 -0.1182 -0.1968
 1251BOLB   C1C30017  21.406   4.329  37.528 -0.3494 -0.1445  0.2105
 1251BOLB   C2C30018  21.415   4.745  37.467  0.0645  0.3508 -0.1700
 1251BOLB   C3C30019  21.338   5.069  37.030  0.1011 -0.0990  0.0924
 1251BOLB   C4C30020  21.479   5.394  37.026  0.1687 -0.4779  0.1725
 1251BOLB   C1D30021  21.866   4.527  37.646 -0.1255  0.1209 -0.1486
 1251BOLB   C2D30022  21.907   4.833  37.385  0.3474 -0.2149  0.2605
 1251BOLB   C3D30023  21.877   4.982  36.994  0.2954  0.2077 -0.1179
 1251BOLB   C4D30024  21.684   5.112  36.636  0.3307 -0.2199  0.0715
 1252BOLB   NC130025   6.144  16.086  39.130  0.0478 -0.0967  0.1223
 1252BOLB   PO130026   6.449  16.256  38.800 -0.0273  0.2001  0.0369
 1252BOLB   GL130027   6.398  15.917  38.459  0.0752 -0.2255 -0.1834
 1252BOLB   GL230028   6.072  15.884  38.199 -0.0800 -0.2099 -0.1451
 1252BOLB   C1A30029   6.604  15.749  38.101 -0.0555 -0.2314 -0.0993
 1252BOLB   C2A30030   6.717  15.650  37.732 -0.2811 -0.1742  0.5138
 1252BOLB   C3A30031   6.598  15.740  37.300 -0.0566  0.0445 -0.1759
 1252BOLB   C4A30032   6.286  15.539  37.043  0.0945 -0.2231 -0.0880
 1252BOLB   C1B30033   6.261  15.812  37.736  0.2081 -0.0781  0.0680
 1252BOLB   C2B30034   6.343  15.438  37.506 -0.1898  0.1757  0.0191
 1252BOLB   C3B30035   6.582  15.167  37.245 -0.0579 -0.2652  0.1933
 1252BOLB   C4B30036   6.900  15.040  37.061 -0.0348 -0.0084 -0.3420
 1252BOLB   NC230037   5.348  14.502  38.308  0.1255  0.0241  0.1432
 1252BOLB   PO230038   5.346  14.377  37.865 -0.1436 -0.2430  0.1360
 1252BOLB   GL330039   5.611  14.257  37.588  0.2088  0.0589  0.3131
 1252BOLB   GL430040   5.567  13.937  37.447  0.1214 -0.1278 -0.2540
 1252BOLB   C1C30041   5.464  14.349  37.147  0.2206 -0.1717 -0.2514
 1252BOLB   C2C30042   5.508  14.609  36.733  0.1211 -0.1281  0.2742
 1252BOLB   C3C30043   5.770  14.931  36.750 -0.1322  0.0623 -0.2316
 1252BOLB   C4C30044   5.950  15.178  37.038 -0.1325  0.0144  0.2182
 1252BOLB   C1D30045   5.930  14.075  37.298  0.1201 -0.2903 -0.2545
 1252BOLB   C2D30046   6.188  14.428  37.302 -0.0320 -0.1482  0.1746
 1252BOLB   C3D30047   6.719  14.552  37.339 -0.2302  0.0994 -0.0753
 1252BOLB   C4D30048   7.043  14.553  37.029 -0.0650 -0.1503 -0.4476
 1253BOLB   NC130049  16.000  20.855  31.435  0.0143 -0.0399  0.0988
 1253BOLB   PO130050  16.350  20.801  31.670 -0.0451  0.1495  0.1631
 1253BOLB   GL130051  16.340  21.246  31.536 -0.0034 -0.1762  0.0039
 1253BOLB   GL230052  16.109  21.321  31.821 -0.0206  0.1021  0.1731
 1253BOLB   C1A30053  16.186  21.657  31.408 -0.0542 -0.2128  0.0393
 1253BOLB   C2A30054  16.309  22.022  31.304  0.0082 -0.1190 -0.0316
 1253BOLB   C3A30055  16.440  22.478  31.262  0.3769  0.0711 -0.2895
 1253BOLB   C4A30056  16.657  22.827  31.308 -0.1327  0.1996 -0.0338
 1253BOLB   C1B30057  16.384  21.708  31.853  0.0266 -0.1921  0.1579
 1253BOLB   C2B30058  16.688  22.029  31.603  0.3415  0.1224 -0.2564
 1253BOLB   C3B30059  16.910  22.340  31.500  0.1750  0.2128  0.1181
 1253BOLB   C4B30060  17.312  22.642  31.637  0.3016  0.0348  0.2967
 1253BOLB   NC230061  17.014  24.850  30.928 -0.1395  0.3383 -0.2767
 1253BOLB   PO230062  16.514  24.898  30.865 -0.2043  0.0524  0.1485
 1253BOLB   GL330063  16.708  24.529  30.635  0.0530 -0.0732 -0.0580
 1253BOLB   GL430064  16.586  24.486  30.322 -0.4907  0.0749  0.1551
 1253BOLB   C1C30065  16.873  24.110  30.494 -0.0172  0.0235 -0.0831
 1253BOLB   C2C30066  16.768  23.749  30.541 -0.0057  0.2307  0.0004
 1253BOLB   C3C30067  16.637  23.332  30.695  0.1173 -0.1164  0.0196
 1253BOLB   C4C30068  16.704  23.020  31.016 -0.0858  0.0934  0.1350
 1253BOLB   C1D30069  16.379  24.149  30.572  0.2047 -0.0465 -0.0342
 1253BOLB   C2D30070  16.233  23.691  30.583 -0.0802 -0.2832  0.0087
 1253BOLB   C3D30071  16.151  23.315  30.819 -0.0213 -0.0371 -0.0879
 1253BOLB   C4D30072  16.150  22.982  31.205  0.0974  0.0612  0.0779
 1254BOLB   NC130073  11.809  16.595  37.378 -0.0551  0.1863 -0.1355
 1254BOLB   PO130074  11.373  16.426  37.509 -0.1110 -0.2398 -0.1175
 1254BOLB   GL130075  11.142  16.295  37.882 -0.0791 -0.0769  0.1395
 1254BOLB   GL230076  10.832  16.158  37.785 -0.0251  0.1312 -0.1797
 1254BOLB   C1A30077  11.066  16.294  38.346 -0.0312 -0.0244  0.1609
 1254BOLB   C2A30078  10.983  16.457  38.802  0.4014 -0.0243 -0.2305
 1254BOLB   C3A30079  10.966  16.858  39.079 -0.3020  0.1206 -0.0945
 1254BOLB   C4A30080  10.947  17.010  39.456  0.2949  0.0858 -0.0452
 1254BOLB   C1B30081  10.455  16.313  38.116 -0.0644  0.4050 -0.0098
 1254BOLB   C2B30082  10.259  16.491  38.502  0.0105  0.0302  0.2173
 1254BOLB   C3B30083   9.909  16.867  38.553  0.2273  0.0191  0.1499
 1254BOLB   C4B30084   9.614  17.209  38.738 -0.1419 -0.2322  0.4283
 1254BOLB   NC230085  10.445  16.530  41.757  0.0403  0.0561  0.2637
 1254BOLB   PO230086  10.068  16.809  41.498 -0.4352  0.0240 -0.2793
 1254BOLB   GL330087   9.978  16.524  41.193  0.1543  0.0394 -0.0887
 1254BOLB   GL430088  10.201  16.258  41.416  0.1770 -0.0734  0.1814
 1254BOLB   C1C30089  10.234  16.448  40.866  0.0105 -0.2599 -0.0692
 1254BOLB   C2C30090  10.110  16.410  40.453  0.0879  0.0345  0.0341
 1254BOLB   C3C30091  10.410  16.652  40.171 -0.0267  0.2385  0.3372
 1254BOLB   C4C30092  10.608  16.835  39.789  0.0683 -0.1611  0.0238
 1254BOLB   C1D30093  10.601  16.228  41.186  0.5207  0.2003 -0.2837
 1254BOLB   C2D30094  10.594  16.172  40.722 -0.4745  0.2998  0.0584
 1254BOLB   C3D30095  10.638  16.228  40.341  0.2107 -0.2841 -0.0785
 1254BOLB   C4D30096  10.806  16.391  39.906  0.1259 -0.2788  0.1322
 1255BOLB   NC130097   8.576  13.114  25.872  0.2456  0.0004 -0.2274
 1255BOLB   PO130098   8.788  13.023  25.520  0.2006 -0.1293 -0.0736
 1255BOLB   GL130099   8.388  12.785  25.501  0.1243  0.0888  0.0751
 1255BOLB   GL230100   8.076  12.911  25.619 -0.1316  0.0919 -0.0901
 1255BOLB   C1A30101   8.028  12.626  25.229  0.1935 -0.0046 -0.0497
 1255BOLB   C2A30102   7.577  12.532  25.152 -0.1454 -0.2548 -0.1449
 1255BOLB   C3A30103   7.239  12.658  25.078 -0.1585 -0.5985  0.0543
 1255BOLB   C4A30104   6.909  12.618  25.004 -0.1686 -0.2242  0.1405
 1255BOLB   C1B30105   7.780  12.626  25.708  0.3509  0.1015  0.2740
 1255BOLB   C2B30106   7.416  12.589  25.728  0.0871  0.1575 -0.1731
 1255BOLB   C3B30107   7.084  12.360  25.673  0.0937  0.0445  0.0638
 1255BOLB   C4B30108   6.689  12.380  25.510  0.1204 -0.1722  0.3924
 1255BOLB   NC230109   4.567  12.503  24.084  0.0446 -0.1492  0.0324
 1255BOLB   PO230110   4.765  12.817  24.141 -0.2960 -0.1654 -0.1765
 1255BOLB   GL330111   5.192  12.829  24.381  0.0465  0.0340  0.3393
 1255BOLB   GL430112   5.408  12.909  24.269  0.0366  0.1555 -0.1528
 1255BOLB   C1C30113   5.432  12.958  24.747  0.0114 -0.2203 -0.0321
 1255BOLB   C2C30114   5.778  12.744  24.882 -0.0247 -0.0162 -0.1200
 1255BOLB   C3C30115   6.153  12.694  24.634 -0.1965 -0.1671  0.0188
 1255BOLB   C4C30116   6.567  12.805  24.713  0.1530  0.2147 -0.2639
 1255BOLB   C1D30117   5.849  13.061  24.498  0.0897 -0.1865 -0.1274
 1255BOLB   C2D30118   6.174  13.348  24.524  0.2438  0.1327  0.0822
 1255BOLB   C3D30119   6.578  13.418  24.816 -0.1136 -0.1715  0.3997
 1255BOLB   C4D30120   6.843  13.799  24.995 -0.1365 -0.1732 -0.1938
 1256BOLB   NC130121  22.231   6.842  31.392  0.3189 -0.1423  0.0150
 1256BOLB   PO130122  22.167   6.812  30.900 -0.2005  0.1164  0.1044
 1256BOLB   GL130123  22.434   6.470  30.875  0.2149 -0.2892  0.2006
 1256BOLB   GL230124  22.269   6.263  30.711 -0.3440  0.0791 -0.2067
 1256BOLB   C1A30125  22.920   6.164  30.894 -0.0445 -0.0528 -0.1575
 1256BOLB   C2A30126  23.157   5.791  31.070  0.2052  0.1175  0.0391
 1256BOLB   C3A30127  23.486   5.486  31.250 -0.1038  0.1530  0.1313
 1256BOLB   C4A30128  23.915   5.238  31.328  0.2332  0.1949 -0.3860
 1256BOLB   C1B30129  22.533   5.882  30.787  0.2757  0.0688  0.2903
 1256BOLB   C2B30130  22.753   5.553  30.999  0.0359 -0.0965 -0.1433
 1256BOLB   C3B30131  22.746   5.474  31.375 -0.6274  0.2042 -0.1669
 1256BOLB   C4B30132  22.703   5.507  31.671  0.1479 -0.1645 -0.0345
 1256BOLB   NC230133  25.771   4.713  32.502 -0.0867  0.0156 -0.1573
 1256BOLB   PO230134  25.836   4.864  33.006  0.3801 -0.3064  0.1707
 1256BOLB   GL330135  25.388   5.020  32.713  0.1093 -0.2222  0.3195
 1256BOLB   GL430136  25.135   5.232  32.804  0.1166  0.0770 -0.3706
 1256BOLB   C1C30137  24.973   5.053  32.368 -0.0837  0.2098 -0.1060
 1256BOLB   C2C30138  24.709   5.268  32.202 -0.0530 -0.0431  0.4826
 1256BOLB   C3C30139  24.454   5.395  31.969 -0.2173 -0.0649 -0.2762
 1256BOLB   C4C30140  24.260   5.240  31.486  0.1886  0.2179 -0.2224
 1256BOLB   C1D30141  25.127   5.523  32.431  0.2096 -0.0112  0.2590
 1256BOLB   C2D30142  24.950   5.699  32.039  0.2322 -0.1594 -0.3209
 1256BOLB   C3D30143  24.512   5.884  31.965  0.1312 -0.5062  0.0832
 1256BOLB   C4D30144  24.197   6.015  31.756  0.0299  0.0814  0.1973
 1257BOLB   NC130145  11.844  14.412  21.756 -0.3074  0.1319 -0.0765
 1257BOLB   PO130146  11.886  14.076  21.483 -0.0867  0.3601  0.0655
 1257BOLB   GL130147  11.629  14.368  21.310 -0.2747  0.1468  0.3706
 1257BOLB   GL230148  11.293  14.581  21.114  0.1359 -0.1280  0.2505
 1257BOLB   C1A30149  11.811  14.657  21.050 -0.0181  0.0620 -0.1616
 1257BOLB   C2A30150  11.530  14.885  20.714 -0.1560  0.2784  0.0070
 1257BOLB   C3A30151  11.453  15.039  20.325  0.1795 -0.2564 -0.0200
 1257BOLB   C4A30152  11.253  14.967  19.985  0.2397  0.0569 -0.1587
 1257BOLB   C1B30153  11.079  14.929  20.853  0.4208  0.0831  0.2934
 1257BOLB   C2B30154  10.712  14.948  20.717 -0.0295 -0.0058 -0.2914
 1257BOLB   C3B30155  10.458  14.653  20.341 -0.1115 -0.2289  0.3253
 1257BOLB   C4B30156  10.344  14.674  19.994 -0.0868  0.1632  0.3417
 1257BOLB   NC230157   9.781  14.484  17.792  0.2293  0.3303  0.3770
 1257BOLB   PO230158  10.178  14.603  17.658 -0.3000 -0.0189 -0.2145
 1257BOLB   GL330159  10.183  14.561  18.046 -0.0734 -0.1718  0.1497
 1257BOLB   GL430160  10.532  14.641  18.089  0.0427 -0.4543 -0.1452
 1257BOLB   C1C30161  10.146  14.555  18.521  0.1171  0.0806 -0.0162
 1257BOLB   C2C30162  10.466  14.793  18.800 -0.1254  0.5231 -0.3641
 1257BOLB   C3C30163  10.796  14.774  19.193 -0.0430 -0.0697 -0.2077
 1257BOLB   C4C30164  11.024  14.824  19.626  0.1502  0.4006  0.2094
 1257BOLB   C1D30165  10.815  14.768  18.432 -0.1619  0.1772 -0.1251
 1257BOLB   C2D30166  10.930  14.532  18.767  0.1330 -0.1524 -0.0097
 1257BOLB   C3D30167  10.691  14.322  19.094 -0.1397  0.1485  0.1338
 1257BOLB   C4D30168  10.460  14.054  18.792  0.1106 -0.2191  0.1673
 1258BOLB   NC130169  22.875  14.222  31.063 -0.0875 -0.1621 -0.0590
 1258BOLB   PO130170  23.218  14.053  30.739 -0.5943 -0.0645  0.3237
 1258BOLB   GL130171  23.674  14.059  30.811  0.0467 -0.2026 -0.1968
 1258BOLB   GL230172  23.936  13.986  31.113  0.0625 -0.3608  0.1882
 1258BOLB   C1A30173  24.154  14.250  30.789  0.0123 -0.2867 -0.0210
 1258BOLB   C2A30174  24.527  14.320  31.004  0.6163 -0.0365 -0.1980
 1258BOLB   C3A30175  24.855  14.134  30.853 -0.1587  0.1560 -0.1471
 1258BOLB   C4A30176  25.032  14.228  30.472  0.2776  0.1021  0.1721
 1258BOLB   C1B30177  24.092  14.095  31.447 -0.1619  0.1030 -0.2587
 1258BOLB   C2B30178  24.580  14.126  31.433  0.3562 -0.1123 -0.0107
 1258BOLB   C3B30179  24.874  14.540  31.300  0.0594  0.1957  0.1294
 1258BOLB   C4B30180  25.196  14.745  31.546 -0.0934 -0.2420  0.4324
 1258BOLB   NC230181   0.349  14.202  29.290 -0.1133  0.2287  0.0447
 1258BOLB   PO230182   0.187  14.598  29.502 -0.4273 -0.0151 -0.0517
 1258BOLB   GL330183  27.029  14.144  29.762  0.0111  0.0795 -0.4957
 1258BOLB   GL430184  26.767  14.007  29.606 -0.0578  0.0696  0.1686
 1258BOLB   C1C30185  26.684  14.066  30.081  0.0088  0.1002 -0.2825
 1258BOLB   C2C30186  26.306  14.092  30.420  0.1539 -0.2256 -0.0278
 1258BOLB   C3C30187  25.839  14.196  30.459 -0.3446  0.4277 -0.0272
 1258BOLB   C4C30188  25.484  14.273  30.396  0.2410 -0.1738 -0.2575
 1258BOLB   C1D30189  26.486  13.805  29.724  0.0388  0.1351  0.2338
 1258BOLB   C2D30190  26.182  13.802  30.024  0.2806 -0.1106  0.1258
 1258BOLB   C3D30191  25.807  13.733  30.200  0.0011  0.3037  0.2282
 1258BOLB   C4D30192  25.371  13.715  30.243  0.1156  0.2398  0.3069
 1259BOLB   NC130193  11.065   7.925  25.215 -0.0145  0.0431 -0.1394
 1259BOLB   PO130194  11.185   7.553  24.869  0.1509 -0.0429 -0.0296
 1259BOLB   GL130195  11.037   7.213  24.585 -0.0318  0.0168 -0.0129
 1259BOLB   GL230196  10.776   7.214  24.625  0.1521 -0.1823  0.2489
 1259BOLB   C1A30197  10.854   7.004  24.168  0.3673 -0.2739 -0.0140
 1259BOLB   C2A30198  10.502   6.897  23.929  0.0178  0.0836 -0.1895
 1259BOLB   C3A30199  10.446   6.653  23.664 -0.1099 -0.1534 -0.0958
 1259BOLB   C4A30200  10.267   6.289  23.409  0.0094 -0.0776 -0.0824
 1259BOLB   C1B30201  10.357   7.082  24.394  0.2001 -0.0615 -0.0802
 1259BOLB   C2B30202   9.909   7.029  24.420 -0.0421  0.1298 -0.1900
 1259BOLB   C3B30203   9.494   7.022  24.509 -0.3495 -0.1075 -0.1082
 1259BOLB   C4B30204   9.089   6.862  24.245  0.0484  0.0189 -0.2493
 1259BOLB   NC230205   9.145   3.755  23.553 -0.1287 -0.2261 -0.0444
 1259BOLB   PO230206   9.610   3.927  23.445  0.0136  0.0206 -0.1921
 1259BOLB   GL330207   9.828   4.338  23.363  0.3711  0.2809  0.1801
 1259BOLB   GL430208  10.054   4.439  23.542 -0.2368  0.0446 -0.1688
 1259BOLB   C1C30209  10.093   4.836  23.271 -0.0867  0.4518  0.1614
 1259BOLB   C2C30210  10.243   5.176  23.060 -0.2454  0.1447 -0.3194
 1259BOLB   C3C30211  10.239   5.518  23.080  0.1083 -0.1760 -0.0284
 1259BOLB   C4C30212  10.146   5.938  23.155 -0.0833  0.0675 -0.0314
 1259BOLB   C1D30213  10.223   4.499  23.951  0.0479  0.1717  0.1263
 1259BOLB   C2D30214  10.449   4.749  24.244  0.1589 -0.1051 -0.1160
 1259BOLB   C3D30215  10.401   4.889  24.629 -0.1116  0.0714 -0.1824
 1259BOLB   C4D30216  10.206   5.229  24.808  0.1217  0.0990  0.1100
 1260BOLB   NC130217   9.123   8.960  33.413 -0.2102  0.0339 -0.1983
 1260BOLB   PO130218   9.485   8.684  33.375 -0.2897  0.0221  0.5062
 1260BOLB   GL130219   9.194   8.372  33.330 -0.2064 -0.1284  0.1243
 1260BOLB   GL230220   9.123   8.018  33.180 -0.0781  0.1362  0.1391
 1260BOLB   C1A30221   8.758   8.219  33.468 -0.5673  0.0872  0.1001
 1260BOLB   C2A30222   8.350   8.074  33.462 -0.0215 -0.0743  0.1334
 1260BOLB   C3A30223   8.040   7.941  33.673  0.0888 -0.2427  0.0787
 1260BOLB   C4A30224   7.780   7.639  33.916  0.3064 -0.2168  0.2437
 1260BOLB   C1B30225   8.801   7.757  33.163  0.1437  0.2208 -0.3197
 1260BOLB   C2B30226   8.567   7.583  33.406  0.1546  0.0504  0.0458
 1260BOLB   C3B30227   8.795   7.316  33.691 -0.2263  0.0012  0.0871
 1260BOLB   C4B30228   8.656   6.966  33.877 -0.2610  0.0745  0.0693
 1260BOLB   NC230229   5.600   5.916  33.767  0.2466 -0.3585  0.0265
 1260BOLB   PO230230   6.093   6.020  33.836  0.1101  0.2735 -0.0101
 1260BOLB   GL330231   6.210   6.432  33.909 -0.1346  0.0526  0.2588
 1260BOLB   GL430232   6.068   6.671  33.806  0.1332 -0.0700 -0.0488
 1260BOLB   C1C30233   6.521   6.578  33.749  0.0552 -0.3054 -0.0618
 1260BOLB   C2C30234   6.854   6.845  33.601 -0.0264 -0.0090  0.4138
 1260BOLB   C3C30235   7.093   7.024  33.842 -0.2604 -0.0361  0.0098
 1260BOLB   C4C30236   7.401   7.417  34.076  0.1120  0.0597  0.2898
 1260BOLB   C1D30237   6.342   6.991  33.958  0.1578 -0.1631  0.2506
 1260BOLB   C2D30238   6.648   7.148  34.142  0.3410 -0.2126  0.1063
 1260BOLB   C3D30239   7.000   7.023  34.344 -0.2470  0.2239 -0.0817
 1260BOLB   C4D30240   7.046   6.837  34.699  0.3257 -0.0654 -0.1635
 1261BOLB   NC130241  12.492  16.438  38.125 -0.0015 -0.0422 -0.0012
 1261BOLB   PO130242  12.849  16.593  38.159 -0.0393  0.2390  0.0952
 1261BOLB   GL130243  12.798  16.961  38.374  0.1415  0.3556  0.0247
 1261BOLB   GL230244  13.071  17.101  38.667 -0.2146 -0.2631  0.2145
 1261BOLB   C1A30245  12.753  17.402  38.468  0.1264 -0.1235 -0.2476
 1261BOLB   C2A30246  12.689  17.904  38.606 -0.2793  0.0475  0.1435
 1261BOLB   C3A30247  12.443  18.212  38.949 -0.0858  0.2501  0.0877
 1261BOLB   C4A30248  12.245  18.257  39.306 -0.0991  0.0748 -0.1340
 1261BOLB   C1B30249  13.200  17.292  39.025 -0.0422  0.0555  0.3674
 1261BOLB   C2B30250  13.073  17.550  39.278  0.0287 -0.0806 -0.1192
 1261BOLB   C3B30251  12.725  17.351  39.482  0.2485 -0.1649 -0.0716
 1261BOLB   C4B30252  12.561  17.242  39.920  0.2805 -0.3821  0.1344
 1261BOLB   NC230253  11.204  18.545  41.478 -0.3865 -0.0116  0.1067
 1261BOLB   PO230254  10.690  18.460  41.464 -0.3151  0.1746  0.1328
 1261BOLB   GL330255  10.874  18.524  40.980  0.3562  0.0240 -0.0094
 1261BOLB   GL430256  10.901  18.378  40.726  0.0003  0.5171  0.0745
 1261BOLB   C1C30257  11.131  18.728  40.585  0.0755 -0.3961  0.1308
 1261BOLB   C2C30258  11.342  18.665  40.154 -0.3431  0.0335  0.0659
 1261BOLB   C3C30259  11.663  18.448  39.869  0.4030 -0.3233 -0.0912
 1261BOLB   C4C30260  11.931  18.310  39.584  0.4313  0.0063  0.0006
 1261BOLB   C1D30261  11.319  18.260  40.926 -0.0693 -0.0141 -0.2907
 1261BOLB   C2D30262  11.763  18.183  40.988 -0.1348 -0.2757  0.3053
 1261BOLB   C3D30263  12.097  18.242  40.869 -0.0834  0.2687  0.1359
 1261BOLB   C4D30264  12.461  18.437  40.946  0.2567  0.0443 -0.0978
 1262BOLB   NC130265  12.879  16.960  37.801  0.0531 -0.0068 -0.1610
 1262BOLB   PO130266  12.875  17.253  37.571 -0.1800  0.1303 -0.2962
 1262BOLB   GL130267  12.801  17.660  37.638  0.2698  0.0913 -0.1471
 1262BOLB   GL230268  12.999  17.800  37.631  0.1880  0.0912  0.0120
 1262BOLB   C1A30269  12.520  17.994  37.831 -0.1392  0.0509 -0.0075
 1262BOLB   C2A30270  12.436  18.243  38.120  0.0085  0.3072  0.0256
 1262BOLB   C3A30271  12.547  18.458  38.495  0.0144  0.0691  0.0718
 1262BOLB   C4A30272  12.078  18.552  38.804  0.0018  0.3478 -0.1518
 1262BOLB   C1B30273  12.870  18.185  37.626 -0.0467 -0.1911 -0.0407
 1262BOLB   C2B30274  12.850  18.617  37.748  0.1212 -0.0122 -0.0421
 1262BOLB   C3B30275  12.833  19.052  37.859 -0.1052  0.1715 -0.2300
 1262BOLB   C4B30276  12.929  19.489  37.853 -0.1261 -0.1214  0.1220
 1262BOLB   NC230277  11.115  19.833  40.643 -0.0370 -0.1950 -0.2163
 1262BOLB   PO230278  11.159  19.454  40.848 -0.0991  0.2111  0.0725
 1262BOLB   GL330279  11.002  19.377  40.382 -0.0135 -0.0279 -0.1567
 1262BOLB   GL430280  11.284  19.545  40.192 -0.2569  0.1789  0.0316
 1262BOLB   C1C30281  11.036  19.133  39.996  0.1961 -0.0877 -0.1362
 1262BOLB   C2C30282  11.295  18.947  39.763  0.0899  0.0391  0.0877
 1262BOLB   C3C30283  11.598  18.650  39.429 -0.0146  0.2874 -0.2036
 1262BOLB   C4C30284  11.705  18.464  39.042  0.0909 -0.0031 -0.4319
 1262BOLB   C1D30285  11.190  19.660  39.762 -0.2205  0.1717  0.1779
 1262BOLB   C2D30286  11.284  19.446  39.326 -0.1319  0.2358 -0.0340
 1262BOLB   C3D30287  11.575  19.124  39.275  0.0634  0.2391  0.0136
 1262BOLB   C4D30288  11.854  18.974  38.952  0.3360 -0.0860 -0.2197
 1263BOLB   NC130289  15.188   5.322  25.226 -0.0289  0.1758 -0.0132
 1263BOLB   PO130290  15.052   5.414  25.652 -0.0325  0.2100 -0.2513
 1263BOLB   GL130291  14.999   5.025  25.661  0.0501  0.1938  0.3063
 1263BOLB   GL230292  15.209   4.918  25.520  0.1492  0.0996 -0.0602
 1263BOLB   C1A30293  14.751   4.698  25.629 -0.2338 -0.1089  0.1779
 1263BOLB   C2A30294  14.534   4.338  25.725  0.1635  0.0054 -0.1096
 1263BOLB   C3A30295  14.540   3.861  25.632  0.0540  0.3540  0.2413
 1263BOLB   C4A30296  14.278   3.508  25.400  0.4350  0.2172 -0.4423
 1263BOLB   C1B30297  15.125   4.484  25.347  0.1901  0.0335  0.0876
 1263BOLB   C2B30298  14.977   4.244  24.898 -0.2809 -0.0704  0.0997
 1263BOLB   C3B30299  14.725   3.983  24.521 -0.4463 -0.0543 -0.3001
 1263BOLB   C4B30300  14.753   3.567  24.276  0.2050  0.2389  0.0095
 1263BOLB   NC230301  13.689   0.788  24.973  0.0826 -0.0276  0.1011
 1263BOLB   PO230302  13.969   1.077  25.144 -0.0632  0.2436  0.0305
 1263BOLB   GL330303  14.182   1.376  25.004  0.2223 -0.1153 -0.0232
 1263BOLB   GL430304  14.521   1.325  25.060 -0.2556 -0.1303  0.2646
 1263BOLB   C1C30305  14.164   1.805  25.075  0.3993 -0.2018  0.0861
 1263BOLB   C2C30306  13.915   2.305  25.214  0.0903  0.0035  0.2472
 1263BOLB   C3C30307  14.009   2.736  25.365 -0.2357  0.0180  0.1832
 1263BOLB   C4C30308  13.997   3.134  25.318 -0.2577 -0.3075 -0.0158
 1263BOLB   C1D30309  14.654   1.753  25.151  0.1596  0.1045  0.0809
 1263BOLB   C2D30310  14.897   2.185  25.313  0.1821 -0.1693  0.1237
 1263BOLB   C3D30311  15.012   2.658  25.368 -0.1068  0.1608  0.3305
 1263BOLB   C4D30312  15.328   2.973  25.275  0.0189 -0.2427 -0.2491
 1264BOLB   NC130313  13.299  15.800  38.159  0.0252 -0.0855  0.3858
 1264BOLB   PO130314  12.730  16.084  38.306  0.2439  0.2830  0.0040
 1264BOLB   GL130315  12.646  16.318  38.637 -0.0809 -0.1623 -0.2239
 1264BOLB   GL230316  12.892  16.540  38.722 -0.0822 -0.1564 -0.0086
 1264BOLB   C1A30317  12.357  16.424  39.014 -0.4485  0.1638 -0.1842
 1264BOLB   C2A30318  12.269  16.436  39.404 -0.1582 -0.1030 -0.1529
 1264BOLB   C3A30319  12.047  16.177  39.786  0.0377  0.4090 -0.2340
 1264BOLB   C4A30320  11.917  15.957  40.211  0.0028 -0.0625 -0.0656
 1264BOLB   C1B30321  12.704  16.862  38.822  0.0729 -0.3658 -0.0207
 1264BOLB   C2B30322  12.657  17.314  39.003 -0.0825  0.0065 -0.0293
 1264BOLB   C3B30323  12.618  17.680  39.065  0.0837 -0.1032  0.4124
 1264BOLB   C4B30324  12.687  17.937  39.338 -0.0519 -0.2235 -0.0344
 1264BOLB   NC230325  11.961  16.884  42.626 -0.0187 -0.0296  0.1212
 1264BOLB   PO230326  11.906  17.087  42.283 -0.1220 -0.0906  0.0521
 1264BOLB   GL330327  12.057  16.750  42.055  0.1879  0.1676 -0.1971
 1264BOLB   GL430328  12.335  16.582  42.064 -0.0943 -0.0562  0.0469
 1264BOLB   C1C30329  12.068  16.729  41.600  0.1129  0.0132  0.3040
 1264BOLB   C2C30330  11.981  16.575  41.185  0.1136  0.1509  0.1072
 1264BOLB   C3C30331  11.959  16.261  40.880  0.6408  0.1194 -0.0168
 1264BOLB   C4C30332  11.949  16.024  40.555 -0.1190  0.0062 -0.2432
 1264BOLB   C1D30333  12.557  16.561  41.529  0.2462  0.0187  0.2211
 1264BOLB   C2D30334  12.509  16.517  40.969 -0.0866 -0.2561  0.0457
 1264BOLB   C3D30335  12.404  16.274  40.651 -0.0176  0.0586  0.0009
 1264BOLB   C4D30336  12.393  16.246  40.159  0.0871  0.0492  0.0066
 1265BOLB   NC130337  10.826  16.857  23.416  0.0437 -0.4773  0.0396
 1265BOLB   PO130338  11.105  17.060  23.193 -0.1472 -0.0020  0.2464
 1265BOLB   GL130339  10.779  17.305  23.112  0.0498  0.1599  0.2275
 1265BOLB   GL230340  10.759  17.608  23.246  0.0980  0.0767  0.2220
 1265BOLB   C1A30341  10.631  17.546  22.805  0.1946  0.3076  0.0463
 1265BOLB   C2A30342  10.638  17.692  22.501 -0.1063 -0.0763  0.0203
 1265BOLB   C3A30343  10.657  17.909  22.157  0.3171 -0.0414  0.0118
 1265BOLB   C4A30344  10.544  17.998  21.798  0.0442  0.1276 -0.1143
 1265BOLB   C1B30345  10.538  17.989  23.052 -0.0982  0.1963  0.1771
 1265BOLB   C2B30346  10.208  17.961  22.764  0.1267  0.0520  0.1255
 1265BOLB   C3B30347  10.219  17.951  22.427 -0.2313  0.1392  0.0869
 1265BOLB   C4B30348  10.235  17.569  22.247 -0.2546 -0.1836  0.0116
 1265BOLB   NC230349   9.777  18.450  19.504 -0.0207 -0.2331 -0.1955
 1265BOLB   PO230350   9.337  18.416  19.589 -0.0521  0.2271 -0.0563
 1265BOLB   GL330351   9.523  18.297  20.028  0.3065 -0.1641 -0.0531
 1265BOLB   GL430352   9.322  18.127  20.259  0.0428  0.3052 -0.1681
 1265BOLB   C1C30353   9.836  18.199  20.387 -0.1971  0.0606 -0.2050
 1265BOLB   C2C30354  10.171  18.178  20.634 -0.0884 -0.3983  0.2040
 1265BOLB   C3C30355  10.451  17.962  21.007  0.0145 -0.0387  0.0943
 1265BOLB   C4C30356  10.564  17.835  21.350  0.3560  0.0644  0.2265
 1265BOLB   C1D30357   9.467  18.078  20.675 -0.1241 -0.1155 -0.1965
 1265BOLB   C2D30358   9.415  17.568  20.687  0.2352  0.1708 -0.0040
 1265BOLB   C3D30359   9.555  17.101  20.723 -0.2859 -0.0247  0.1427
 1265BOLB   C4D30360   9.861  17.114  20.914 -0.1486 -0.1684 -0.4074
 1266BOLB   NC130361  10.713   7.345  25.157 -0.0930  0.2480 -0.0560
 1266BOLB   PO130362  10.716   7.108  25.525 -0.1208 -0.2210  0.1160
 1266BOLB   GL130363  10.720   6.811  25.156 -0.0705  0.0111 -0.4322
 1266BOLB   GL230364  10.852   6.482  25.173 -0.1482  0.0125  0.0211
 1266BOLB   C1A30365  10.347   6.880  24.934  0.1359 -0.0577  0.2243
 1266BOLB   C2A30366  10.016   6.671  24.788 -0.0386 -0.1899  0.2690
 1266BOLB   C3A30367   9.779   6.461  24.482  0.0657  0.1905 -0.1300
 1266BOLB   C4A30368   9.724   6.206  24.016  0.1233 -0.2281 -0.1033
 1266BOLB   C1B30369  10.574   6.266  25.006 -0.0010  0.2897  0.1296
 1266BOLB   C2B30370  10.307   6.220  24.602  0.3113 -0.0574 -0.0883
 1266BOLB   C3B30371  10.102   6.062  24.301 -0.1004 -0.0432  0.2611
 1266BOLB   C4B30372  10.287   6.087  23.866  0.1258 -0.1940 -0.1832
 1266BOLB   NC230373   7.588   5.461  23.352 -0.2911 -0.1202  0.0550
 1266BOLB   PO230374   7.748   5.217  23.063 -0.1774 -0.0321 -0.1729
 1266BOLB   GL330375   8.145   5.347  23.191  0.0792 -0.3876  0.0476
 1266BOLB   GL430376   8.229   5.539  23.454  0.1172  0.0415 -0.1373
 1266BOLB   C1C30377   8.597   5.551  23.074 -0.0327 -0.4443  0.1157
 1266BOLB   C2C30378   8.966   5.865  23.241  0.1753 -0.2454  0.0686
 1266BOLB   C3C30379   9.336   5.982  23.404 -0.2448 -0.2636  0.1113
 1266BOLB   C4C30380   9.442   6.248  23.741 -0.2907 -0.4652  0.3978
 1266BOLB   C1D30381   8.624   5.606  23.641 -0.2862 -0.0711  0.1540
 1266BOLB   C2D30382   8.980   5.746  23.829  0.0591 -0.0829  0.0203
 1266BOLB   C3D30383   9.088   6.019  23.992 -0.2921  0.0617 -0.2755
 1266BOLB   C4D30384   9.182   5.850  24.361  0.0614  0.1833 -0.1442
 1267BOLB   NC130385  11.425   5.831  31.915  0.3352  0.1620 -0.2852
 1267BOLB   PO130386  11.491   5.654  31.403 -0.1404 -0.0819 -0.0649
 1267BOLB   GL130387  11.247   5.272  31.569  0.0136 -0.1114 -0.0544
 1267BOLB   GL230388  11.168   5.205  31.848  0.0774  0.1132 -0.6619
 1267BOLB   C1A30389  11.159   4.866  31.396  0.3575 -0.1396 -0.1152
 1267BOLB   C2A30390  11.068   4.547  31.540  0.1518  0.2935  0.1533
 1267BOLB   C3A30391  10.777   4.282  31.714  0.3863 -0.0250  0.2440
 1267BOLB   C4A30392  10.509   3.980  31.686 -0.2039 -0.1750 -0.1157
 1267BOLB   C1B30393  11.095   4.814  31.979 -0.6314  0.1180 -0.2163
 1267BOLB   C2B30394  10.917   4.403  32.171 -0.2435  0.2904 -0.1482
 1267BOLB   C3B30395  10.567   4.480  32.461 -0.1613 -0.1400 -0.4507
 1267BOLB   C4B30396  10.240   4.267  32.651  0.0389  0.3545  0.0999
 1267BOLB   NC230397   8.821   2.197  32.091  0.1867  0.0207  0.2371
 1267BOLB   PO230398   9.230   2.407  32.244  0.0207 -0.0506  0.3470
 1267BOLB   GL330399   9.238   2.862  32.244  0.2603 -0.1289  0.1112
 1267BOLB   GL430400   9.055   3.086  32.382 -0.1400  0.0112 -0.1041
 1267BOLB   C1C30401   9.477   3.205  32.454 -0.0024  0.0814 -0.0610
 1267BOLB   C2C30402   9.906   3.375  32.442 -0.0565  0.3246 -0.0696
 1267BOLB   C3C30403  10.043   3.539  32.075 -0.5141  0.1473 -0.5700
 1267BOLB   C4C30404  10.232   3.770  31.906 -0.0783  0.0170  0.1959
 1267BOLB   C1D30405   9.076   3.517  32.271 -0.1256 -0.0501  0.0872
 1267BOLB   C2D30406   9.278   3.789  32.440  0.0740 -0.0766  0.1404
 1267BOLB   C3D30407   9.405   4.171  32.393  0.0891 -0.2920 -0.1190
 1267BOLB   C4D30408   9.552   4.571  32.261 -0.2830 -0.4832  0.2393
 1268BOLB   NC130409  15.097   5.334  33.690 -0.1965  0.1266  0.0959
 1268BOLB   PO130410  14.965   5.190  34.204  0.1349  0.1660 -0.2318
 1268BOLB   GL130411  15.048   4.754  34.286 -0.0563  0.1822 -0.4299
 1268BOLB   GL230412  14.907   4.585  34.070 -0.0072 -0.1909 -0.0965
 1268BOLB   C1A30413  15.116   4.433  34.571 -0.0074  0.1247 -0.1236
 1268BOLB   C2A30414  14.860   4.118  34.686 -0.1037 -0.0671  0.1242
 1268BOLB   C3A30415  14.903   3.722  34.779  0.2810 -0.0301  0.0645
 1268BOLB   C4A30416  14.753   3.437  35.070  0.1140  0.0700 -0.0502
 1268BOLB   C1B30417  14.921   4.082  34.198  0.0724  0.0010  0.0445
 1268BOLB   C2B30418  14.942   3.685  34.166  0.1581  0.1813 -0.2045
 1268BOLB   C3B30419  14.891   3.288  34.424 -0.3481 -0.0883 -0.1853
 1268BOLB   C4B30420  14.876   2.831  34.592 -0.2320  0.1166 -0.0052
 1268BOLB   NC230421  13.813   1.177  35.903 -0.0838 -0.0714  0.1909
 1268BOLB   PO230422  14.150   1.260  35.792 -0.4502  0.3134 -0.1020
 1268BOLB   GL330423  14.282   1.575  35.634  0.0528 -0.1235 -0.0656
 1268BOLB   GL430424  14.591   1.519  35.537  0.1343 -0.0591 -0.0549
 1268BOLB   C1C30425  14.128   1.974  35.677  0.2079  0.2481 -0.1233
 1268BOLB   C2C30426  14.263   2.327  35.793 -0.1002 -0.0787 -0.3425
 1268BOLB   C3C30427  14.446   2.642  35.473  0.2199  0.1154  0.3186
 1268BOLB   C4C30428  14.536   3.061  35.246 -0.2196  0.1606 -0.0860
 1268BOLB   C1D30429  14.612   1.961  35.578  0.1614  0.0075  0.0679
 1268BOLB   C2D30430  14.263   2.103  35.227 -0.1144  0.0109  0.3932
 1268BOLB   C3D30431  14.253   2.443  34.812  0.1656 -0.0546  0.0173
 1268BOLB   C4D30432  14.349   2.749  34.516  0.3866 -0.1231 -0.0387
 1269BOLB   NC130433   8.062  17.429  33.334  0.2746  0.1044  0.6484
 1269BOLB   PO130434   8.377  17.777  33.104  0.0214  0.0720 -0.3893
 1269BOLB   GL130435   8.029  18.015  33.498 -0.1786 -0.1785  0.0640
 1269BOLB   GL230436   8.005  18.184  33.301  0.2388  0.1658  0.1175
 1269BOLB   C1A30437   7.727  18.231  33.721  0.0355 -0.1190  0.1440
 1269BOLB   C2A30438   7.662  18.609  33.754 -0.0940  0.1960  0.1334
 1269BOLB   C3A30439   7.546  19.092  33.958 -0.1745 -0.0745 -0.1220
 1269BOLB   C4A30440   7.693  19.540  34.242 -0.1254  0.1307 -0.0397
 1269BOLB   C1B30441   7.618  18.468  33.270  0.1012  0.1038 -0.0452
 1269BOLB   C2B30442   7.364  18.878  33.142  0.3316  0.4323  0.5172
 1269BOLB   C3B30443   7.141  19.193  33.317 -0.0855 -0.1739  0.2039
 1269BOLB   C4B30444   6.744  19.424  33.426  0.4030  0.1036 -0.1017
 1269BOLB   NC230445   6.521  21.431  35.074  0.3594 -0.1078  0.1942
 1269BOLB   PO230446   6.275  21.049  35.143  0.0585 -0.3729  0.1083
 1269BOLB   GL330447   6.439  20.852  34.843 -0.2955 -0.3181 -0.2837
 1269BOLB   GL430448   6.214  20.594  34.702 -0.0279  0.0793  0.2336
 1269BOLB   C1C30449   6.760  20.687  34.536 -0.0426 -0.3749  0.1657
 1269BOLB   C2C30450   6.890  20.313  34.224  0.3607 -0.0614 -0.2130
 1269BOLB   C3C30451   7.366  20.177  34.116 -0.2289 -0.2253  0.2429
 1269BOLB   C4C30452   7.566  19.949  34.306 -0.1183  0.0369  0.2386
 1269BOLB   C1D30453   6.464  20.306  34.710 -0.1592  0.4230  0.3125
 1269BOLB   C2D30454   6.873  20.088  34.780 -0.2764 -0.1071 -0.1153
 1269BOLB   C3D30455   7.057  19.882  34.412 -0.1459  0.0416  0.1105
 1269BOLB   C4D30456   7.221  19.689  34.043  0.2949  0.0089  0.1983
 1270BOLB   NC130457   9.975   7.031  27.827 -0.1773 -0.1124 -0.2972
 1270BOLB   PO130458  10.373   6.837  27.710  0.2112  0.1688  0.1396
 1270BOLB   GL130459  10.044   6.553  27.738  0.3466  0.3228 -0.2496
 1270BOLB   GL230460  10.056   6.308  27.502 -0.1972 -0.0308  0.5010
 1270BOLB   C1A30461   9.625   6.243  27.708 -0.1170  0.1934 -0.0255
 1270BOLB   C2A30462   9.199   6.000  27.703 -0.0103  0.1465  0.1679
 1270BOLB   C3A30463   8.931   5.751  27.881  0.2538  0.1988  0.0905
 1270BOLB   C4A30464   8.684   5.645  28.262  0.2778 -0.2714 -0.0365
 1270BOLB   C1B30465   9.775   5.921  27.336  0.4559 -0.1320  0.0719
 1270BOLB   C2B30466   9.397   5.638  27.392  0.0359  0.2754  0.1534
 1270BOLB   C3B30467   8.972   5.600  27.359 -0.2495 -0.3097  0.0400
 1270BOLB   C4B30468   8.687   5.499  27.004  0.0136 -0.1862  0.1098
 1270BOLB   NC230469   6.800   4.030  28.289  0.2933 -0.1070 -0.1080
 1270BOLB   PO230470   7.204   3.768  28.470  0.1871 -0.2355  0.0057
 1270BOLB   GL330471   7.307   4.198  28.523  0.2760  0.0432 -0.1520
 1270BOLB   GL430472   7.258   4.295  28.209 -0.2190  0.1334  0.1286
 1270BOLB   C1C30473   7.486   4.570  28.650  0.0878 -0.2981  0.1317
 1270BOLB   C2C30474   7.740   5.018  28.689 -0.0352  0.2017  0.0932
 1270BOLB   C3C30475   8.033   5.378  28.706 -0.2544 -0.0477  0.0642
 1270BOLB   C4C30476   8.377   5.690  28.616  0.0027 -0.1805 -0.1819
 1270BOLB   C1D30477   7.251   4.761  28.183 -0.3529 -0.0026 -0.3282
 1270BOLB   C2D30478   7.579   5.048  28.218  0.0466 -0.1365  0.1858
 1270BOLB   C3D30479   7.548   5.500  28.224  0.0967 -0.1720  0.0220
 1270BOLB   C4D30480   7.761   5.731  27.970  0.1500  0.0435  0.1712
 1271BOLB   NC130481  21.801  16.702  30.466 -0.0326 -0.0365 -0.0037
 1271BOLB   PO130482  21.682  17.063  30.649 -0.1580 -0.0400  0.1442
 1271BOLB   GL130483  22.175  17.088  30.469  0.6245 -0.2568 -0.2690
 1271BOLB   GL230484  22.248  16.951  30.068  0.0100  0.2396 -0.0545
 1271BOLB   C1A30485  22.634  16.937  30.432  0.1910 -0.1663 -0.0093
 1271BOLB   C2A30486  23.017  17.136  30.578 -0.2299 -0.1990  0.0270
 1271BOLB   C3A30487  23.271  17.363  30.758  0.1470  0.1225  0.2157
 1271BOLB   C4A30488  23.673  17.363  30.595  0.0762  0.0813  0.3857
 1271BOLB   C1B30489  22.584  17.150  29.847  0.1116 -0.1193 -0.2895
 1271BOLB   C2B30490  23.025  17.202  29.908  0.1589  0.2680 -0.2584
 1271BOLB   C3B30491  23.375  17.412  29.983  0.2312 -0.2398 -0.2575
 1271BOLB   C4B30492  23.754  17.599  30.003  0.0428 -0.1508 -0.1891
 1271BOLB   NC230493  25.089  19.086  29.234 -0.1204  0.2770  0.0458
 1271BOLB   PO230494  25.242  18.827  29.048 -0.1556  0.1482  0.1860
 1271BOLB   GL330495  24.852  18.557  29.165 -0.2304  0.0834  0.1726
 1271BOLB   GL430496  24.648  18.805  29.161  0.1955  0.1308 -0.0867
 1271BOLB   C1C30497  24.740  18.263  29.541 -0.1889 -0.0573 -0.3540
 1271BOLB   C2C30498  24.412  18.062  29.908 -0.3080 -0.1159  0.2397
 1271BOLB   C3C30499  24.179  17.772  30.211  0.1146  0.2356  0.4125
 1271BOLB   C4C30500  23.976  17.577  30.563  0.0324  0.0629 -0.1026
 1271BOLB   C1D30501  24.473  18.696  29.512  0.0067 -0.0403 -0.0086
 1271BOLB   C2D30502  23.989  18.447  29.643 -0.2346 -0.1443 -0.0771
 1271BOLB   C3D30503  23.871  18.002  29.729 -0.1936  0.0960 -0.2180
 1271BOLB   C4D30504  23.501  17.703  29.575 -0.2421  0.0369 -0.0956
 1272BOLB   NC130505  11.368  14.655  21.638 -0.0201  0.0372  0.0410
 1272BOLB   PO130506  11.563  14.922  21.729 -0.1663  0.0493  0.2549
 1272BOLB   GL130507  11.563  15.003  21.317 -0.1980  0.1066  0.1480
 1272BOLB   GL230508  11.698  15.409  21.426  0.1986 -0.2627  0.0372
 1272BOLB   C1A30509  11.378  15.327  21.000  0.0354  0.1497 -0.1706
 1272BOLB   C2A30510  11.237  15.387  20.721  0.0700 -0.1032 -0.2392
 1272BOLB   C3A30511  11.018  15.351  20.385  0.1873  0.0355  0.1110
 1272BOLB   C4A30512  10.797  15.726  20.151  0.2279 -0.4348 -0.0247
 1272BOLB   C1B30513  11.507  15.786  21.122  0.1853 -0.0160  0.2110
 1272BOLB   C2B30514  11.149  15.885  20.871  0.1521  0.1048 -0.2083
 1272BOLB   C3B30515  10.780  15.991  20.771 -0.1048  0.1030  0.0527
 1272BOLB   C4B30516  10.429  16.287  20.715 -0.0827 -0.3142  0.4183
 1272BOLB   NC230517   9.609  16.709  18.154 -0.0163  0.0797 -0.1791
 1272BOLB   PO230518   9.341  16.547  18.450  0.1737  0.1115  0.0472
 1272BOLB   GL330519   9.649  16.560  18.801 -0.0231 -0.0413 -0.1471
 1272BOLB   GL430520   9.680  16.810  19.084 -0.0715  0.1367  0.1456
 1272BOLB   C1C30521   9.722  16.292  19.163  0.0243 -0.1829  0.1897
 1272BOLB   C2C30522  10.099  16.125  19.456 -0.4007 -0.2351 -0.3850
 1272BOLB   C3C30523  10.493  16.138  19.734  0.1145 -0.1238  0.2367
 1272BOLB   C4C30524  10.637  15.954  19.891  0.2119 -0.1730  0.0630
 1272BOLB   C1D30525   9.662  16.841  19.522  0.1182  0.1392  0.0163
 1272BOLB   C2D30526   9.744  16.852  19.950  0.0782 -0.1154 -0.1762
 1272BOLB   C3D30527   9.826  16.771  20.435 -0.0881 -0.1361 -0.0132
 1272BOLB   C4D30528  10.230  16.661  20.333 -0.0629  0.0968  0.0146
 1273BOLB   NC130529  23.446  11.376  28.469 -0.2757  0.1202  0.0570
 1273BOLB   PO130530  23.556  11.484  28.851 -0.1493  0.1332  0.1911
 1273BOLB   GL130531  24.025  11.549  28.671  0.2334  0.0189 -0.0245
 1273BOLB   GL230532  24.204  11.770  28.828  0.2554 -0.0706  0.2868
 1273BOLB   C1A30533  24.421  11.359  28.695 -0.2306 -0.1162 -0.5389
 1273BOLB   C2A30534  24.810  11.355  28.413 -0.0195  0.0482 -0.1480
 1273BOLB   C3A30535  25.161  11.261  28.111  0.1610  0.1182 -0.0368
 1273BOLB   C4A30536  25.624  11.400  28.123 -0.1257  0.0849  0.1303
 1273BOLB   C1B30537  24.562  11.767  28.538 -0.1397 -0.1107 -0.4549
 1273BOLB   C2B30538  24.913  12.012  28.272  0.0859  0.0560 -0.1586
 1273BOLB   C3B30539  25.196  11.818  27.895  0.2476 -0.1177  0.0366
 1273BOLB   C4B30540  25.464  11.776  27.458 -0.1820  0.0017 -0.3228
 1273BOLB   NC230541   0.597  12.489  27.627 -0.3963  0.0817 -0.0152
 1273BOLB   PO230542   0.380  12.431  27.286  0.1873  0.1207  0.4062
 1273BOLB   GL330543   0.077  12.096  27.301 -0.3386 -0.1523  0.1474
 1273BOLB   GL430544  26.838  11.876  27.100  0.3968  0.2060  0.0059
 1273BOLB   C1C30545   0.015  11.817  27.675 -0.1293  0.1733 -0.1089
 1273BOLB   C2C30546  26.763  11.624  27.839  0.0617 -0.3485  0.2594
 1273BOLB   C3C30547  26.335  11.563  27.927  0.0070  0.4276  0.0874
 1273BOLB   C4C30548  25.962  11.644  27.897  0.0257  0.1678  0.1673
 1273BOLB   C1D30549  26.538  11.620  27.292 -0.2783 -0.0763 -0.1785
 1273BOLB   C2D30550  26.209  11.320  27.525 -0.0450  0.0554 -0.1905
 1273BOLB   C3D30551  25.908  10.918  27.424 -0.1010  0.0953  0.0280
 1273BOLB   C4D30552  25.565  10.670  27.475 -0.0281 -0.0296 -0.1543
 1274BOLB   NC130553  13.373   4.999  33.586  0.0687  0.0908 -0.2495
 1274BOLB   PO130554  13.484   5.055  33.180 -0.1342 -0.1245 -0.4057
 1274BOLB   GL130555  13.423   4.689  33.200  0.1233  0.0406 -0.1213
 1274BOLB   GL230556  13.314   4.549  32.877 -0.0874  0.0576 -0.0517
 1274BOLB   C1A30557  13.501   4.285  33.344 -0.2210 -0.0511  0.1735
 1274BOLB   C2A30558  13.639   4.024  33.729 -0.0427  0.0339 -0.4422
 1274BOLB   C3A30559  13.543   3.642  33.859  0.1308  0.0593 -0.0616
 1274BOLB   C4A30560  13.498   3.341  34.000  0.0398  0.0015 -0.1347
 1274BOLB   C1B30561  13.272   4.138  32.892 -0.0445  0.0617 -0.2754
 1274BOLB   C2B30562  13.251   3.674  32.858 -0.0320 -0.0854 -0.0142
 1274BOLB   C3B30563  13.104   3.361  32.524  0.0821  0.4075  0.0666
 1274BOLB   C4B30564  12.783   3.083  32.477  0.1595 -0.2743  0.0486
 1274BOLB   NC230565  12.679   1.903  35.668 -0.1483 -0.2915  0.1164
 1274BOLB   PO230566  12.472   1.847  35.303 -0.0094  0.0800 -0.1312
 1274BOLB   GL330567  12.578   2.043  34.925 -0.0834  0.1918 -0.2306
 1274BOLB   GL430568  12.891   2.089  34.897  0.2127  0.0471  0.0639
 1274BOLB   C1C30569  12.566   2.172  34.487 -0.0412  0.1082 -0.3464
 1274BOLB   C2C30570  12.656   2.453  34.196  0.1011  0.2733  0.2922
 1274BOLB   C3C30571  12.925   2.877  34.217 -0.0124 -0.0827 -0.0935
 1274BOLB   C4C30572  13.272   2.941  34.071  0.1930 -0.2551  0.1357
 1274BOLB   C1D30573  13.058   2.396  34.756 -0.1885  0.1292 -0.2649
 1274BOLB   C2D30574  12.780   2.632  34.619 -0.0608  0.2931 -0.0377
 1274BOLB   C3D30575  12.605   3.011  34.641 -0.1846  0.0998 -0.0408
 1274BOLB   C4D30576  12.973   3.344  34.444  0.1092  0.1157 -0.0331
 1275BOLB   NC130577  17.582  15.096  39.426 -0.0288 -0.0555 -0.0997
 1275BOLB   PO130578  17.391  15.453  39.347 -0.1207  0.2874 -0.2285
 1275BOLB   GL130579  17.445  15.466  39.782  0.2021 -0.1000  0.0703
 1275BOLB   GL230580  17.091  15.517  40.063 -0.0783 -0.1135 -0.1068
 1275BOLB   C1A30581  17.560  15.427  40.256 -0.0347 -0.0115  0.2454
 1275BOLB   C2A30582  17.266  15.585  40.581 -0.0569 -0.1322  0.0819
 1275BOLB   C3A30583  17.372  15.643  41.031  0.0179  0.3593 -0.4013
 1275BOLB   C4A30584  17.753  15.721  41.289 -0.2414 -0.4367 -0.0565
 1275BOLB   C1B30585  17.069  15.197  40.384  0.3554 -0.1206  0.0329
 1275BOLB   C2B30586  17.165  15.166  40.914  0.0885  0.1600 -0.0419
 1275BOLB   C3B30587  17.496  15.151  41.110  0.0550  0.0317 -0.3007
 1275BOLB   C4B30588  17.880  15.231  41.357 -0.1181 -0.1259 -0.1760
 1275BOLB   NC230589  18.219  15.831  43.479  0.0703 -0.0967  0.0429
 1275BOLB   PO230590  18.149  15.427  43.683 -0.1573 -0.0402 -0.0127
 1275BOLB   GL330591  17.870  15.410  43.284  0.1101  0.0250 -0.2022
 1275BOLB   GL430592  17.631  15.339  43.126 -0.0851  0.0248  0.1481
 1275BOLB   C1C30593  18.078  15.540  42.922  0.1065  0.0695 -0.0123
 1275BOLB   C2C30594  17.992  15.576  42.561  0.2202  0.1991 -0.0951
 1275BOLB   C3C30595  17.994  15.742  42.177  0.2407  0.1034  0.0724
 1275BOLB   C4C30596  17.906  15.782  41.695  0.1603 -0.0968 -0.2482
 1275BOLB   C1D30597  17.664  15.143  42.713  0.0354  0.0347  0.3600
 1275BOLB   C2D30598  17.618  15.334  42.225  0.0827 -0.3213  0.2894
 1275BOLB   C3D30599  17.484  15.625  41.970  0.0652 -0.0848 -0.0927
 1275BOLB   C4D30600  17.293  15.546  41.495  0.3388  0.0888  0.1019
 1276BOLB   NC130601  15.513  20.466  31.210 -0.0469  0.2699  0.0566
 1276BOLB   PO130602  15.265  20.678  30.892 -0.0835 -0.0978 -0.1362
 1276BOLB   GL130603  15.338  21.140  30.898  0.2029 -0.1623 -0.0820
 1276BOLB   GL230604  15.177  21.334  30.634  0.2625  0.1201 -0.0547
 1276BOLB   C1A30605  15.652  21.448  30.698 -0.0921  0.0525  0.0100
 1276BOLB   C2A30606  15.628  21.942  30.612  0.2034 -0.1599 -0.0331
 1276BOLB   C3A30607  15.787  22.373  30.619 -0.3668 -0.2695 -0.2441
 1276BOLB   C4A30608  15.796  22.789  30.859 -0.2081  0.1935  0.1405
 1276BOLB   C1B30609  15.004  21.808  30.609 -0.1661  0.0622  0.1812
 1276BOLB   C2B30610  15.228  22.238  30.571  0.3456  0.0343 -0.1700
 1276BOLB   C3B30611  15.366  22.561  30.446  0.0008 -0.0448  0.1347
 1276BOLB   C4B30612  15.390  23.035  30.239 -0.0395 -0.4403  0.0401
 1276BOLB   NC230613  16.009  25.679  30.461  0.4539  0.0230  0.2609
 1276BOLB   PO230614  15.923  25.232  30.458 -0.1948 -0.1459  0.3161
 1276BOLB   GL330615  15.988  24.769  30.710  0.1003 -0.4535 -0.0717
 1276BOLB   GL430616  16.137  24.725  31.058 -0.1256  0.1162 -0.1111
 1276BOLB   C1C30617  15.950  24.379  30.520  0.1101  0.0451  0.1974
 1276BOLB   C2C30618  15.882  24.018  30.643 -0.0138  0.3056 -0.0400
 1276BOLB   C3C30619  15.769  23.570  30.782  0.3170  0.4168 -0.1809
 1276BOLB   C4C30620  15.638  23.176  30.780 -0.0854  0.0507 -0.1023
 1276BOLB   C1D30621  16.087  24.305  30.992  0.2160  0.1032 -0.1493
 1276BOLB   C2D30622  16.111  23.821  31.051  0.0607  0.1260  0.0608
 1276BOLB   C3D30623  15.992  23.480  31.256 -0.2441 -0.0611  0.0368
 1276BOLB   C4D30624  15.671  23.073  31.379 -0.0781 -0.0847  0.2019
 1277BOLB   NC130625   8.450  14.263  34.026 -0.1723 -0.0995 -0.1011
 1277BOLB   PO130626   8.184  14.543  33.800  0.2945  0.0837 -0.0560
 1277BOLB   GL130627   7.885  14.701  34.051 -0.2753  0.3859 -0.2051
 1277BOLB   GL230628   8.008  14.606  34.331  0.2978 -0.1770 -0.2205
 1277BOLB   C1A30629   7.391  14.680  34.105 -0.1158 -0.0778 -0.2210
 1277BOLB   C2A30630   6.990  14.738  34.289 -0.3598  0.1736  0.0353
 1277BOLB   C3A30631   6.674  14.526  34.622 -0.1105  0.0833  0.0414
 1277BOLB   C4A30632   6.426  14.713  34.830  0.2352 -0.0615  0.0409
 1277BOLB   C1B30633   7.683  14.773  34.530  0.1299  0.2013  0.0399
 1277BOLB   C2B30634   7.331  14.717  34.773 -0.1391  0.0819  0.0412
 1277BOLB   C3B30635   6.939  14.895  34.965  0.1479 -0.0733 -0.0814
 1277BOLB   C4B30636   6.468  15.101  35.138  0.0971 -0.0527  0.0610
 1277BOLB   NC230637   4.380  15.238  36.588 -0.3433 -0.0817  0.1250
 1277BOLB   PO230638   4.652  14.921  36.373 -0.0437  0.0991  0.1911
 1277BOLB   GL330639   4.911  14.752  36.375 -0.0917 -0.2046  0.1470
 1277BOLB   GL430640   5.147  14.831  36.552  0.0084 -0.2877  0.1070
 1277BOLB   C1C30641   5.160  14.710  35.949  0.4181  0.1790  0.0212
 1277BOLB   C2C30642   5.591  14.756  35.710 -0.1216 -0.3929  0.2941
 1277BOLB   C3C30643   5.665  14.828  35.286  0.0110  0.1012 -0.0445
 1277BOLB   C4C30644   5.993  14.816  35.066 -0.2164 -0.1057 -0.1523
 1277BOLB   C1D30645   5.468  14.960  36.330 -0.0060 -0.0357 -0.1092
 1277BOLB   C2D30646   5.895  14.891  36.083 -0.2124 -0.2517  0.1810
 1277BOLB   C3D30647   6.320  14.875  35.982 -0.1404  0.1770  0.2838
 1277BOLB   C4D30648   6.705  14.840  36.162  0.2390 -0.0054  0.0907
 1278BOLB   NC130649   8.813  12.697  36.024  0.1487 -0.0403  0.1403
 1278BOLB   PO130650   9.143  12.774  36.409  0.1145  0.1012  0.3446
 1278BOLB   GL130651   9.068  12.934  36.857 -0.1743  0.3980  0.0844
 1278BOLB   GL230652   9.010  13.190  36.780  0.1076 -0.0968  0.1086
 1278BOLB   C1A30653   8.713  12.911  37.053 -0.2213  0.0775  0.2927
 1278BOLB   C2A30654   8.433  13.156  37.374 -0.0504 -0.1855 -0.3416
 1278BOLB   C3A30655   8.216  13.557  37.234  0.3570 -0.4897 -0.0370
 1278BOLB   C4A30656   7.902  13.786  37.513  0.1939  0.3206 -0.1806
 1278BOLB   C1B30657   8.816  13.422  37.076 -0.2014 -0.2505 -0.4675
 1278BOLB   C2B30658   8.662  13.735  37.343  0.2021 -0.1198 -0.0433
 1278BOLB   C3B30659   8.428  14.094  37.570 -0.0343  0.0338  0.2184
 1278BOLB   C4B30660   8.286  14.323  37.832 -0.0727  0.1618 -0.0991
 1278BOLB   NC230661   5.920  12.692  39.266  0.4289  0.3197 -0.1735
 1278BOLB   PO230662   6.196  12.953  39.440  0.0478  0.1566  0.0749
 1278BOLB   GL330663   6.417  12.894  39.034  0.3003 -0.1539  0.0011
 1278BOLB   GL430664   6.482  12.622  39.040  0.0879  0.1343  0.1637
 1278BOLB   C1C30665   6.880  13.224  38.909 -0.3858  0.0679 -0.1776
 1278BOLB   C2C30666   7.246  13.038  38.557  0.0230 -0.1128  0.1863
 1278BOLB   C3C30667   7.549  13.113  38.161 -0.2144  0.3159  0.1108
 1278BOLB   C4C30668   7.680  13.541  37.858  0.2269 -0.2310 -0.6831
 1278BOLB   C1D30669   6.893  12.598  38.956 -0.3782 -0.4350  0.0673
 1278BOLB   C2D30670   7.174  12.582  38.665 -0.2552 -0.1500  0.1839
 1278BOLB   C3D30671   7.263  12.730  38.160  0.1296  0.0543 -0.3052
 1278BOLB   C4D30672   7.152  12.775  37.754  0.2895  0.2141  0.1813
 1279BOLB   NC130673  17.536   3.848  29.854 -0.2415 -0.1979 -0.1991
 1279BOLB   PO130674  17.955   4.207  29.934  0.2927  0.0203  0.0626
 1279BOLB   GL130675  18.016   3.695  29.785  0.1273 -0.2384 -0.0496
 1279BOLB   GL230676  18.301   3.518  29.670 -0.0908 -0.0660 -0.0885
 1279BOLB   C1A30677  17.945   3.286  29.966 -0.1989 -0.0308 -0.2185
 1279BOLB   C2A30678  17.936   2.836  30.126 -0.0212 -0.0141  0.0349
 1279BOLB   C3A30679  17.900   2.439  30.005 -0.1861 -0.1253 -0.1551
 1279BOLB   C4A30680  17.677   2.138  29.831  0.2382  0.0823  0.0155
 1279BOLB   C1B30681  18.468   3.161  29.808 -0.0454 -0.0263  0.2682
 1279BOLB   C2B30682  18.860   2.969  29.861  0.0186 -0.0038  0.0940
 1279BOLB   C3B30683  19.286   2.993  29.918 -0.3027  0.3569 -0.1877
 1279BOLB   C4B30684  19.600   2.788  29.950  0.0678 -0.2084  0.2418
 1279BOLB   NC230685  17.271  26.501  29.265  0.0304 -0.2816 -0.1958
 1279BOLB   PO230686  17.523  26.953  29.222 -0.1580 -0.2968  0.2476
 1279BOLB   GL330687  17.357   0.292  29.169 -0.2309  0.2918  0.0745
 1279BOLB   GL430688  17.245   0.475  29.066 -0.2453  0.3984  0.0146
 1279BOLB   C1C30689  17.357   0.685  29.475  0.0144  0.2004 -0.3106
 1279BOLB   C2C30690  17.176   1.014  29.567 -0.3812  0.1643 -0.1232
 1279BOLB   C3C30691  17.274   1.435  29.775  0.2187 -0.2873 -0.0158
 1279BOLB   C4C30692  17.500   1.781  29.740  0.1105 -0.0799  0.1616
 1279BOLB   C1D30693  17.331   0.653  28.711 -0.0878  0.0520 -0.1705
 1279BOLB   C2D30694  17.165   0.886  28.458  0.1910  0.0132 -0.0815
 1279BOLB   C3D30695  17.090   1.301  28.336 -0.0253  0.1930  0.0379
 1279BOLB   C4D30696  17.008   1.794  28.592 -0.1074  0.1395 -0.2641
 1280BOLB   NC130697  21.038  14.601  37.039  0.2436 -0.2946  0.5013
 1280BOLB   PO130698  21.324  14.912  36.996  0.0269 -0.1896  0.1239
 1280BOLB   GL130699  21.616  14.891  37.262 -0.0768  0.1963 -0.1247
 1280BOLB   GL230700  21.878  14.904  37.119  0.0867  0.1244 -0.0746
 1280BOLB   C1A30701  21.876  14.771  37.554  0.0347 -0.1836  0.1394
 1280BOLB   C2A30702  22.295  14.682  37.735 -0.0419 -0.2668  0.0843
 1280BOLB   C3A30703  22.627  14.640  38.011  0.0123 -0.0381  0.1688
 1280BOLB   C4A30704  23.029  14.487  38.226 -0.3015 -0.1140  0.1635
 1280BOLB   C1B30705  22.317  15.049  37.364 -0.2087 -0.1422 -0.4005
 1280BOLB   C2B30706  22.721  14.959  37.442 -0.1332 -0.0047 -0.0005
 1280BOLB   C3B30707  23.017  14.831  37.739 -0.2595 -0.1480 -0.1802
 1280BOLB   C4B30708  23.320  14.905  37.959  0.4939 -0.0614  0.1661
 1280BOLB   NC230709  25.021  14.410  39.458  0.3445  0.0070 -0.0691
 1280BOLB   PO230710  24.709  14.404  39.706  0.1286 -0.0129  0.2542
 1280BOLB   GL330711  24.217  14.392  39.556  0.3435  0.0387 -0.1595
 1280BOLB   GL430712  23.831  14.311  39.736  0.1410  0.2375 -0.1144
 1280BOLB   C1C30713  24.035  14.064  39.362 -0.0087  0.0699  0.0329
 1280BOLB   C2C30714  23.809  13.733  39.096  0.1052 -0.5740 -0.0113
 1280BOLB   C3C30715  23.436  13.894  38.741 -0.0610 -0.0551  0.1058
 1280BOLB   C4C30716  23.187  14.065  38.403  0.0864  0.4018  0.1717
 1280BOLB   C1D30717  23.365  14.134  39.694 -0.0768  0.1644 -0.1220
 1280BOLB   C2D30718  22.919  14.162  39.716 -0.2351 -0.1019 -0.1454
 1280BOLB   C3D30719  22.561  14.310  39.572  0.1039  0.0289  0.0496
 1280BOLB   C4D30720  22.051  14.165  39.658  0.0919 -0.0446 -0.2337
 1281BOLB   NC130721   8.107  11.417  28.580 -0.3182  0.0650  0.1598
 1281BOLB   PO130722   7.972  11.845  28.523  0.0172 -0.0207 -0.0588
 1281BOLB   GL130723   7.567  12.009  28.582  0.2261  0.1180  0.0014
 1281BOLB   GL230724   7.228  12.211  28.601  0.0952  0.0390 -0.1156
 1281BOLB   C1A30725   7.148  11.737  28.643  0.1849 -0.3492 -0.4285
 1281BOLB   C2A30726   6.676  11.817  28.434  0.0458 -0.0439 -0.0549
 1281BOLB   C3A30727   6.281  11.969  28.417  0.1130  0.1583 -0.1361
 1281BOLB   C4A30728   5.816  12.003  28.424 -0.2040  0.2699 -0.0676
 1281BOLB   C1B30729   6.879  12.346  28.586 -0.0004  0.1316  0.1266
 1281BOLB   C2B30730   6.494  12.558  28.446  0.3467 -0.0580  0.4592
 1281BOLB   C3B30731   6.124  12.692  28.622 -0.1611 -0.0165 -0.0339
 1281BOLB   C4B30732   5.703  12.536  28.834 -0.2759 -0.0418  0.0581
 1281BOLB   NC230733   3.171  12.068  28.656  0.1557  0.1336 -0.0708
 1281BOLB   PO230734   3.108  11.602  28.656 -0.0215  0.3234  0.1247
 1281BOLB   GL330735   3.639  11.596  28.865 -0.1286  0.1505 -0.1626
 1281BOLB   GL430736   3.672  11.455  28.629 -0.1407 -0.0209  0.2826
 1281BOLB   C1C30737   4.091  11.635  28.914  0.1378 -0.1386  0.0655
 1281BOLB   C2C30738   4.591  11.745  28.809 -0.3079 -0.1238  0.0380
 1281BOLB   C3C30739   4.981  12.014  28.666 -0.1144  0.0454  0.2128
 1281BOLB   C4C30740   5.456  11.988  28.654  0.0685 -0.0893  0.2946
 1281BOLB   C1D30741   3.926  11.616  28.456 -0.3195 -0.2960  0.0148
 1281BOLB   C2D30742   4.253  11.944  28.560 -0.0753 -0.1530  0.2813
 1281BOLB   C3D30743   4.622  12.282  28.735 -0.2912 -0.0348 -0.3909
 1281BOLB   C4D30744   5.049  12.477  28.972  0.1536 -0.1742  0.0496
 1282BOLB   NC130745  20.844   6.330  33.820 -0.0314  0.0302 -0.1351
 1282BOLB   PO130746  21.100   6.266  33.346  0.1532 -0.0008 -0.2138
 1282BOLB   GL130747  21.539   6.102  33.361  0.0636  0.1045 -0.0015
 1282BOLB   GL230748  21.426   5.838  33.378 -0.2880  0.1374 -0.0325
 1282BOLB   C1A30749  21.891   5.875  33.568 -0.2138 -0.1846 -0.1993
 1282BOLB   C2A30750  21.868   5.556  33.907  0.2520  0.3171 -0.3794
 1282BOLB   C3A30751  21.832   5.148  33.901 -0.0456 -0.2030 -0.0203
 1282BOLB   C4A30752  21.818   4.778  34.026  0.1833  0.1660 -0.0749
 1282BOLB   C1B30753  21.543   5.393  33.556 -0.3116  0.4092  0.0026
 1282BOLB   C2B30754  21.468   4.865  33.686 -0.0294 -0.2165 -0.0457
 1282BOLB   C3B30755  21.700   4.465  33.640  0.1852 -0.0066  0.0577
 1282BOLB   C4B30756  22.019   4.193  33.667 -0.1828 -0.0856 -0.2130
 1282BOLB   NC230757  22.601   2.418  34.485 -0.1929  0.1219  0.0841
 1282BOLB   PO230758  22.850   2.697  34.114 -0.1036 -0.1809  0.2399
 1282BOLB   GL330759  22.931   3.151  34.139  0.3063  0.0549 -0.0576
 1282BOLB   GL430760  23.240   3.337  34.083 -0.1175 -0.1997  0.1118
 1282BOLB   C1C30761  22.782   3.456  34.176  0.0323  0.0821 -0.2441
 1282BOLB   C2C30762  22.539   3.795  34.107 -0.3605  0.1262 -0.1433
 1282BOLB   C3C30763  22.261   4.109  34.124 -0.0755 -0.1592  0.2647
 1282BOLB   C4C30764  22.084   4.508  34.069  0.1394  0.0216  0.0706
 1282BOLB   C1D30765  23.178   3.819  34.131 -0.0417 -0.1602 -0.0977
 1282BOLB   C2D30766  23.003   4.146  33.898 -0.0882 -0.1969 -0.2061
 1282BOLB   C3D30767  23.008   4.567  34.006 -0.1567 -0.2577  0.0044
 1282BOLB   C4D30768  22.694   4.753  33.780  0.1441  0.2192  0.1459
 1283BOLB   NC130769  18.160   4.686  32.318 -0.2468  0.1367 -0.3723
 1283BOLB   PO130770  18.468   4.646  32.491 -0.0849 -0.1159 -0.0879
 1283BOLB   GL130771  18.329   4.391  32.752 -0.0551 -0.1960  0.2325
 1283BOLB   GL230772  18.178   4.221  32.534  0.0818 -0.3108 -0.0125
 1283BOLB   C1A30773  18.143   4.001  32.974  0.2045  0.0532 -0.1522
 1283BOLB   C2A30774  18.212   3.700  33.283 -0.2337 -0.0778  0.1731
 1283BOLB   C3A30775  18.436   3.278  33.446 -0.1090  0.3398 -0.0661
 1283BOLB   C4A30776  18.604   2.847  33.561 -0.2204  0.1530  0.0507
 1283BOLB   C1B30777  18.261   3.905  32.470 -0.0958 -0.0107 -0.2004
 1283BOLB   C2B30778  18.323   3.548  32.724  0.0392 -0.1178 -0.0095
 1283BOLB   C3B30779  18.248   3.167  32.680  0.1765 -0.0105  0.0928
 1283BOLB   C4B30780  18.314   2.847  33.005 -0.3437 -0.2872 -0.1297
 1283BOLB   NC230781  19.033   0.677  33.047  0.0205  0.2650  0.1729
 1283BOLB   PO230782  18.703   0.486  33.005 -0.0444  0.1253 -0.0331
 1283BOLB   GL330783  18.544   0.943  33.122 -0.3976  0.1314 -0.0638
 1283BOLB   GL430784  18.212   0.782  33.121  0.1730 -0.0047 -0.1277
 1283BOLB   C1C30785  18.278   1.304  33.051 -0.0569 -0.0745 -0.0567
 1283BOLB   C2C30786  18.400   1.688  33.305 -0.2535  0.1458 -0.1722
 1283BOLB   C3C30787  18.508   2.069  33.361 -0.1847 -0.0229  0.1133
 1283BOLB   C4C30788  18.710   2.462  33.446  0.1456  0.4709  0.1094
 1283BOLB   C1D30789  17.999   0.982  32.743  0.0340 -0.3008 -0.1760
 1283BOLB   C2D30790  17.761   1.081  32.484  0.1080  0.0537 -0.0697
 1283BOLB   C3D30791  17.447   0.885  32.205  0.1141 -0.4172 -0.0177
 1283BOLB   C4D30792  17.071   1.105  32.045  0.0941  0.3357  0.1032
 1284BOLB   NC130793  10.651  15.850  23.414  0.3387  0.2067 -0.1535
 1284BOLB   PO130794  10.547  16.215  23.811 -0.0224 -0.1623 -0.1093
 1284BOLB   GL130795  10.227  16.111  23.614  0.0526  0.0538  0.0699
 1284BOLB   GL230796  10.190  16.392  23.458 -0.0536 -0.1019 -0.0968
 1284BOLB   C1A30797   9.787  16.217  23.759  0.0548  0.3352  0.0043
 1284BOLB   C2A30798   9.496  16.521  23.610  0.2654 -0.0676 -0.1593
 1284BOLB   C3A30799   9.144  16.541  23.447  0.0576  0.1767 -0.0215
 1284BOLB   C4A30800   8.753  16.399  23.216 -0.1335 -0.2797 -0.3193
 1284BOLB   C1B30801   9.930  16.733  23.517 -0.1290 -0.2233 -0.2900
 1284BOLB   C2B30802   9.613  16.927  23.242 -0.2671 -0.0391 -0.2832
 1284BOLB   C3B30803   9.832  16.944  22.814  0.3100  0.0760 -0.0437
 1284BOLB   C4B30804  10.013  16.968  22.460  0.0908  0.2046  0.0234
 1284BOLB   NC230805   6.686  16.718  21.487  0.0117 -0.0617 -0.0668
 1284BOLB   PO230806   6.795  16.976  21.842 -0.0113  0.0041 -0.1613
 1284BOLB   GL330807   7.096  16.606  21.944  0.0353 -0.1391 -0.1376
 1284BOLB   GL430808   6.868  16.469  22.189 -0.1869 -0.0153  0.0724
 1284BOLB   C1C30809   7.529  16.590  22.055  0.0150  0.0454  0.0376
 1284BOLB   C2C30810   7.823  16.479  22.388 -0.5714 -0.1147 -0.1309
 1284BOLB   C3C30811   8.233  16.519  22.545  0.1591  0.0666  0.4115
 1284BOLB   C4C30812   8.402  16.418  22.926  0.0827 -0.0292  0.0146
 1284BOLB   C1D30813   7.122  16.308  22.606 -0.3413  0.1071 -0.2042
 1284BOLB   C2D30814   7.561  16.193  22.791  0.3073 -0.2419 -0.1694
 1284BOLB   C3D30815   7.783  16.396  23.003  0.1741  0.2379 -0.1315
 1284BOLB   C4D30816   7.753  16.625  23.351 -0.0689  0.1473  0.2480
 1285BOLB   NC130817  11.321  19.536  27.048 -0.0114  0.1684 -0.0852
 1285BOLB   PO130818  10.858  19.722  27.049 -0.2780  0.5093 -0.0086
 1285BOLB   GL130819  10.553  19.958  26.910  0.1340  0.0144 -0.1135
 1285BOLB   GL230820  10.672  20.098  26.679 -0.0501 -0.1243  0.3035
 1285BOLB   C1A30821  10.217  20.342  26.903  0.0929 -0.0463  0.0048
 1285BOLB   C2A30822  10.228  20.804  26.766  0.1612  0.1343 -0.1063
 1285BOLB   C3A30823  10.348  21.263  26.656  0.1413  0.1976  0.0111
 1285BOLB   C4A30824  10.476  21.493  26.257 -0.3943 -0.1998 -0.0572
 1285BOLB   C1B30825  10.481  20.454  26.476  0.1409  0.1097  0.2395
 1285BOLB   C2B30826  10.404  20.511  25.995  0.0238 -0.0289  0.1644
 1285BOLB   C3B30827  10.051  20.507  25.730 -0.0324 -0.0809  0.2024
 1285BOLB   C4B30828   9.744  20.372  25.523  0.1009 -0.0011 -0.2432
 1285BOLB   NC230829  10.671  24.357  26.176  0.1128  0.0237  0.2304
 1285BOLB   PO230830  10.331  24.101  26.322 -0.0667  0.1203 -0.0813
 1285BOLB   GL330831  10.422  23.622  26.326  0.0106  0.1263  0.0536
 1285BOLB   GL430832  10.438  23.628  25.994  0.1833 -0.1732  0.1354
 1285BOLB   C1C30833  10.347  23.119  26.174 -0.2159  0.0384 -0.0228
 1285BOLB   C2C30834  10.435  22.687  26.284 -0.1315  0.0083 -0.0522
 1285BOLB   C3C30835  10.666  22.321  26.217  0.1609  0.1109 -0.0165
 1285BOLB   C4C30836  10.683  21.874  26.246 -0.0416 -0.0578  0.1419
 1285BOLB   C1D30837  10.785  23.443  26.075  0.1809 -0.0769 -0.1480
 1285BOLB   C2D30838  10.986  23.113  26.238 -0.1283 -0.0875 -0.0104
 1285BOLB   C3D30839  11.305  22.924  26.077 -0.0070  0.2606 -0.2446
 1285BOLB   C4D30840  11.699  23.122  26.065  0.1653  0.0820  0.0116
 1286BOLB   NC130841   9.982   8.772  24.882 -0.1334 -0.2557 -0.1160
 1286BOLB   PO130842  10.176   9.102  24.684  0.2666  0.1252  0.1060
 1286BOLB   GL130843   9.741   9.146  24.605 -0.1602  0.0759 -0.3473
 1286BOLB   GL230844   9.685   8.841  24.409 -0.3605 -0.1791  0.1574
 1286BOLB   C1A30845   9.353   9.282  24.517 -0.0376  0.2614  0.0688
 1286BOLB   C2A30846   8.870   9.125  24.510 -0.2254  0.0007 -0.1797
 1286BOLB   C3A30847   8.467   8.978  24.306 -0.0933  0.0928 -0.2791
 1286BOLB   C4A30848   8.255   8.802  24.651 -0.0081 -0.0001 -0.3849
 1286BOLB   C1B30849   9.661   8.826  24.036 -0.3130  0.3862  0.1253
 1286BOLB   C2B30850   9.339   8.765  23.708  0.0786 -0.0212  0.2551
 1286BOLB   C3B30851   9.046   8.609  23.414  0.0851 -0.5166  0.0451
 1286BOLB   C4B30852   8.740   8.962  23.205 -0.2550 -0.0774  0.1004
 1286BOLB   NC230853   6.275   7.178  23.379 -0.3249  0.0138 -0.1258
 1286BOLB   PO230854   6.438   7.644  23.607 -0.0238 -0.0887 -0.0991
 1286BOLB   GL330855   6.721   7.831  23.986 -0.3295 -0.0519  0.3226
 1286BOLB   GL430856   6.435   7.770  24.208 -0.1242 -0.0903 -0.1668
 1286BOLB   C1C30857   7.113   8.045  23.973 -0.0888  0.1492 -0.0094
 1286BOLB   C2C30858   7.442   8.074  24.177  0.3876  0.0394 -0.0046
 1286BOLB   C3C30859   7.765   8.157  24.351 -0.1084 -0.0386 -0.3082
 1286BOLB   C4C30860   7.973   8.402  24.558  0.0306 -0.0234  0.2371
 1286BOLB   C1D30861   6.416   7.743  24.660  0.0617  0.5234  0.1138
 1286BOLB   C2D30862   6.714   7.936  24.888  0.2509 -0.1723 -0.2752
 1286BOLB   C3D30863   7.022   8.220  24.999  0.1383 -0.1456 -0.0635
 1286BOLB   C4D30864   7.217   8.288  25.448  0.3704  0.1233 -0.4755
 1287BOLB   NC130865   8.275  18.371  31.982  0.0081 -0.3361 -0.2326
 1287BOLB   PO130866   8.361  18.665  31.789 -0.0311  0.1685  0.1435
 1287BOLB   GL130867   8.090  18.831  31.686  0.0615 -0.1859  0.1375
 1287BOLB   GL230868   7.945  18.915  31.313  0.2978 -0.3229 -0.1794
 1287BOLB   C1A30869   7.794  19.123  31.732  0.2182  0.0274  0.0349
 1287BOLB   C2A30870   7.382  19.289  31.845  0.0412 -0.3205  0.1803
 1287BOLB   C3A30871   6.998  19.266  32.068  0.0125 -0.2623  0.0997
 1287BOLB   C4A30872   6.901  19.416  32.411  0.4625  0.3412  0.0086
 1287BOLB   C1B30873   7.560  19.098  31.137  0.2102 -0.1564 -0.0228
 1287BOLB   C2B30874   7.229  19.512  31.240 -0.2059 -0.2582  0.1896
 1287BOLB   C3B30875   7.223  19.978  31.324  0.0325 -0.3798 -0.0616
 1287BOLB   C4B30876   6.877  20.310  31.277  0.1204 -0.0755 -0.0345
 1287BOLB   NC230877   5.289  20.619  32.644  0.2294 -0.0664 -0.3083
 1287BOLB   PO230878   5.621  20.890  32.727 -0.0306  0.0331 -0.3528
 1287BOLB   GL330879   6.053  20.678  32.914  0.0297 -0.2508 -0.2764
 1287BOLB   GL430880   6.163  20.733  33.314 -0.0092  0.0925  0.4662
 1287BOLB   C1C30881   6.335  20.314  33.153  0.1473  0.0110  0.1518
 1287BOLB   C2C30882   6.545  19.912  33.306  0.1012 -0.2209 -0.1389
 1287BOLB   C3C30883   6.665  19.621  32.989  0.0003  0.2303 -0.2050
 1287BOLB   C4C30884   6.603  19.445  32.647  0.3484 -0.1808 -0.1084
 1287BOLB   C1D30885   6.566  20.859  33.121  0.3251  0.3109  0.0844
 1287BOLB   C2D30886   7.021  20.790  33.016 -0.2063 -0.3485  0.0903
 1287BOLB   C3D30887   7.335  20.639  32.768  0.1076  0.0110 -0.0097
 1287BOLB   C4D30888   7.612  20.662  32.470  0.0157 -0.1942 -0.2155
 1288BOLB   NC130889  20.330   5.175  29.760 -0.1290 -0.2232 -0.0068
 1288BOLB   PO130890  20.663   5.023  29.516 -0.3274  0.6385  0.1624
 1288BOLB   GL130891  20.934   4.739  29.362 -0.0021 -0.0273  0.2312
 1288BOLB   GL230892  21.130   4.535  29.649  0.1892 -0.1200 -0.1257
 1288BOLB   C1A30893  21.034   4.391  29.066  0.2552  0.0034 -0.0364
 1288BOLB   C2A30894  21.367   4.024  29.062  0.2581  0.0877 -0.1146
 1288BOLB   C3A30895  21.637   3.903  29.354 -0.0775  0.1321  0.2096
 1288BOLB   C4A30896  22.029   3.727  29.604 -0.1451 -0.1022  0.2675
 1288BOLB   C1B30897  21.152   4.096  29.596  0.0495  0.0669  0.2103
 1288BOLB   C2B30898  21.210   3.717  29.525 -0.2266  0.1588  0.2335
 1288BOLB   C3B30899  21.296   3.310  29.510  0.1026 -0.1525 -0.2094
 1288BOLB   C4B30900  21.223   3.116  29.057 -0.0121  0.0433  0.0229
 1288BOLB   NC230901  23.058   1.915  29.262 -0.1743 -0.1015  0.1859
 1288BOLB   PO230902  23.091   1.762  29.697  0.1890 -0.2481 -0.0753
 1288BOLB   GL330903  23.081   2.200  29.849 -0.0359 -0.0912 -0.5111
 1288BOLB   GL430904  22.745   2.305  30.045  0.1304  0.2221  0.1606
 1288BOLB   C1C30905  23.057   2.575  29.778 -0.0328  0.1321 -0.0432
 1288BOLB   C2C30906  22.983   2.993  29.859 -0.3081  0.0882  0.0913
 1288BOLB   C3C30907  22.683   3.291  29.813 -0.4281  0.0984  0.0911
 1288BOLB   C4C30908  22.333   3.425  29.661  0.2445 -0.0359  0.0356
 1288BOLB   C1D30909  22.591   2.601  29.732 -0.1695 -0.0004  0.3040
 1288BOLB   C2D30910  22.522   2.614  29.304  0.1944 -0.3789 -0.0242
 1288BOLB   C3D30911  22.607   2.632  28.918 -0.3745 -0.0834  0.1467
 1288BOLB   C4D30912  22.684   2.883  28.613  0.1066 -0.0716  0.2162
 1289BOLB   NC130913  10.720  14.928  22.192  0.0738  0.0221 -0.3357
 1289BOLB   PO130914  10.864  14.553  21.923 -0.1762 -0.1095 -0.2165
 1289BOLB   GL130915  10.461  14.742  21.781  0.0789  0.0916  0.1785
 1289BOLB   GL230916  10.274  14.926  21.954 -0.2968 -0.0777 -0.3567
 1289BOLB   C1A30917  10.174  14.842  21.431  0.0783 -0.1020  0.3549
 1289BOLB   C2A30918  10.236  14.820  21.005  0.0204  0.2017  0.0678
 1289BOLB   C3A30919  10.229  15.067  20.577 -0.3495  0.1034  0.0891
 1289BOLB   C4A30920  10.143  15.069  20.166  0.2513 -0.1066 -0.0290
 1289BOLB   C1B30921  10.247  15.270  21.672 -0.1173  0.1628 -0.2174
 1289BOLB   C2B30922   9.959  15.322  21.362 -0.1041 -0.1962  0.4967
 1289BOLB   C3B30923   9.839  15.286  20.988  0.1494 -0.1856  0.1836
 1289BOLB   C4B30924   9.451  15.268  20.778  0.1745  0.0406 -0.0314
 1289BOLB   NC230925   8.456  14.947  18.903  0.1275  0.1009  0.0840
 1289BOLB   PO230926   8.237  15.322  18.959  0.0652  0.3652 -0.2363
 1289BOLB   GL330927   8.365  15.229  19.350  0.1167  0.0261 -0.4312
 1289BOLB   GL430928   8.642  15.062  19.379 -0.2539 -0.2509 -0.0805
 1289BOLB   C1C30929   8.660  15.377  19.738  0.1103  0.0886  0.2690
 1289BOLB   C2C30930   8.986  15.441  19.542 -0.2929  0.3851 -0.0472
 1289BOLB   C3C30931   9.381  15.324  19.694  0.0336  0.0568  0.0082
 1289BOLB   C4C30932   9.759  15.236  19.866  0.1135 -0.0621 -0.0495
 1289BOLB   C1D30933   8.927  14.955  19.747  0.1388  0.0464 -0.1270
 1289BOLB   C2D30934   9.232  14.731  19.926 -0.1182 -0.0668  0.0497
 1289BOLB   C3D30935   9.647  14.679  20.062 -0.1944  0.2492 -0.1190
 1289BOLB   C4D30936   9.938  14.635  20.338 -0.1532 -0.0179 -0.0842
 1290BOLB   NC130937  11.564  16.295  37.053  0.2584 -0.0669  0.1014
 1290BOLB   PO130938  11.143  16.256  37.106 -0.1585  0.1151  0.0534
 1290BOLB   GL130939  10.666  16.118  37.322 -0.0680 -0.1213  0.2559
 1290BOLB   GL230940  10.638  15.817  37.505  0.1181 -0.0225 -0.1296
 1290BOLB   C1A30941  10.407  16.391  37.613  0.3168  0.0567  0.0599
 1290BOLB   C2A30942  10.179  16.710  37.961  0.1612 -0.1181 -0.1861
 1290BOLB   C3A30943   9.850  17.118  38.119  0.1446 -0.0445  0.1330
 1290BOLB   C4A30944   9.518  17.252  37.974  0.1371 -0.0039  0.1066
 1290BOLB   C1B30945  10.225  15.908  37.513 -0.2769  0.4581  0.0246
 1290BOLB   C2B30946   9.898  16.096  37.638  0.2361 -0.0912  0.1809
 1290BOLB   C3B30947   9.829  16.499  37.675  0.0270  0.0130 -0.4157
 1290BOLB   C4B30948   9.802  16.851  37.601  0.4689 -0.0834 -0.0193
 1290BOLB   NC230949   7.437  18.211  39.122 -0.0708  0.2481 -0.1533
 1290BOLB   PO230950   7.768  18.077  38.958 -0.0769  0.0598  0.1003
 1290BOLB   GL330951   7.943  17.963  38.581  0.0115  0.0843  0.1927
 1290BOLB   GL430952   8.149  18.208  38.645  0.1361  0.1737 -0.0664
 1290BOLB   C1C30953   8.027  17.726  38.242  0.2023 -0.0691 -0.1906
 1290BOLB   C2C30954   8.270  17.430  38.121 -0.4448 -0.0706  0.2687
 1290BOLB   C3C30955   8.663  17.264  37.873 -0.0520 -0.0215  0.0569
 1290BOLB   C4C30956   9.160  17.372  37.849 -0.0423 -0.0968 -0.1154
 1290BOLB   C1D30957   8.499  17.918  38.386  0.0597  0.1049  0.0633
 1290BOLB   C2D30958   8.582  17.812  37.976 -0.1867  0.1900 -0.0393
 1290BOLB   C3D30959   8.543  17.914  37.530 -0.0884  0.1354 -0.2549
 1290BOLB   C4D30960   8.468  17.931  37.077 -0.3266  0.1346 -0.2391
 1291BOLB   NC130961  15.026   4.144  28.612 -0.3096  0.1091  0.2689
 1291BOLB   PO130962  14.789   4.528  28.847  0.1380 -0.0894 -0.0903
 1291BOLB   GL130963  14.604   4.079  28.900 -0.2205 -0.2978  0.0022
 1291BOLB   GL230964  14.592   3.871  28.573  0.0071  0.3388 -0.0149
 1291BOLB   C1A30965  14.669   3.654  29.024 -0.0515  0.0537 -0.3658
 1291BOLB   C2A30966  14.939   3.187  29.045 -0.1372 -0.1829  0.2635
 1291BOLB   C3A30967  14.847   2.992  28.817  0.1975  0.5554 -0.1406
 1291BOLB   C4A30968  14.517   2.725  28.963  0.3161  0.0660  0.0977
 1291BOLB   C1B30969  14.429   3.502  28.687 -0.4340  0.0681  0.1623
 1291BOLB   C2B30970  14.367   3.119  28.694  0.0522  0.0501  0.0898
 1291BOLB   C3B30971  14.513   2.837  28.349  0.1259  0.0260  0.0214
 1291BOLB   C4B30972  14.872   2.615  28.493 -0.1160  0.0441 -0.2575
 1291BOLB   NC230973  13.307   0.670  29.818  0.2402  0.3433  0.2585
 1291BOLB   PO230974  13.635   0.616  29.637  0.2288 -0.0365  0.3477
 1291BOLB   GL330975  13.632   1.048  29.572  0.1890 -0.1488  0.0569
 1291BOLB   GL430976  13.822   1.332  29.733  0.0915 -0.0709 -0.3822
 1291BOLB   C1C30977  13.652   1.456  29.261 -0.0279  0.0656 -0.1988
 1291BOLB   C2C30978  13.817   1.886  29.292  0.2613 -0.1596 -0.0318
 1291BOLB   C3C30979  14.042   2.281  29.465  0.0034 -0.0772  0.2046
 1291BOLB   C4C30980  14.425   2.431  29.299  0.1190 -0.1474  0.1638
 1291BOLB   C1D30981  13.427   1.635  29.761 -0.1661  0.0803 -0.4628
 1291BOLB   C2D30982  13.779   1.938  29.755  0.0999  0.1924  0.1203
 1291BOLB   C3D30983  13.993   2.022  29.985 -0.1900  0.1009 -0.0826
 1291BOLB   C4D30984  13.870   2.158  30.425 -0.3310  0.1744 -0.1083
 1292BOLB   NC130985   9.851   2.616  24.907  0.0236  0.1339 -0.0877
 1292BOLB   PO130986  10.194   2.810  24.964 -0.2250 -0.0355  0.1077
 1292BOLB   GL130987  10.394   3.249  24.744  0.0162  0.0475  0.3379
 1292BOLB   GL230988  10.716   3.317  24.677  0.0999  0.1718 -0.0905
 1292BOLB   C1A30989  10.475   3.689  24.930  0.0705 -0.3625  0.2421
 1292BOLB   C2A30990  10.575   4.095  25.024  0.2435 -0.0717  0.3511
 1292BOLB   C3A30991  10.994   4.254  24.980  0.2680 -0.0868  0.0762
 1292BOLB   C4A30992  11.266   4.343  25.220  0.0927  0.0887  0.1546
 1292BOLB   C1B30993  10.924   3.741  24.809  0.0638 -0.1564  0.0256
 1292BOLB   C2B30994  11.016   3.760  25.220  0.1300  0.0272  0.2366
 1292BOLB   C3B30995  10.827   3.443  25.464 -0.0301 -0.3643  0.5415
 1292BOLB   C4B30996  10.609   3.405  25.868  0.2666  0.1682 -0.0373
 1292BOLB   NC230997  13.716   5.653  26.173 -0.0350 -0.0070 -0.2162
 1292BOLB   PO230998  13.285   5.406  26.081 -0.2706  0.1151 -0.2197
 1292BOLB   GL330999  13.005   5.384  25.806 -0.0145 -0.2250 -0.0353
 1292BOLB   GL431000  13.106   5.337  25.527 -0.0299 -0.2490  0.2445
 1292BOLB   C1C31001  12.715   5.034  25.699  0.3730  0.0514  0.2632
 1292BOLB   C2C31002  12.333   4.847  25.613  0.1379  0.0402 -0.1973
 1292BOLB   C3C31003  12.094   4.715  25.222 -0.1242 -0.0317 -0.3055
 1292BOLB   C4C31004  11.634   4.659  25.091  0.1177  0.4287 -0.4487
 1292BOLB   C1D31005  13.419   5.067  25.352 -0.0304  0.0955 -0.1497
 1292BOLB   C2D31006  13.404   4.835  24.960  0.3337 -0.1326  0.0414
 1292BOLB   C3D31007  13.462   4.500  24.742 -0.2586  0.0713 -0.2152
 1292BOLB   C4D31008  13.726   4.098  24.649 -0.1053 -0.1913  0.0570
 1293BOLB   NC131009  13.646  13.536  39.671  0.0957 -0.0637  0.1671
 1293BOLB   PO131010  13.245  13.621  39.574 -0.4237  0.0916  0.0559
 1293BOLB   GL131011  12.928  13.680  39.838 -0.1179  0.0659  0.0498
 1293BOLB   GL231012  13.024  13.944  39.930 -0.1671 -0.1031 -0.0171
 1293BOLB   C1A31013  12.585  13.766  40.084 -0.1862 -0.0817  0.0512
 1293BOLB   C2A31014  12.178  13.851  40.323 -0.0677 -0.0171  0.1747
 1293BOLB   C3A31015  11.762  13.778  40.509  0.2690  0.0395  0.1540
 1293BOLB   C4A31016  11.572  13.718  40.840  0.2479 -0.0180  0.2430
 1293BOLB   C1B31017  13.053  13.821  40.434  0.6411  0.0436  0.2596
 1293BOLB   C2B31018  13.087  13.838  40.865 -0.2486 -0.0313  0.4720
 1293BOLB   C3B31019  13.081  13.574  41.196  0.1576  0.2599  0.1319
 1293BOLB   C4B31020  13.367  13.573  41.566  0.3597 -0.2165  0.1021
 1293BOLB   NC231021  10.875  13.785  42.867  0.0474 -0.2029 -0.0546
 1293BOLB   PO231022  10.749  13.509  42.592 -0.5072 -0.1988 -0.0689
 1293BOLB   GL331023  11.231  13.583  42.442 -0.4013  0.0146  0.3702
 1293BOLB   GL431024  11.335  13.828  42.587  0.1244 -0.0966  0.1403
 1293BOLB   C1C31025  11.548  13.611  42.229 -0.0621  0.1221  0.0774
 1293BOLB   C2C31026  11.576  13.355  41.895  0.4926 -0.0090 -0.0869
 1293BOLB   C3C31027  11.506  13.299  41.473  0.1807 -0.3153 -0.0193
 1293BOLB   C4C31028  11.586  13.262  41.028  0.0055  0.0746 -0.0209
 1293BOLB   C1D31029  11.255  14.043  42.208 -0.0810  0.3838  0.1853
 1293BOLB   C2D31030  10.899  14.171  41.884  0.3725  0.2390  0.1592
 1293BOLB   C3D31031  10.798  14.496  41.731 -0.0390  0.1370  0.0866
 1293BOLB   C4D31032  10.360  14.631  41.606  0.1004  0.4145 -0.0857
 1294BOLB   NC131033  22.645  12.580  26.214 -0.1517  0.2670  0.5543
 1294BOLB   PO131034  22.808  12.744  26.559  0.2559  0.2573  0.0720
 1294BOLB   GL131035  23.172  12.675  26.508  0.3264  0.3406 -0.1199
 1294BOLB   GL231036  23.289  12.483  26.634 -0.0169 -0.2970  0.0093
 1294BOLB   C1A31037  23.497  12.531  26.170 -0.1273  0.0734  0.0059
 1294BOLB   C2A31038  23.876  12.422  26.188 -0.2770 -0.0135  0.0221
 1294BOLB   C3A31039  24.340  12.539  26.215  0.0820 -0.0923  0.0631
 1294BOLB   C4A31040  24.712  12.451  26.088 -0.3323  0.0571  0.1219
 1294BOLB   C1B31041  23.594  12.133  26.432  0.0426  0.3778 -0.1643
 1294BOLB   C2B31042  24.103  11.932  26.375 -0.0396  0.0243  0.0322
 1294BOLB   C3B31043  24.274  11.606  26.073 -0.1007  0.4365  0.1536
 1294BOLB   C4B31044  24.596  11.362  25.907  0.0913 -0.3448  0.1512
 1294BOLB   NC231045   0.151  12.632  24.920 -0.2062 -0.3222  0.1038
 1294BOLB   PO231046  26.806  12.588  24.936  0.2594 -0.3013 -0.2656
 1294BOLB   GL331047  26.676  12.395  25.197 -0.0499 -0.0099  0.1398
 1294BOLB   GL431048  26.561  12.588  25.454 -0.4005  0.2866 -0.4713
 1294BOLB   C1C31049  26.168  12.405  25.155  0.2521 -0.0414 -0.3370
 1294BOLB   C2C31050  25.701  12.516  25.301 -0.2415  0.0614  0.1043
 1294BOLB   C3C31051  25.404  12.588  25.452  0.2580  0.2460  0.0416
 1294BOLB   C4C31052  25.004  12.458  25.688  0.1416 -0.0237  0.3074
 1294BOLB   C1D31053  26.227  12.300  25.664  0.2092  0.2536  0.1085
 1294BOLB   C2D31054  25.765  12.402  25.745 -0.0976  0.1300 -0.0812
 1294BOLB   C3D31055  25.626  12.733  25.937  0.0382 -0.3884 -0.5264
 1294BOLB   C4D31056  25.377  13.037  25.805 -0.1620 -0.2217 -0.0062
 1295BOLB   NC131057  16.798   4.030  30.141 -0.2336  0.2052 -0.3599
 1295BOLB   PO131058  17.129   4.033  29.987  0.1323  0.0774 -0.1963
 1295BOLB   GL131059  17.107   3.681  30.209 -0.2594 -0.0297  0.0432
 1295BOLB   GL231060  17.166   3.495  29.836  0.1062  0.0569 -0.0906
 1295BOLB   C1A31061  16.775   3.293  30.460  0.3002  0.0768  0.2974
 1295BOLB   C2A31062  16.848   2.883  30.567 -0.1538 -0.2064  0.1140
 1295BOLB   C3A31063  16.827   2.435  30.525  0.0992 -0.1189  0.0337
 1295BOLB   C4A31064  16.509   2.269  30.569 -0.0339 -0.0354  0.0310
 1295BOLB   C1B31065  16.947   3.097  30.055  0.0294  0.2531 -0.1090
 1295BOLB   C2B31066  16.910   2.640  30.109  0.2496  0.2443  0.0399
 1295BOLB   C3B31067  16.912   2.131  30.152  0.0013 -0.1944  0.0424
 1295BOLB   C4B31068  17.152   1.748  30.125 -0.0886  0.2957  0.0503
 1295BOLB   NC231069  15.372   0.343  29.847 -0.2188  0.0644  0.3054
 1295BOLB   PO231070  15.679   0.121  30.026  0.0393  0.2505 -0.0433
 1295BOLB   GL331071  15.680   0.495  30.209 -0.1731  0.1383  0.1804
 1295BOLB   GL431072  15.730   0.587  30.503  0.0416  0.0062 -0.2097
 1295BOLB   C1C31073  15.731   0.999  30.093  0.0535 -0.0415  0.1722
 1295BOLB   C2C31074  15.909   1.387  30.383  0.0574  0.1812 -0.1770
 1295BOLB   C3C31075  16.023   1.783  30.365 -0.3015  0.0177 -0.0443
 1295BOLB   C4C31076  16.385   1.955  30.346  0.0578 -0.4199 -0.1602
 1295BOLB   C1D31077  15.610   0.973  30.603  0.0722  0.0179  0.0444
 1295BOLB   C2D31078  15.526   1.351  30.714 -0.0229 -0.2009  0.1307
 1295BOLB   C3D31079  15.532   1.816  30.470  0.1797 -0.1107 -0.2105
 1295BOLB   C4D31080  15.686   2.132  30.253 -0.2277  0.0486 -0.0086
 1296BOLB   NC131081  22.690   7.711  26.327  0.2068 -0.4304 -0.1696
 1296BOLB   PO131082  22.671   8.053  26.421 -0.1118 -0.2885  0.3523
 1296BOLB   GL131083  23.133   7.981  26.193  0.0598  0.3948 -0.1088
 1296BOLB   GL231084  23.378   8.041  26.358  0.0919  0.0532  0.2508
 1296BOLB   C1A31085  23.543   7.937  25.885  0.1658  0.1215  0.2090
 1296BOLB   C2A31086  23.942   7.793  25.880 -0.1976 -0.1251 -0.1100
 1296BOLB   C3A31087  24.050   7.498  25.718  0.0074 -0.0924  0.1226
 1296BOLB   C4A31088  24.360   7.463  25.358 -0.1970  0.2382 -0.0457
 1296BOLB   C1B31089  23.552   7.626  26.272  0.0276  0.2722  0.1262
 1296BOLB   C2B31090  23.789   7.243  26.033  0.1367 -0.5262  0.3284
 1296BOLB   C3B31091  23.989   6.816  26.169 -0.3408 -0.3067 -0.0699
 1296BOLB   C4B31092  23.969   6.531  26.566 -0.0880  0.1756 -0.1102
 1296BOLB   NC231093  26.340   6.041  25.443  0.2553 -0.3982  0.2394
 1296BOLB   PO231094  26.455   6.357  25.721  0.2217 -0.0703  0.0929
 1296BOLB   GL331095  26.008   6.388  25.624  0.0716  0.1552 -0.0088
 1296BOLB   GL431096  25.705   6.450  25.835 -0.2922 -0.2343  0.0647
 1296BOLB   C1C31097  25.679   6.578  25.371 -0.1686 -0.2812 -0.0953
 1296BOLB   C2C31098  25.449   6.975  25.422  0.0892  0.3561  0.0137
 1296BOLB   C3C31099  25.172   7.424  25.418  0.1449 -0.1277  0.1085
 1296BOLB   C4C31100  24.823   7.565  25.202 -0.2728  0.0794  0.1847
 1296BOLB   C1D31101  25.309   6.545  25.904 -0.2699 -0.0204 -0.1000
 1296BOLB   C2D31102  24.909   6.546  26.202 -0.1754  0.1726  0.0929
 1296BOLB   C3D31103  24.798   6.630  26.664  0.0118 -0.2083  0.1192
 1296BOLB   C4D31104  24.469   6.636  26.838  0.1224 -0.2616 -0.1378
 1297BOLB   NC131105  10.154   7.645  26.259 -0.0257 -0.3089  0.0684
 1297BOLB   PO131106  10.469   7.403  26.322 -0.1295  0.2990 -0.0757
 1297BOLB   GL131107  10.290   7.116  25.932  0.0946 -0.2658 -0.0973
 1297BOLB   GL231108   9.818   7.115  26.033 -0.2245 -0.2848 -0.1388
 1297BOLB   C1A31109  10.097   6.729  25.751  0.0462 -0.0651 -0.0585
 1297BOLB   C2A31110   9.776   6.438  25.493  0.2798 -0.0910  0.0584
 1297BOLB   C3A31111   9.515   6.389  25.144  0.1158  0.0093 -0.4365
 1297BOLB   C4A31112   9.356   6.445  24.730  0.2058 -0.0515  0.1858
 1297BOLB   C1B31113   9.666   6.658  25.946  0.0193  0.2925 -0.0251
 1297BOLB   C2B31114   9.669   6.139  25.921 -0.0873 -0.1050  0.2144
 1297BOLB   C3B31115   9.284   5.889  25.940 -0.2951  0.2500 -0.5334
 1297BOLB   C4B31116   9.025   5.872  25.766 -0.1475  0.2084 -0.0017
 1297BOLB   NC231117   7.179   6.557  23.330  0.1806  0.1281 -0.1080
 1297BOLB   PO231118   7.153   6.292  23.642 -0.1372  0.0894 -0.1452
 1297BOLB   GL331119   7.584   6.360  23.601  0.0989  0.1827 -0.0036
 1297BOLB   GL431120   7.654   6.318  23.272  0.2630 -0.0821  0.1091
 1297BOLB   C1C31121   7.989   6.415  23.870  0.3708 -0.0741 -0.1956
 1297BOLB   C2C31122   8.313   6.382  24.031  0.1755 -0.0452 -0.2618
 1297BOLB   C3C31123   8.773   6.398  24.149 -0.2785  0.3338 -0.1459
 1297BOLB   C4C31124   9.034   6.319  24.398 -0.1613 -0.0076 -0.0767
 1297BOLB   C1D31125   8.053   6.351  23.362 -0.1485 -0.0887  0.1314
 1297BOLB   C2D31126   8.322   6.624  23.434  0.2724 -0.0145 -0.2118
 1297BOLB   C3D31127   8.755   6.742  23.350  0.0922  0.1687  0.1886
 1297BOLB   C4D31128   8.995   6.901  22.959  0.3190  0.2879 -0.1110
 1298BOLB   NC131129  14.002   5.289  30.378  0.0762 -0.1350 -0.0657
 1298BOLB   PO131130  14.322   4.980  30.580 -0.0741  0.2321 -0.1214
 1298BOLB   GL131131  14.336   4.464  30.602 -0.1209  0.0640  0.1472
 1298BOLB   GL231132  14.203   4.266  30.254 -0.0056  0.1098  0.2876
 1298BOLB   C1A31133  14.343   3.964  30.599 -0.1667 -0.0413 -0.0182
 1298BOLB   C2A31134  14.355   3.581  30.656  0.0027  0.3676  0.0584
 1298BOLB   C3A31135  14.144   3.313  30.947  0.2205 -0.5428  0.1652
 1298BOLB   C4A31136  13.833   3.031  30.608  0.0363 -0.5324 -0.0260
 1298BOLB   C1B31137  13.946   3.812  30.336 -0.0517 -0.0574  0.0010
 1298BOLB   C2B31138  13.740   3.500  30.397 -0.0779 -0.0539  0.3079
 1298BOLB   C3B31139  13.436   3.237  30.073  0.1888  0.0001  0.3756
 1298BOLB   C4B31140  13.356   2.819  29.958 -0.3866 -0.2503  0.2496
 1298BOLB   NC231141  12.926   0.383  30.594 -0.1994  0.0832 -0.1297
 1298BOLB   PO231142  13.075   0.685  30.757 -0.1260  0.1974  0.0773
 1298BOLB   GL331143  13.220   1.053  30.691  0.0258 -0.0550  0.3297
 1298BOLB   GL431144  12.941   1.235  30.867 -0.0621 -0.2012 -0.0044
 1298BOLB   C1C31145  13.236   1.591  30.679  0.0167  0.0698  0.3560
 1298BOLB   C2C31146  13.256   1.997  30.616 -0.0816 -0.1630 -0.2624
 1298BOLB   C3C31147  13.452   2.344  30.556  0.3133 -0.1008 -0.3615
 1298BOLB   C4C31148  13.609   2.846  30.387 -0.1721  0.1161  0.4734
 1298BOLB   C1D31149  13.019   1.466  31.147 -0.0921  0.1635  0.0213
 1298BOLB   C2D31150  13.208   1.804  31.313 -0.3517  0.0750 -0.1880
 1298BOLB   C3D31151  13.312   2.123  31.456  0.0366  0.0988  0.2896
 1298BOLB   C4D31152  13.323   2.543  31.525  0.1779  0.2701 -0.0610
 1299BOLB   NC131153  23.942  11.043  32.077  0.0368  0.2017  0.2225
 1299BOLB   PO131154  23.801  11.040  32.541 -0.0011  0.2979  0.0916
 1299BOLB   GL131155  24.281  10.907  32.452  0.2824 -0.1061 -0.1650
 1299BOLB   GL231156  24.364  11.188  32.233  0.1777 -0.0397  0.0744
 1299BOLB   C1A31157  24.737  10.962  32.283  0.1361  0.0852 -0.1215
 1299BOLB   C2A31158  25.159  11.156  32.219  0.0338 -0.2051 -0.1370
 1299BOLB   C3A31159  25.434  11.417  32.238 -0.1035  0.5539 -0.1779
 1299BOLB   C4A31160  25.745  11.702  31.956  0.0130  0.0413 -0.0386
 1299BOLB   C1B31161  24.695  11.408  32.057 -0.2766 -0.1487  0.0491
 1299BOLB   C2B31162  25.072  11.663  31.956  0.0796  0.0568 -0.2882
 1299BOLB   C3B31163  25.384  11.681  31.654 -0.1474  0.1212  0.0184
 1299BOLB   C4B31164  25.650  11.956  31.554 -0.2138  0.0184  0.1339
 1299BOLB   NC231165   0.859  13.281  31.330 -0.0439  0.3377  0.1243
 1299BOLB   PO231166   0.705  13.025  31.014  0.1267 -0.0335  0.1334
 1299BOLB   GL331167   0.314  12.958  31.099 -0.2484 -0.1812 -0.2862
 1299BOLB   GL431168   0.183  12.992  31.433 -0.0551 -0.3667 -0.1338
 1299BOLB   C1C31169   0.097  12.561  31.167 -0.0472  0.0308 -0.1938
 1299BOLB   C2C31170  26.739  12.367  31.288 -0.1822  0.0055 -0.0853
 1299BOLB   C3C31171  26.472  11.988  31.390 -0.2674 -0.1819  0.0080
 1299BOLB   C4C31172  26.163  11.871  31.718 -0.0838 -0.1241 -0.0194
 1299BOLB   C1D31173  26.879  12.982  31.223  0.1227  0.0212  0.1311
 1299BOLB   C2D31174  26.534  12.890  31.146  0.3233  0.0782  0.1683
 1299BOLB   C3D31175  26.171  12.856  30.746  0.3794 -0.2526 -0.3548
 1299BOLB   C4D31176  25.885  12.597  30.560  0.1325  0.0303 -0.1921
 1300BOLB   NC131177  11.381  13.708  38.648 -0.0050 -0.2353 -0.2170
 1300BOLB   PO131178  11.383  13.972  38.247 -0.1928  0.1111 -0.2776
 1300BOLB   GL131179  11.227  14.364  38.594 -0.1242 -0.2762 -0.1925
 1300BOLB   GL231180  11.276  14.496  38.394 -0.1845  0.3516 -0.0450
 1300BOLB   C1A31181  10.840  14.445  38.792 -0.2743  0.3183  0.2226
 1300BOLB   C2A31182  10.379  14.342  38.913 -0.3760 -0.0149 -0.1264
 1300BOLB   C3A31183  10.070  14.648  38.995 -0.0354  0.2650 -0.1605
 1300BOLB   C4A31184  10.211  15.072  39.160 -0.0883 -0.0538  0.2025
 1300BOLB   C1B31185  11.330  14.859  38.789  0.0791  0.0242 -0.0315
 1300BOLB   C2B31186  11.268  15.006  39.180  0.0415 -0.0708  0.1706
 1300BOLB   C3B31187  10.771  15.000  39.202 -0.0746 -0.2758 -0.2460
 1300BOLB   C4B31188  10.579  14.798  38.977 -0.2595 -0.0486 -0.4484
 1300BOLB   NC231189   9.516  16.452  41.114 -0.0169  0.0802  0.0669
 1300BOLB   PO231190   9.320  16.696  40.746  0.2460  0.4359 -0.3923
 1300BOLB   GL331191   9.130  16.573  40.335 -0.1690  0.1173 -0.1714
 1300BOLB   GL431192   9.214  16.733  40.093 -0.3031 -0.4316 -0.1744
 1300BOLB   C1C31193   9.368  16.155  40.083 -0.0699  0.3398  0.3165
 1300BOLB   C2C31194   9.599  15.926  39.828 -0.1938  0.2556 -0.2175
 1300BOLB   C3C31195   9.867  15.624  39.788  0.0581 -0.1370  0.2342
 1300BOLB   C4C31196  10.018  15.497  39.405 -0.1647 -0.0041  0.1646
 1300BOLB   C1D31197   9.367  16.532  39.740  0.0585 -0.1070 -0.0671
 1300BOLB   C2D31198   9.685  16.318  39.486  0.2493  0.1378  0.1088
 1300BOLB   C3D31199  10.000  16.017  39.408  0.0005 -0.2753  0.3157
 1300BOLB   C4D31200  10.453  15.883  39.522  0.2835  0.0657 -0.2955
 1301BOLB   NC131201  19.852  11.462  39.261 -0.3204 -0.0532 -0.2444
 1301BOLB   PO131202  20.118  11.292  38.958  0.0475 -0.0851  0.1368
 1301BOLB   GL131203  20.347  11.183  39.356  0.1416 -0.3186 -0.0816
 1301BOLB   GL231204  20.505  10.894  39.504  0.1089 -0.0863  0.1036
 1301BOLB   C1A31205  20.612  11.391  39.544 -0.1377  0.1496  0.0357
 1301BOLB   C2A31206  20.775  11.720  39.791 -0.0399 -0.0275  0.3252
 1301BOLB   C3A31207  21.117  11.859  40.020  0.1868 -0.0874  0.0899
 1301BOLB   C4A31208  21.523  12.104  40.046 -0.0008 -0.0619 -0.1929
 1301BOLB   C1B31209  20.370  10.832  39.922 -0.0204  0.2293 -0.0211
 1301BOLB   C2B31210  20.369  11.067  40.360  0.1352  0.0386  0.0854
 1301BOLB   C3B31211  20.868  11.158  40.529 -0.1679  0.0861 -0.1542
 1301BOLB   C4B31212  21.019  10.952  40.921 -0.0698  0.0585  0.2531
 1301BOLB   NC231213  22.955  11.472  41.499  0.0958 -0.0269 -0.1567
 1301BOLB   PO231214  22.842  11.765  41.900  0.1469 -0.5532  0.3957
 1301BOLB   GL331215  22.727  12.045  41.610  0.3046 -0.0481  0.1690
 1301BOLB   GL431216  22.390  12.084  41.838 -0.2412 -0.0343  0.0851
 1301BOLB   C1C31217  22.452  12.242  41.275 -0.0805 -0.1030 -0.0503
 1301BOLB   C2C31218  22.144  12.466  41.087 -0.1498  0.1285  0.0488
 1301BOLB   C3C31219  21.971  12.509  40.682 -0.1073  0.1732  0.2447
 1301BOLB   C4C31220  21.798  12.381  40.304 -0.0494 -0.0599  0.2360
 1301BOLB   C1D31221  22.302  11.813  41.517 -0.2675  0.1768  0.0011
 1301BOLB   C2D31222  22.597  11.748  41.138  0.2719 -0.1365 -0.1391
 1301BOLB   C3D31223  22.842  11.509  40.799  0.1155  0.1351  0.0011
 1301BOLB   C4D31224  23.162  11.423  40.594 -0.2416 -0.4954  0.1693
 1302BOLB   NC131225  11.243   7.564  36.080 -0.2483 -0.2928 -0.1389
 1302BOLB   PO131226  11.322   7.415  35.687 -0.1068 -0.0226 -0.3257
 1302BOLB   GL131227  10.987   7.168  35.898  0.2659  0.1795 -0.1863
 1302BOLB   GL231228  11.093   7.138  36.205 -0.0517  0.1529  0.3809
 1302BOLB   C1A31229  10.628   6.996  36.209 -0.0168 -0.1345  0.0801
 1302BOLB   C2A31230  10.318   6.989  36.488 -0.0923  0.1446  0.4616
 1302BOLB   C3A31231  10.190   6.928  36.951 -0.0001  0.0496  0.0857
 1302BOLB   C4A31232   9.970   6.873  37.330  0.2299  0.1053  0.1870
 1302BOLB   C1B31233  10.837   7.282  36.510  0.1262 -0.3481  0.0767
 1302BOLB   C2B31234  10.440   7.462  36.428  0.0432  0.2401  0.3391
 1302BOLB   C3B31235  10.035   7.441  36.625 -0.2144  0.1550 -0.0431
 1302BOLB   C4B31236   9.798   7.189  36.733  0.3739 -0.1245  0.1508
 1302BOLB   NC231237   8.506   5.639  38.973 -0.2106 -0.1544 -0.2366
 1302BOLB   PO231238   8.878   5.673  38.879 -0.0788 -0.4441  0.4317
 1302BOLB   GL331239   9.196   5.734  38.596 -0.0716 -0.2474 -0.2162
 1302BOLB   GL431240   9.114   6.086  38.767  0.0163 -0.0988 -0.0181
 1302BOLB   C1C31241   9.249   5.710  38.128 -0.2804  0.0413 -0.0162
 1302BOLB   C2C31242   9.404   5.935  37.784 -0.3420  0.0907 -0.1737
 1302BOLB   C3C31243   9.589   6.112  37.525 -0.0533  0.1998 -0.0858
 1302BOLB   C4C31244   9.883   6.443  37.515  0.5166  0.1326  0.1291
 1302BOLB   C1D31245   9.044   6.185  38.365 -0.1975 -0.1802  0.1900
 1302BOLB   C2D31246   9.158   6.353  38.043  0.1629 -0.3423  0.0528
 1302BOLB   C3D31247   9.468   6.571  37.831 -0.2956 -0.1133 -0.4466
 1302BOLB   C4D31248   9.769   6.866  37.833 -0.3334 -0.1843 -0.1034
 1303BOLB   NC131249  11.393  19.871  31.903 -0.2402  0.1449  0.0273
 1303BOLB   PO131250  11.228  20.249  31.989  0.1080  0.4241 -0.0449
 1303BOLB   GL131251  11.056  20.645  32.217 -0.0887  0.3213 -0.2557
 1303BOLB   GL231252  10.721  20.655  32.025  0.0773 -0.1454  0.3249
 1303BOLB   C1A31253  10.878  21.030  32.346 -0.0354 -0.0767  0.1905
 1303BOLB   C2A31254  10.605  21.366  32.509 -0.3016  0.1164 -0.1939
 1303BOLB   C3A31255  10.337  21.632  32.474 -0.2486 -0.1868 -0.3318
 1303BOLB   C4A31256  10.036  21.903  32.536  0.1138  0.2608 -0.1812
 1303BOLB   C1B31257  10.566  20.994  31.889  0.0406  0.2564  0.1093
 1303BOLB   C2B31258  10.424  21.439  31.911 -0.1294 -0.0201  0.5364
 1303BOLB   C3B31259  10.209  21.862  32.007 -0.1610 -0.1831 -0.0065
 1303BOLB   C4B31260   9.912  22.178  31.966  0.2503 -0.1573  0.0255
 1303BOLB   NC231261   8.472  23.913  32.732 -0.1034 -0.2667 -0.0135
 1303BOLB   PO231262   8.172  23.720  33.004  0.1765 -0.0015 -0.3336
 1303BOLB   GL331263   8.424  23.455  33.134  0.2707  0.0835  0.2975
 1303BOLB   GL431264   8.575  23.327  32.811  0.0194 -0.0538  0.1806
 1303BOLB   C1C31265   8.437  22.965  33.143  0.0570 -0.1405 -0.0412
 1303BOLB   C2C31266   8.910  22.638  32.952 -0.0167  0.1382 -0.2095
 1303BOLB   C3C31267   9.282  22.416  32.709  0.2743 -0.0478  0.0067
 1303BOLB   C4C31268   9.676  22.265  32.488  0.0468 -0.0412  0.2042
 1303BOLB   C1D31269   8.741  23.061  32.563  0.1505  0.2918 -0.0671
 1303BOLB   C2D31270   8.819  22.686  32.483  0.1168  0.4968 -0.1367
 1303BOLB   C3D31271   9.027  22.353  32.263 -0.1847  0.0966  0.0167
 1303BOLB   C4D31272   9.310  22.079  32.167  0.1047 -0.0551  0.1139
 1304BOLB   NC131273   9.663  17.665  28.313  0.0726  0.0709  0.0238
 1304BOLB   PO131274   9.421  18.015  28.189 -0.0071 -0.0603  0.1667
 1304BOLB   GL131275   8.963  18.347  28.083  0.1941  0.0232  0.0390
 1304BOLB   GL231276   8.733  18.331  28.417  0.0057 -0.2526  0.3520
 1304BOLB   C1A31277   8.590  18.627  28.044  0.0193 -0.1651  0.3200
 1304BOLB   C2A31278   8.187  18.726  28.053  0.1260 -0.1621  0.2765
 1304BOLB   C3A31279   7.807  18.948  27.889  0.0362  0.0739  0.0470
 1304BOLB   C4A31280   7.442  19.117  27.981  0.0434  0.2868 -0.0798
 1304BOLB   C1B31281   8.279  18.275  28.270  0.0736 -0.1678 -0.0568
 1304BOLB   C2B31282   7.863  18.271  28.351  0.4946 -0.0904  0.2292
 1304BOLB   C3B31283   7.445  18.363  28.402  0.1002 -0.1759 -0.2169
 1304BOLB   C4B31284   7.176  18.512  28.629 -0.1153 -0.1994 -0.0467
 1304BOLB   NC231285   5.654  20.367  27.118  0.3455 -0.2748 -0.3782
 1304BOLB   PO231286   5.879  20.749  26.843 -0.3782 -0.1157 -0.0839
 1304BOLB   GL331287   6.212  20.708  27.038  0.0023  0.0541 -0.0329
 1304BOLB   GL431288   6.067  20.557  27.309  0.2223  0.0279  0.0382
 1304BOLB   C1C31289   6.492  20.416  27.106 -0.2088  0.1460  0.0441
 1304BOLB   C2C31290   6.786  20.024  27.300 -0.0955 -0.4927 -0.1138
 1304BOLB   C3C31291   6.925  19.830  27.649 -0.0986 -0.0314  0.1225
 1304BOLB   C4C31292   7.160  19.432  27.848 -0.3084 -0.0017 -0.1768
 1304BOLB   C1D31293   6.252  20.259  27.549  0.0166 -0.1087  0.0671
 1304BOLB   C2D31294   6.532  20.116  27.798  0.1448  0.0436  0.0790
 1304BOLB   C3D31295   6.584  19.965  28.169  0.3320  0.0419 -0.0260
 1304BOLB   C4D31296   6.390  19.701  28.529 -0.0924  0.2145  0.1958
 1305BOLB   NC131297  23.623  11.823  27.229  0.0301 -0.0947  0.0420
 1305BOLB   PO131298  23.733  11.429  27.085 -0.2036 -0.1500  0.2800
 1305BOLB   GL131299  24.128  11.280  27.087 -0.0798  0.1073  0.0359
 1305BOLB   GL231300  24.254  11.373  26.802  0.2022 -0.1262 -0.1358
 1305BOLB   C1A31301  24.339  10.921  26.983  0.0423 -0.2296 -0.2970
 1305BOLB   C2A31302  24.663  10.653  26.858 -0.2230  0.1437  0.3012
 1305BOLB   C3A31303  25.032  10.617  26.650  0.0828 -0.1281  0.1198
 1305BOLB   C4A31304  25.188  10.277  26.410 -0.2644 -0.1455 -0.3152
 1305BOLB   C1B31305  24.385  11.834  26.871 -0.0037  0.2694 -0.0264
 1305BOLB   C2B31306  24.724  11.936  26.859  0.0028 -0.0843 -0.2111
 1305BOLB   C3B31307  24.859  12.261  26.676 -0.0384  0.2125  0.1166
 1305BOLB   C4B31308  24.779  12.793  26.541  0.2020  0.0789  0.2204
 1305BOLB   NC231309   0.270  10.663  26.928  0.0669  0.1750  0.0003
 1305BOLB   PO231310   0.263  10.273  26.578  0.3115 -0.0475 -0.0948
 1305BOLB   GL331311  26.862  10.248  26.559  0.4207 -0.2041 -0.0230
 1305BOLB   GL431312  26.892  10.535  26.715 -0.1941 -0.0533 -0.1089
 1305BOLB   C1C31313  26.562  10.042  26.418  0.2374 -0.1847 -0.0577
 1305BOLB   C2C31314  26.196   9.678  26.430  0.0659 -0.1845  0.2514
 1305BOLB   C3C31315  25.783   9.706  26.398  0.2561  0.2765  0.0205
 1305BOLB   C4C31316  25.377   9.873  26.453  0.1399 -0.0136 -0.3116
 1305BOLB   C1D31317  26.388  10.301  26.838 -0.2816 -0.0271  0.0173
 1305BOLB   C2D31318  26.073   9.997  26.800 -0.2122 -0.4243  0.3236
 1305BOLB   C3D31319  25.801  10.071  27.108  0.2211 -0.1738 -0.3092
 1305BOLB   C4D31320  25.506  10.158  27.406  0.0383  0.2738 -0.2058
 1306BOLB   NC131321  18.080  11.408  19.208  0.0433  0.0318  0.2032
 1306BOLB   PO131322  18.013  11.945  19.179  0.2199 -0.3151 -0.0400
 1306BOLB   GL131323  18.110  11.671  18.813  0.0101  0.2122 -0.0020
 1306BOLB   GL231324  18.117  11.815  18.536  0.1622 -0.1209 -0.0272
 1306BOLB   C1A31325  18.004  11.347  18.484 -0.0143  0.1149 -0.3914
 1306BOLB   C2A31326  18.166  11.043  18.256 -0.0238  0.0218 -0.2870
 1306BOLB   C3A31327  18.223  10.882  17.859 -0.0564  0.1220 -0.0016
 1306BOLB   C4A31328  18.353  10.614  17.496 -0.0362  0.4837  0.0670
 1306BOLB   C1B31329  18.044  11.709  18.033 -0.2547  0.0265  0.2135
 1306BOLB   C2B31330  17.907  11.528  17.552  0.1109  0.3528 -0.3746
 1306BOLB   C3B31331  17.648  11.626  17.172  0.1185 -0.2078 -0.1292
 1306BOLB   C4B31332  17.186  11.727  17.040 -0.2887  0.0454  0.0447
 1306BOLB   NC231333  18.510  10.608  14.997 -0.0906 -0.1168 -0.0885
 1306BOLB   PO231334  18.547  10.229  15.323 -0.0337 -0.0967  0.2165
 1306BOLB   GL331335  18.628  10.499  15.560  0.2191  0.0882 -0.0550
 1306BOLB   GL431336  18.504  10.720  15.498 -0.1971 -0.4195 -0.0271
 1306BOLB   C1C31337  18.720  10.603  15.999  0.0332  0.0281 -0.0958
 1306BOLB   C2C31338  18.684  10.564  16.306 -0.4482  0.1497 -0.1748
 1306BOLB   C3C31339  18.521  10.620  16.706  0.0158  0.1743 -0.0470
 1306BOLB   C4C31340  18.487  10.530  17.074  0.2266 -0.2184 -0.0572
 1306BOLB   C1D31341  18.422  11.086  15.738  0.1204 -0.1037 -0.1950
 1306BOLB   C2D31342  18.515  11.056  16.175 -0.0446 -0.0573  0.0746
 1306BOLB   C3D31343  18.703  11.062  16.542  0.0581 -0.0159  0.0839
 1306BOLB   C4D31344  18.912  11.338  16.934  0.1837 -0.1546 -0.3635
 1307BOLB   NC131345  10.708  20.235  32.827 -0.0051  0.2667  0.1246
 1307BOLB   PO131346  10.263  20.059  32.868 -0.2930  0.0480 -0.3355
 1307BOLB   GL131347  10.378  20.102  33.283 -0.2952  0.0507 -0.0911
 1307BOLB   GL231348   9.986  20.201  33.310  0.0768 -0.1652  0.2044
 1307BOLB   C1A31349  10.312  20.397  33.634 -0.1656  0.1609 -0.1155
 1307BOLB   C2A31350  10.113  20.573  34.023  0.1730 -0.2740 -0.0966
 1307BOLB   C3A31351   9.892  20.742  34.382 -0.1842  0.1414 -0.1757
 1307BOLB   C4A31352   9.998  20.993  34.693 -0.1929  0.1462  0.1176
 1307BOLB   C1B31353   9.931  20.658  33.436  0.0856  0.1733  0.2984
 1307BOLB   C2B31354   9.623  21.010  33.595  0.1672 -0.1360 -0.0481
 1307BOLB   C3B31355   9.562  21.318  33.925 -0.0404  0.2676  0.0440
 1307BOLB   C4B31356   9.708  21.287  34.392  0.0941 -0.1185 -0.1763
 1307BOLB   NC231357   9.032  23.017  36.143  0.0304  0.1687 -0.1537
 1307BOLB   PO231358   9.397  22.936  35.762  0.1880  0.0775 -0.0528
 1307BOLB   GL331359   9.349  22.610  35.398 -0.2617 -0.0404 -0.0421
 1307BOLB   GL431360   9.056  22.641  35.261  0.0005  0.1517 -0.2061
 1307BOLB   C1C31361   9.420  22.220  35.284 -0.0535  0.0164 -0.0088
 1307BOLB   C2C31362   9.672  21.876  35.238  0.2457  0.1956 -0.1557
 1307BOLB   C3C31363   9.768  21.475  35.325  0.0861  0.0690  0.1143
 1307BOLB   C4C31364   9.899  21.109  35.133  0.0977 -0.0162  0.5525
 1307BOLB   C1D31365   9.147  22.296  34.770  0.0874  0.5115  0.2718
 1307BOLB   C2D31366   9.353  22.007  34.890  0.1411  0.2014  0.4490
 1307BOLB   C3D31367   9.494  21.727  34.615  0.0244  0.1237  0.2429
 1307BOLB   C4D31368   9.697  21.728  34.144  0.0246 -0.0739 -0.1884
 1308BOLB   NC131369  16.979  19.745  31.791 -0.0148 -0.2258 -0.2787
 1308BOLB   PO131370  17.033  20.140  31.953  0.0757  0.0411  0.4274
 1308BOLB   GL131371  17.137  20.647  31.968  0.2166  0.0527  0.0412
 1308BOLB   GL231372  17.003  20.945  32.209  0.2721 -0.0724 -0.2605
 1308BOLB   C1A31373  17.204  20.995  31.725  0.0291 -0.0434 -0.1096
 1308BOLB   C2A31374  17.412  21.346  31.523 -0.2031 -0.1889  0.0949
 1308BOLB   C3A31375  17.310  21.635  31.810 -0.1539 -0.1592  0.0070
 1308BOLB   C4A31376  17.075  22.103  31.887 -0.2225  0.0276 -0.1581
 1308BOLB   C1B31377  16.821  21.234  32.541 -0.2405  0.0321 -0.2719
 1308BOLB   C2B31378  16.813  21.610  32.667 -0.1143  0.1161 -0.1564
 1308BOLB   C3B31379  16.803  21.882  32.935 -0.1157  0.2073  0.2031
 1308BOLB   C4B31380  17.161  22.265  32.969  0.0330 -0.1591 -0.2338
 1308BOLB   NC231381  17.782  24.518  31.915  0.2247 -0.1988  0.0979
 1308BOLB   PO231382  18.037  24.156  31.695 -0.0249  0.0717  0.3647
 1308BOLB   GL331383  17.747  23.918  32.024 -0.1609 -0.1821  0.0807
 1308BOLB   GL431384  17.882  23.781  32.291 -0.1578  0.2421 -0.0510
 1308BOLB   C1C31385  17.415  23.703  31.830  0.4289  0.3585 -0.0395
 1308BOLB   C2C31386  17.340  23.230  31.851 -0.6425 -0.2111  0.1297
 1308BOLB   C3C31387  16.962  22.954  31.956 -0.0777 -0.3389 -0.2633
 1308BOLB   C4C31388  16.944  22.479  32.050  0.1431 -0.1439  0.0235
 1308BOLB   C1D31389  17.718  23.524  32.678 -0.1272 -0.1133  0.2347
 1308BOLB   C2D31390  17.420  23.284  32.820 -0.3381 -0.1654 -0.1325
 1308BOLB   C3D31391  17.020  23.357  32.853  0.0660 -0.1926 -0.0890
 1308BOLB   C4D31392  16.655  23.616  33.029 -0.3299 -0.1831 -0.1391
 1309BOLB   NC131393   6.749  10.582  21.404 -0.0834 -0.2873 -0.1584
 1309BOLB   PO131394   6.754  10.130  21.559  0.1884 -0.0136 -0.1208
 1309BOLB   GL131395   7.065   9.903  21.718 -0.0434  0.0181 -0.0838
 1309BOLB   GL231396   6.957  10.037  22.035 -0.0900  0.0313  0.0127
 1309BOLB   C1A31397   7.411   9.952  21.825 -0.1088 -0.1315 -0.3130
 1309BOLB   C2A31398   7.722  10.192  21.932  0.0106 -0.2188  0.0309
 1309BOLB   C3A31399   7.882  10.471  22.185 -0.0566 -0.0552  0.2101
 1309BOLB   C4A31400   8.409  10.452  22.224  0.1653  0.0163 -0.1262
 1309BOLB   C1B31401   7.295  10.295  22.207  0.2432 -0.0833 -0.0865
 1309BOLB   C2B31402   7.575  10.446  22.547 -0.3694 -0.6041  0.1968
 1309BOLB   C3B31403   7.714  10.754  22.901  0.1866  0.3868  0.3137
 1309BOLB   C4B31404   8.124  10.852  22.997  0.1439 -0.4183 -0.1429
 1309BOLB   NC231405   7.982   9.863  20.553 -0.1685  0.0752 -0.2325
 1309BOLB   PO231406   7.657  10.200  20.375  0.0177  0.1941  0.1357
 1309BOLB   GL331407   7.891  10.525  20.612  0.0250  0.4352 -0.0989
 1309BOLB   GL431408   8.221  10.683  20.471  0.1188  0.1638 -0.2259
 1309BOLB   C1C31409   7.989  10.434  20.920 -0.0382 -0.3042  0.0282
 1309BOLB   C2C31410   8.207  10.630  21.292 -0.2725  0.0097 -0.0140
 1309BOLB   C3C31411   8.620  10.574  21.547 -0.0646 -0.1997  0.2149
 1309BOLB   C4C31412   8.707  10.403  21.912  0.1778  0.1816  0.0561
 1309BOLB   C1D31413   8.381  10.770  20.853 -0.1379  0.0376  0.1667
 1309BOLB   C2D31414   8.558  10.952  21.189 -0.0610 -0.0513  0.0198
 1309BOLB   C3D31415   8.865  11.109  21.635  0.0546  0.2395 -0.1314
 1309BOLB   C4D31416   9.207  11.118  21.973 -0.2355  0.3024  0.2254
 1310BOLB   NC131417  12.394  18.056  36.548 -0.1961  0.0325 -0.5870
 1310BOLB   PO131418  12.576  18.447  36.377 -0.0812 -0.2058  0.1078
 1310BOLB   GL131419  12.154  18.500  36.617 -0.0521  0.0965  0.0254
 1310BOLB   GL231420  12.287  18.495  36.905  0.0122  0.0834 -0.0098
 1310BOLB   C1A31421  11.805  18.616  36.919 -0.0310  0.1548 -0.0604
 1310BOLB   C2A31422  11.955  18.778  37.325  0.2491 -0.0635  0.1224
 1310BOLB   C3A31423  11.910  18.937  37.634  0.1246 -0.2564 -0.0371
 1310BOLB   C4A31424  11.968  19.162  37.994 -0.0114 -0.1523  0.1581
 1310BOLB   C1B31425  12.603  18.645  37.172  0.3982  0.1176 -0.0092
 1310BOLB   C2B31426  12.517  18.947  37.524  0.1089  0.3959  0.0291
 1310BOLB   C3B31427  12.576  19.339  37.547  0.1312 -0.1672 -0.2907
 1310BOLB   C4B31428  12.188  19.492  37.748  0.0472  0.2459 -0.0187
 1310BOLB   NC231429  11.268  21.005  39.541  0.1240 -0.0269  0.1216
 1310BOLB   PO231430  11.203  20.702  39.796 -0.1495 -0.0488 -0.1407
 1310BOLB   GL331431  11.438  20.491  39.433  0.5678 -0.0620 -0.1333
 1310BOLB   GL431432  11.832  20.514  39.342 -0.0839 -0.0260  0.0029
 1310BOLB   C1C31433  11.359  20.113  39.095 -0.0827  0.2643 -0.1330
 1310BOLB   C2C31434  11.666  19.762  39.077 -0.1022  0.3007 -0.0692
 1310BOLB   C3C31435  11.845  19.491  38.798  0.1710 -0.0521  0.0696
 1310BOLB   C4C31436  11.973  19.490  38.295 -0.0289  0.0500 -0.0754
 1310BOLB   C1D31437  11.880  20.229  39.099 -0.0958  0.1955  0.0343
 1310BOLB   C2D31438  12.135  19.939  38.939  0.1143  0.1351  0.0964
 1310BOLB   C3D31439  12.286  19.859  38.559 -0.0911  0.0943  0.0784
 1310BOLB   C4D31440  12.588  19.879  38.303 -0.3467 -0.0384 -0.2987
 1311BOLB   NC131441  19.587   6.297  24.564  0.3050  0.0897 -0.2969
 1311BOLB   PO131442  19.639   5.862  24.483 -0.0922 -0.0122  0.1856
 1311BOLB   GL131443  19.890   5.528  24.473 -0.0333  0.2912  0.1206
 1311BOLB   GL231444  20.221   5.460  24.635 -0.4302 -0.1218  0.2399
 1311BOLB   C1A31445  19.919   5.192  24.272  0.1334  0.2928 -0.1166
 1311BOLB   C2A31446  20.020   5.040  23.855  0.3992 -0.1704  0.1002
 1311BOLB   C3A31447  20.137   4.663  23.712 -0.0566 -0.2099  0.2156
 1311BOLB   C4A31448  20.096   4.438  23.386  0.2264 -0.2202 -0.0293
 1311BOLB   C1B31449  20.399   5.203  24.314 -0.0702 -0.1753 -0.2058
 1311BOLB   C2B31450  20.411   4.712  24.160 -0.2605  0.0933 -0.2459
 1311BOLB   C3B31451  20.548   4.170  24.075  0.1812 -0.3563 -0.0142
 1311BOLB   C4B31452  20.302   3.881  24.303 -0.1125 -0.1167 -0.2851
 1311BOLB   NC231453  20.364   2.480  22.130  0.1215 -0.1425  0.0511
 1311BOLB   PO231454  19.944   2.318  22.371  0.1652 -0.0333 -0.0899
 1311BOLB   GL331455  19.846   2.721  22.400  0.0168  0.2161 -0.1675
 1311BOLB   GL431456  20.151   2.925  22.321 -0.0102  0.0675 -0.1073
 1311BOLB   C1C31457  19.967   2.871  22.751  0.2687 -0.1857  0.0740
 1311BOLB   C2C31458  20.016   3.244  22.951  0.0412  0.1508  0.0304
 1311BOLB   C3C31459  20.065   3.633  23.297  0.0937  0.0150  0.0648
 1311BOLB   C4C31460  20.002   4.063  23.409 -0.2638  0.2213 -0.2559
 1311BOLB   C1D31461  19.989   3.296  22.468  0.1142 -0.0469 -0.1698
 1311BOLB   C2D31462  19.991   3.684  22.740  0.1122 -0.0299  0.1190
 1311BOLB   C3D31463  19.828   4.028  22.895  0.0258 -0.0147 -0.0380
 1311BOLB   C4D31464  19.859   4.531  22.843  0.1751  0.1049 -0.0036
 1312BOLB   NC131465  22.132   9.098  35.061  0.0826 -0.2444 -0.0100
 1312BOLB   PO131466  22.351   9.379  34.930 -0.1379  0.0407 -0.0555
 1312BOLB   GL131467  22.709   9.374  35.280 -0.0541 -0.1098  0.0513
 1312BOLB   GL231468  22.836   9.615  35.450  0.1458 -0.1863  0.1442
 1312BOLB   C1A31469  23.094   9.216  35.341  0.0338  0.1133  0.2009
 1312BOLB   C2A31470  23.333   9.050  35.548 -0.0188  0.1257  0.1409
 1312BOLB   C3A31471  23.592   8.765  35.877 -0.4062 -0.1025  0.0817
 1312BOLB   C4A31472  23.942   8.551  36.038  0.3569  0.0509  0.3038
 1312BOLB   C1B31473  23.215   9.493  35.809 -0.0413 -0.0297  0.0742
 1312BOLB   C2B31474  23.635   9.299  35.927 -0.0346 -0.0194 -0.1719
 1312BOLB   C3B31475  23.878   9.103  36.115  0.1714  0.0963  0.0638
 1312BOLB   C4B31476  24.082   9.394  36.376 -0.0071  0.1885 -0.1691
 1312BOLB   NC231477  25.569   7.768  37.913 -0.0757  0.0660  0.0371
 1312BOLB   PO231478  25.592   7.686  37.501  0.3829  0.3369  0.3234
 1312BOLB   GL331479  25.215   7.758  37.340  0.1217 -0.2536  0.1521
 1312BOLB   GL431480  25.055   7.969  37.545 -0.1457 -0.2013 -0.1968
 1312BOLB   C1C31481  24.813   7.861  37.057  0.3550 -0.0960 -0.1315
 1312BOLB   C2C31482  24.419   7.952  36.932 -0.0715 -0.3118  0.4446
 1312BOLB   C3C31483  24.301   8.188  36.621  0.0483  0.1232  0.1737
 1312BOLB   C4C31484  24.290   8.408  36.195  0.0797  0.0870 -0.1262
 1312BOLB   C1D31485  24.635   8.032  37.492  0.2322 -0.1164 -0.0457
 1312BOLB   C2D31486  24.333   8.295  37.323  0.1428 -0.2507  0.1980
 1312BOLB   C3D31487  24.009   8.305  36.996 -0.0938  0.1309  0.4773
 1312BOLB   C4D31488  23.910   8.008  36.840 -0.0396  0.1772  0.0085
 1313BOLB   NC131489  13.163   7.890  22.627  0.0712 -0.1204 -0.1243
 1313BOLB   PO131490  12.833   7.675  22.932 -0.4044 -0.0670 -0.0708
 1313BOLB   GL131491  12.569   7.559  22.609  0.0414 -0.1421 -0.1090
 1313BOLB   GL231492  12.417   7.789  22.552  0.2515 -0.2360  0.0997
 1313BOLB   C1A31493  12.597   7.195  22.497 -0.2325 -0.0302 -0.0169
 1313BOLB   C2A31494  12.348   6.965  22.370  0.1936 -0.0657 -0.0559
 1313BOLB   C3A31495  11.963   6.899  22.087 -0.1625  0.0599 -0.0999
 1313BOLB   C4A31496  11.567   7.062  22.049 -0.0694 -0.0265  0.2667
 1313BOLB   C1B31497  12.322   7.916  22.160  0.3103  0.2513  0.1665
 1313BOLB   C2B31498  12.038   8.034  21.787 -0.0930  0.0866 -0.3104
 1313BOLB   C3B31499  11.878   8.001  21.398 -0.0757 -0.0678  0.3086
 1313BOLB   C4B31500  11.613   8.000  21.145  0.0841 -0.0796  0.0959
 1313BOLB   NC231501   9.543   5.875  20.406  0.2615  0.2605  0.4338
 1313BOLB   PO231502   9.835   6.134  20.642  0.0089 -0.0427 -0.0606
 1313BOLB   GL331503   9.961   6.523  20.830  0.0275  0.1968  0.3440
 1313BOLB   GL431504  10.294   6.433  20.792  0.2080  0.2050  0.0263
 1313BOLB   C1C31505  10.184   6.814  21.181 -0.2032  0.1059  0.5071
 1313BOLB   C2C31506  10.490   6.777  21.474 -0.2720 -0.1298 -0.0171
 1313BOLB   C3C31507  10.819   6.867  21.701 -0.4507  0.1520 -0.0973
 1313BOLB   C4C31508  11.221   6.853  21.982  0.3266  0.1215  0.0146
 1313BOLB   C1D31509  10.638   6.599  21.038  0.0298  0.0249  0.0104
 1313BOLB   C2D31510  10.748   6.970  21.160 -0.1086 -0.2830  0.0296
 1313BOLB   C3D31511  11.006   7.328  21.406  0.4506  0.1289 -0.2561
 1313BOLB   C4D31512  11.052   7.496  21.824  0.0822 -0.3153 -0.3558
 1314BOLB   NC131513   7.804   9.807  28.782  0.3627 -0.1852 -0.1672
 1314BOLB   PO131514   7.963  10.060  29.101 -0.0234  0.1395 -0.1172
 1314BOLB   GL131515   7.532   9.924  29.205  0.2467  0.1223 -0.0022
 1314BOLB   GL231516   7.495   9.938  29.415  0.2768  0.2481  0.2178
 1314BOLB   C1A31517   7.115   9.620  29.192 -0.1720  0.1688 -0.2340
 1314BOLB   C2A31518   6.775   9.718  28.865  0.1672 -0.2662  0.3446
 1314BOLB   C3A31519   6.435   9.964  28.968  0.2103  0.0530 -0.2222
 1314BOLB   C4A31520   6.069   9.992  28.687 -0.2327  0.1827  0.4457
 1314BOLB   C1B31521   7.235   9.857  29.717 -0.1892  0.1198  0.0577
 1314BOLB   C2B31522   7.016   9.866  30.023 -0.0836 -0.0623 -0.0643
 1314BOLB   C3B31523   6.727   9.802  30.344 -0.1796  0.1967 -0.2558
 1314BOLB   C4B31524   6.372   9.611  30.561 -0.0594  0.0531  0.0359
 1314BOLB   NC231525   3.542  10.053  29.231 -0.1368  0.0206  0.1004
 1314BOLB   PO231526   3.637  10.073  28.737  0.3470  0.0855  0.1111
 1314BOLB   GL331527   4.020   9.796  28.977  0.0738 -0.1438  0.1748
 1314BOLB   GL431528   3.937   9.758  29.292  0.1563 -0.1365  0.0431
 1314BOLB   C1C31529   4.473   9.708  28.864  0.3113 -0.0579  0.0634
 1314BOLB   C2C31530   4.914   9.627  28.845  0.2608  0.0703  0.1225
 1314BOLB   C3C31531   5.335   9.655  28.853 -0.2654 -0.2357  0.1825
 1314BOLB   C4C31532   5.730   9.777  28.772  0.0456 -0.0956 -0.0774
 1314BOLB   C1D31533   4.388   9.902  29.503  0.1974 -0.2451 -0.0913
 1314BOLB   C2D31534   4.795   9.962  29.273  0.1421  0.0695 -0.0150
 1314BOLB   C3D31535   5.132   9.767  29.315 -0.0189  0.0223 -0.1321
 1314BOLB   C4D31536   5.531  10.073  29.289 -0.0185 -0.0712 -0.3366
 1315BOLB   NC131537  14.129   4.273  41.111  0.1472 -0.1161  0.0827
 1315BOLB   PO131538  13.906   4.611  41.226  0.0076 -0.2906  0.0905
 1315BOLB   GL131539  14.217   4.840  40.996 -0.0472 -0.1012 -0.0031
 1315BOLB   GL231540  13.900   5.055  40.925  0.0226  0.1673  0.0972
 1315BOLB   C1A31541  14.360   5.059  40.657  0.0725 -0.1262 -0.1387
 1315BOLB   C2A31542  14.684   5.303  40.306  0.2347 -0.1640  0.1889
 1315BOLB   C3A31543  14.792   5.382  39.761  0.0245 -0.1132 -0.1116
 1315BOLB   C4A31544  14.614   5.662  39.471 -0.0089 -0.0958  0.1405
 1315BOLB   C1B31545  13.936   5.451  40.722 -0.2183 -0.1421 -0.1196
 1315BOLB   C2B31546  14.169   5.501  40.453 -0.3075 -0.1546  0.3751
 1315BOLB   C3B31547  14.430   5.690  40.129  0.4275 -0.0621 -0.0258
 1315BOLB   C4B31548  14.493   5.989  39.813 -0.3698 -0.0420 -0.0614
 1315BOLB   NC231549  14.729   3.381  39.926 -0.0955  0.0014 -0.2373
 1315BOLB   PO231550  14.392   3.720  39.946  0.2856  0.1197 -0.2288
 1315BOLB   GL331551  14.261   4.059  39.835 -0.2405 -0.1707  0.1875
 1315BOLB   GL431552  14.346   4.302  40.068  0.2459  0.0462  0.1330
 1315BOLB   C1C31553  14.079   4.373  39.557 -0.4755 -0.0891 -0.0863
 1315BOLB   C2C31554  14.089   4.777  39.356 -0.2373 -0.1080  0.0911
 1315BOLB   C3C31555  14.220   5.099  39.060  0.3597  0.1703  0.0052
 1315BOLB   C4C31556  14.437   5.422  39.187 -0.0770  0.0946 -0.0056
 1315BOLB   C1D31557  14.421   4.662  39.766 -0.0203 -0.3409  0.3319
 1315BOLB   C2D31558  14.519   5.045  39.504 -0.0872  0.0033  0.4611
 1315BOLB   C3D31559  14.855   5.176  39.277 -0.2765 -0.1768  0.0700
 1315BOLB   C4D31560  15.029   5.327  38.890 -0.0429 -0.0493  0.0118
 1316BOLB   NC131561  11.229  19.298  25.521 -0.1376 -0.2190  0.2449
 1316BOLB   PO131562  10.881  19.194  25.747 -0.3447  0.0387  0.0878
 1316BOLB   GL131563  10.484  19.361  25.550  0.0445  0.0045  0.0351
 1316BOLB   GL231564  10.243  19.238  25.529  0.0227  0.1065 -0.4644
 1316BOLB   C1A31565  10.403  19.652  25.213  0.2063 -0.1021  0.3454
 1316BOLB   C2A31566  10.379  20.019  24.893 -0.1190  0.2613  0.0208
 1316BOLB   C3A31567  10.310  20.276  24.528 -0.1949  0.0446  0.0092
 1316BOLB   C4A31568  10.165  20.630  24.271  0.0461  0.1157 -0.2039
 1316BOLB   C1B31569   9.982  19.392  25.283  0.0231  0.1624  0.0099
 1316BOLB   C2B31570   9.686  19.584  24.956  0.2783  0.2165 -0.0545
 1316BOLB   C3B31571   9.471  19.876  24.830  0.0377  0.0745  0.0130
 1316BOLB   C4B31572   9.279  20.297  24.944  0.1781 -0.1113  0.3166
 1316BOLB   NC231573   8.628  21.969  22.535 -0.1155 -0.0446  0.1286
 1316BOLB   PO231574   9.089  22.162  22.645  0.0527  0.0847  0.0090
 1316BOLB   GL331575   9.325  21.946  22.939  0.0850 -0.0951 -0.1929
 1316BOLB   GL431576   9.392  21.626  22.782  0.1088  0.1900  0.2262
 1316BOLB   C1C31577   9.805  21.977  23.216 -0.0981  0.1921  0.0764
 1316BOLB   C2C31578   9.790  21.809  23.799  0.3048  0.2839 -0.0929
 1316BOLB   C3C31579   9.864  21.487  24.070 -0.0712 -0.0665  0.1041
 1316BOLB   C4C31580   9.970  21.118  24.164  0.3213  0.1089  0.0650
 1316BOLB   C1D31581   9.540  21.582  23.197 -0.0331  0.1482 -0.0225
 1316BOLB   C2D31582   9.495  21.497  23.641  0.0260  0.1541 -0.0252
 1316BOLB   C3D31583   9.400  21.128  23.929  0.0518 -0.0605  0.1654
 1316BOLB   C4D31584   9.598  20.751  24.072  0.1066 -0.0744 -0.1670
 1317BOLB   NC131585  12.505  20.714  32.992 -0.3215 -0.1418  0.0139
 1317BOLB   PO131586  12.978  20.543  33.172  0.1892  0.0953  0.0452
 1317BOLB   GL131587  12.762  20.998  33.354 -0.1043  0.3469 -0.1507
 1317BOLB   GL231588  12.392  21.106  33.392  0.0782 -0.0693 -0.1080
 1317BOLB   C1A31589  12.728  21.378  33.619  0.0033 -0.0593 -0.2158
 1317BOLB   C2A31590  12.545  21.586  33.922  0.0853  0.0222 -0.0372
 1317BOLB   C3A31591  12.512  21.903  34.131  0.1344 -0.1395  0.0672
 1317BOLB   C4A31592  12.747  22.157  34.512 -0.0943  0.0165  0.0457
 1317BOLB   C1B31593  12.170  21.527  33.483  0.3654  0.1201  0.0116
 1317BOLB   C2B31594  11.839  21.844  33.377  0.1939 -0.1387 -0.1531
 1317BOLB   C3B31595  11.826  22.332  33.467 -0.0874  0.0469 -0.1221
 1317BOLB   C4B31596  12.039  22.667  33.599  0.1838  0.2236  0.4383
 1317BOLB   NC231597  11.858  24.309  35.201 -0.0842 -0.0795  0.0423
 1317BOLB   PO231598  11.941  24.235  34.767  0.0861 -0.0236 -0.0678
 1317BOLB   GL331599  12.196  23.914  34.577 -0.3720 -0.1036 -0.0403
 1317BOLB   GL431600  12.082  23.991  34.192 -0.0881 -0.4792  0.0930
 1317BOLB   C1C31601  12.317  23.497  34.723  0.1893 -0.0530  0.3920
 1317BOLB   C2C31602  12.492  23.149  35.026 -0.1285 -0.0585  0.3609
 1317BOLB   C3C31603  12.894  22.931  34.884 -0.2967 -0.0231 -0.1305
 1317BOLB   C4C31604  12.943  22.518  34.779  0.4424 -0.3328 -0.3718
 1317BOLB   C1D31605  11.965  23.638  33.932  0.4537 -0.0509  0.1883
 1317BOLB   C2D31606  12.025  23.152  33.896  0.0579 -0.5138 -0.0933
 1317BOLB   C3D31607  12.302  22.812  34.065  0.1401 -0.2364  0.1813
 1317BOLB   C4D31608  12.323  22.429  34.301 -0.0573  0.1930  0.0885
 1318BOLB   NC131609  21.947   6.409  32.185 -0.2690  0.1544  0.0239
 1318BOLB   PO131610  21.556   6.114  32.397  0.0298 -0.0917 -0.1599
 1318BOLB   GL131611  21.921   6.018  32.505  0.3126  0.0273 -0.1398
 1318BOLB   GL231612  22.022   5.937  32.134 -0.0945 -0.3021  0.2675
 1318BOLB   C1A31613  22.254   5.923  32.732  0.1981  0.0349 -0.0917
 1318BOLB   C2A31614  22.603   5.650  32.928 -0.1739  0.0940  0.2787
 1318BOLB   C3A31615  22.882   5.437  33.171  0.0301 -0.0627  0.1535
 1318BOLB   C4A31616  22.971   5.145  33.431 -0.1065 -0.2144 -0.1435
 1318BOLB   C1B31617  22.411   5.599  32.133  0.0110 -0.0052  0.0897
 1318BOLB   C2B31618  22.515   5.240  32.078  0.1856  0.0500 -0.1106
 1318BOLB   C3B31619  22.836   4.935  32.182  0.0835 -0.0169  0.2639
 1318BOLB   C4B31620  23.050   4.662  32.458 -0.1021  0.0790 -0.0017
 1318BOLB   NC231621  23.260   2.838  33.859  0.1617 -0.2730  0.1346
 1318BOLB   PO231622  23.611   3.134  33.717 -0.0197 -0.2728  0.0627
 1318BOLB   GL331623  23.347   3.366  33.522 -0.0169  0.0719  0.2107
 1318BOLB   GL431624  23.069   3.275  33.557 -0.1122  0.0953 -0.1166
 1318BOLB   C1C31625  23.252   3.721  33.498  0.1347 -0.0321 -0.1623
 1318BOLB   C2C31626  23.246   4.064  33.480  0.2599 -0.1486 -0.0032
 1318BOLB   C3C31627  22.947   4.418  33.474 -0.1563 -0.0998  0.0275
 1318BOLB   C4C31628  23.122   4.812  33.495 -0.1307 -0.0591  0.1167
 1318BOLB   C1D31629  22.799   3.622  33.743 -0.3955 -0.0372  0.1238
 1318BOLB   C2D31630  22.552   4.056  33.693 -0.0935 -0.2004  0.0567
 1318BOLB   C3D31631  22.405   4.455  33.458 -0.1215  0.2893  0.1409
 1318BOLB   C4D31632  22.074   4.507  33.173  0.1925 -0.1177 -0.0422
 1319BOLB   NC131633  26.213   8.014  35.420 -0.0750  0.1955  0.2525
 1319BOLB   PO131634  26.532   7.824  35.258 -0.3532  0.0083  0.0949
 1319BOLB   GL131635  26.190   7.725  34.947 -0.1235 -0.0827  0.1154
 1319BOLB   GL231636  26.074   8.037  34.822  0.0571 -0.0100  0.0194
 1319BOLB   C1A31637  25.801   7.585  34.739 -0.0407  0.1422 -0.2339
 1319BOLB   C2A31638  25.354   7.716  34.888 -0.0451  0.0146  0.0271
 1319BOLB   C3A31639  25.065   7.747  34.620 -0.0549 -0.0541  0.0590
 1319BOLB   C4A31640  25.138   8.022  34.375  0.3779 -0.2465  0.0444
 1319BOLB   C1B31641  25.637   8.109  34.651 -0.2935 -0.0417  0.0082
 1319BOLB   C2B31642  25.303   8.419  34.597  0.2016  0.0146 -0.0855
 1319BOLB   C3B31643  24.947   8.654  34.454  0.0418  0.0488 -0.1343
 1319BOLB   C4B31644  24.642   8.936  34.604  0.1373  0.0313  0.0678
 1319BOLB   NC231645  26.030   6.351  34.649 -0.0203 -0.5053  0.1998
 1319BOLB   PO231646  25.963   6.248  34.142  0.1684 -0.2963 -0.1499
 1319BOLB   GL331647  25.681   6.593  34.271  0.1818 -0.0258 -0.0020
 1319BOLB   GL431648  25.518   6.446  34.501 -0.0222  0.1718 -0.0942
 1319BOLB   C1C31649  25.407   6.926  34.086  0.1041 -0.1884 -0.0284
 1319BOLB   C2C31650  25.316   7.229  33.800  0.0455  0.0491  0.0649
 1319BOLB   C3C31651  25.058   7.558  33.685  0.1323  0.1588 -0.3827
 1319BOLB   C4C31652  25.083   7.906  33.926  0.0828 -0.2536  0.2088
 1319BOLB   C1D31653  25.216   6.744  34.495  0.0624  0.3565 -0.0641
 1319BOLB   C2D31654  24.913   7.010  34.455 -0.0398  0.2658 -0.0772
 1319BOLB   C3D31655  24.529   7.015  34.405  0.0691  0.2106  0.0320
 1319BOLB   C4D31656  24.227   7.122  34.125 -0.2055  0.0329 -0.0839
 1320BOLB   NC131657  22.809  11.045  28.088 -0.2476 -0.1680 -0.1735
 1320BOLB   PO131658  23.211  11.098  28.118  0.1005 -0.2843  0.0986
 1320BOLB   GL131659  23.739  10.983  28.037 -0.0688 -0.2584  0.0312
 1320BOLB   GL231660  23.933  11.219  28.210 -0.0764  0.0331 -0.2548
 1320BOLB   C1A31661  24.089  10.785  28.109 -0.1915  0.2553  0.0753
 1320BOLB   C2A31662  24.447  10.935  28.028 -0.0681 -0.0103 -0.1179
 1320BOLB   C3A31663  24.878  10.900  28.177  0.1567  0.0847 -0.0592
 1320BOLB   C4A31664  25.309  10.811  28.198 -0.1648 -0.0453  0.1578
 1320BOLB   C1B31665  24.377  11.414  28.176 -0.0252  0.3992  0.0146
 1320BOLB   C2B31666  24.772  11.278  27.790 -0.1647 -0.5914  0.0742
 1320BOLB   C3B31667  25.051  11.359  27.459 -0.2163  0.0165 -0.1564
 1320BOLB   C4B31668  25.345  11.208  27.279  0.2682 -0.1305 -0.1933
 1320BOLB   NC231669   0.204  11.584  26.883  0.0856 -0.1692 -0.0686
 1320BOLB   PO231670   0.220  11.168  27.088 -0.1257  0.1950 -0.1961
 1320BOLB   GL331671  26.846  10.921  27.148 -0.0392 -0.3441  0.2119
 1320BOLB   GL431672  26.569  11.091  27.247  0.0255  0.2218 -0.0662
 1320BOLB   C1C31673  26.448  10.610  27.176  0.1891 -0.1094  0.0665
 1320BOLB   C2C31674  26.046  10.413  27.385  0.0383 -0.1348 -0.0915
 1320BOLB   C3C31675  25.926  10.443  27.821  0.0255 -0.2899 -0.0149
 1320BOLB   C4C31676  25.585  10.521  28.174  0.0321  0.0304 -0.3146
 1320BOLB   C1D31677  26.156  11.147  27.050 -0.0730 -0.1443  0.0804
 1320BOLB   C2D31678  25.771  11.065  26.877 -0.1166  0.0515  0.0697
 1320BOLB   C3D31679  25.367  10.812  26.973  0.0042 -0.1841 -0.2000
 1320BOLB   C4D31680  25.111  10.740  27.290  0.1511  0.5386  0.2328
 1321BOLB   NC131681   9.246  14.057  35.475  0.2729 -0.2906 -0.2565
 1321BOLB   PO131682   8.912  13.937  35.665 -0.1137 -0.4683  0.1132
 1321BOLB   GL131683   8.584  13.697  36.079 -0.1529  0.0380 -0.2501
 1321BOLB   GL231684   8.461  13.983  36.342  0.0685  0.0326 -0.0397
 1321BOLB   C1A31685   8.162  13.550  36.316 -0.1737  0.3110  0.1373
 1321BOLB   C2A31686   8.044  13.839  36.641  0.1540 -0.0544  0.0690
 1321BOLB   C3A31687   7.737  13.936  37.015 -0.2223  0.0340  0.0854
 1321BOLB   C4A31688   7.412  14.172  37.188 -0.0009  0.1139  0.1576
 1321BOLB   C1B31689   8.226  14.305  36.532  0.0879  0.0642 -0.0144
 1321BOLB   C2B31690   7.786  14.334  36.625  0.0032  0.4390 -0.0998
 1321BOLB   C3B31691   7.354  14.175  36.588  0.0794 -0.0462  0.3789
 1321BOLB   C4B31692   6.897  14.096  36.771 -0.1293 -0.1549 -0.1294
 1321BOLB   NC231693   5.591  15.381  38.147 -0.2031  0.3164  0.3859
 1321BOLB   PO231694   5.577  15.014  38.521  0.0579 -0.0623 -0.0941
 1321BOLB   GL331695   5.863  14.871  38.259  0.0264 -0.0189 -0.2698
 1321BOLB   GL431696   5.814  14.597  38.131  0.0778 -0.0864 -0.1824
 1321BOLB   C1C31697   6.253  14.791  38.171  0.0838  0.2207  0.2143
 1321BOLB   C2C31698   6.431  14.578  37.803 -0.2925  0.1784  0.0912
 1321BOLB   C3C31699   6.743  14.202  37.639  0.1262 -0.4293 -0.2371
 1321BOLB   C4C31700   6.992  14.068  37.273  0.3882 -0.3616  0.0446
 1321BOLB   C1D31701   5.954  14.609  37.730 -0.2263 -0.0617  0.1927
 1321BOLB   C2D31702   6.235  14.906  37.437 -0.1088  0.1406 -0.1809
 1321BOLB   C3D31703   6.341  14.779  36.978 -0.2047 -0.2667 -0.0082
 1321BOLB   C4D31704   6.228  14.789  36.527  0.0760  0.3462  0.0406
 1322BOLB   NC131705  19.467   6.289  35.012  0.1080 -0.1391  0.2203
 1322BOLB   PO131706  19.224   6.002  35.092  0.0598 -0.0051  0.2477
 1322BOLB   GL131707  19.098   5.794  35.409  0.2507 -0.0410  0.0146
 1322BOLB   GL231708  19.279   5.922  35.698  0.3253  0.1409  0.0605
 1322BOLB   C1A31709  19.031   5.458  35.694 -0.4715  0.5733  0.1729
 1322BOLB   C2A31710  19.021   5.200  36.056  0.2342  0.1927  0.1162
 1322BOLB   C3A31711  19.318   4.901  36.052 -0.4228  0.0456 -0.2560
 1322BOLB   C4A31712  19.526   4.501  36.103 -0.0239  0.0646 -0.2230
 1322BOLB   C1B31713  19.626   5.741  35.773  0.1331 -0.2166 -0.1936
 1322BOLB   C2B31714  19.996   5.570  35.941 -0.0835 -0.2877 -0.1288
 1322BOLB   C3B31715  20.209   5.350  36.054 -0.2654  0.1253  0.1046
 1322BOLB   C4B31716  20.452   5.036  36.023  0.0392 -0.5025 -0.0872
 1322BOLB   NC231717  20.700   2.999  37.228  0.1436 -0.0089  0.3757
 1322BOLB   PO231718  20.721   2.749  36.837  0.1422 -0.3298  0.2655
 1322BOLB   GL331719  20.960   3.104  36.661  0.1306  0.0495 -0.1334
 1322BOLB   GL431720  21.277   3.149  36.556 -0.0140 -0.1968  0.0026
 1322BOLB   C1C31721  20.694   3.335  36.572  0.0202  0.0941  0.1901
 1322BOLB   C2C31722  20.257   3.489  36.547 -0.2977  0.0919 -0.1162
 1322BOLB   C3C31723  19.965   3.735  36.508 -0.0834 -0.0346  0.2267
 1322BOLB   C4C31724  19.686   4.094  36.333  0.0153 -0.3077 -0.1748
 1322BOLB   C1D31725  21.142   3.607  36.757  0.0852 -0.1433  0.0399
 1322BOLB   C2D31726  20.814   3.858  36.778  0.1189  0.1398 -0.1751
 1322BOLB   C3D31727  20.585   4.323  36.848  0.4049  0.2561  0.1526
 1322BOLB   C4D31728  20.506   4.702  37.029 -0.1168  0.0277  0.0782
 1323BOLB   NC131729  16.660  20.549  31.942  0.0276 -0.0610 -0.1953
 1323BOLB   PO131730  16.313  20.705  32.262  0.2703 -0.1260  0.0894
 1323BOLB   GL131731  16.488  21.064  32.197  0.1940  0.0660  0.0981
 1323BOLB   GL231732  16.732  21.119  31.815 -0.2004 -0.4176 -0.0489
 1323BOLB   C1A31733  16.383  21.420  32.293  0.1310  0.0650 -0.4032
 1323BOLB   C2A31734  16.342  21.845  32.543  0.0882 -0.1327  0.4358
 1323BOLB   C3A31735  16.431  22.149  32.797  0.1611 -0.0473 -0.0541
 1323BOLB   C4A31736  16.540  22.392  33.100 -0.5630 -0.0316 -0.0228
 1323BOLB   C1B31737  16.800  21.405  32.056 -0.0798 -0.0493  0.3511
 1323BOLB   C2B31738  16.861  21.765  32.194  0.2588  0.2346  0.0294
 1323BOLB   C3B31739  16.641  22.080  32.249 -0.0824 -0.3362  0.0058
 1323BOLB   C4B31740  16.550  22.591  32.290  0.0934 -0.0443 -0.0059
 1323BOLB   NC231741  18.219  24.464  32.682 -0.2072  0.1541 -0.1928
 1323BOLB   PO231742  18.329  24.247  33.083 -0.1916 -0.1755  0.1244
 1323BOLB   GL331743  17.989  23.985  33.100  0.2143  0.0399 -0.1469
 1323BOLB   GL431744  17.801  23.940  32.872  0.0474 -0.1021 -0.1234
 1323BOLB   C1C31745  17.660  23.583  33.226  0.2235  0.0103  0.1837
 1323BOLB   C2C31746  17.495  23.166  33.387 -0.1487 -0.5130  0.0791
 1323BOLB   C3C31747  17.340  22.710  33.303  0.3205  0.1912  0.0392
 1323BOLB   C4C31748  16.841  22.488  33.368 -0.2111  0.3376  0.2482
 1323BOLB   C1D31749  17.297  23.785  33.010 -0.0005 -0.3333  0.2148
 1323BOLB   C2D31750  17.109  23.517  33.330  0.2368  0.2341 -0.0002
 1323BOLB   C3D31751  16.994  23.091  33.268 -0.3269  0.1851  0.0990
 1323BOLB   C4D31752  16.942  22.749  32.993  0.0992  0.1624  0.0121
 1324BOLB   NC131753  17.493  11.564  39.650  0.4104 -0.0843  0.1409
 1324BOLB   PO131754  17.054  11.687  39.911  0.0141 -0.1612  0.0525
 1324BOLB   GL131755  17.009  11.690  40.365 -0.2771 -0.2681  0.0523
 1324BOLB   GL231756  16.822  11.431  40.580  0.0977  0.2147 -0.4258
 1324BOLB   C1A31757  17.237  11.732  40.695 -0.0049  0.1039  0.0377
 1324BOLB   C2A31758  17.306  11.894  41.163 -0.0360  0.0887 -0.0227
 1324BOLB   C3A31759  17.136  11.958  41.550  0.1413  0.0531  0.0386
 1324BOLB   C4A31760  17.120  12.325  41.825 -0.1479 -0.1228  0.0783
 1324BOLB   C1B31761  16.995  11.416  41.068 -0.1495 -0.2400 -0.0473
 1324BOLB   C2B31762  17.445  11.412  41.157 -0.1414 -0.0919 -0.1722
 1324BOLB   C3B31763  17.611  11.232  41.507  0.0385  0.0494  0.0472
 1324BOLB   C4B31764  17.884  11.168  41.874  0.1646 -0.2602  0.0938
 1324BOLB   NC231765  17.720  11.456  43.791 -0.1374  0.0320  0.3111
 1324BOLB   PO231766  17.943  11.850  43.624 -0.1575 -0.0511  0.0604
 1324BOLB   GL331767  17.705  12.013  43.286  0.0975  0.1740  0.3721
 1324BOLB   GL431768  17.922  12.039  43.101  0.2048  0.0529  0.1167
 1324BOLB   C1C31769  17.174  11.970  43.211  0.0593 -0.2988 -0.1632
 1324BOLB   C2C31770  16.828  12.050  43.069 -0.1762 -0.0259 -0.0589
 1324BOLB   C3C31771  16.778  12.277  42.717 -0.1304  0.1587  0.1282
 1324BOLB   C4C31772  16.853  12.372  42.239 -0.2157 -0.0556 -0.0526
 1324BOLB   C1D31773  17.647  11.781  42.857  0.1082  0.1984  0.0299
 1324BOLB   C2D31774  17.644  11.791  42.364  0.2658 -0.1364 -0.1878
 1324BOLB   C3D31775  18.003  11.728  42.017  0.0886 -0.0366 -0.0045
 1324BOLB   C4D31776  18.294  11.573  41.779 -0.0662  0.3045 -0.1366
 1325BOLB   NC131777   9.699   9.905  35.068 -0.0035 -0.2532 -0.1779
 1325BOLB   PO131778   9.889   9.540  35.484 -0.0484  0.1655  0.1722
 1325BOLB   GL131779   9.667   9.352  35.838  0.2112 -0.0607 -0.0554
 1325BOLB   GL231780   9.400   9.437  35.781 -0.1681 -0.1302 -0.0978
 1325BOLB   C1A31781   9.415   9.016  35.994  0.1037  0.1584  0.2658
 1325BOLB   C2A31782   9.039   8.774  36.135 -0.1489  0.3043  0.3878
 1325BOLB   C3A31783   8.817   8.602  36.461 -0.3105 -0.1762 -0.0143
 1325BOLB   C4A31784   8.360   8.388  36.543  0.0535 -0.0018  0.3067
 1325BOLB   C1B31785   9.044   9.315  35.807 -0.0008 -0.2207 -0.1199
 1325BOLB   C2B31786   8.795   9.069  35.813 -0.1869  0.1958 -0.4048
 1325BOLB   C3B31787   8.384   9.209  35.957 -0.2055  0.2304 -0.1097
 1325BOLB   C4B31788   8.112   9.143  36.315  0.0821  0.0220  0.3310
 1325BOLB   NC231789   6.248   7.625  37.698  0.0567 -0.0789 -0.1793
 1325BOLB   PO231790   6.183   7.825  37.370 -0.2072 -0.1241  0.0443
 1325BOLB   GL331791   6.563   7.657  37.159 -0.0499 -0.0132  0.0663
 1325BOLB   GL431792   6.647   8.023  37.164 -0.1255 -0.0995  0.1296
 1325BOLB   C1C31793   6.935   7.576  36.851  0.1740 -0.2185  0.1124
 1325BOLB   C2C31794   7.217   7.902  36.808 -0.0167  0.1769  0.3385
 1325BOLB   C3C31795   7.548   8.137  36.680 -0.2442  0.1469  0.0340
 1325BOLB   C4C31796   7.985   8.227  36.647 -0.0350 -0.0079 -0.0430
 1325BOLB   C1D31797   6.853   8.177  36.695  0.1784 -0.2656 -0.4148
 1325BOLB   C2D31798   7.160   8.574  36.462  0.0414  0.3176  0.0301
 1325BOLB   C3D31799   7.178   9.032  36.421  0.2504 -0.0501  0.2313
 1325BOLB   C4D31800   6.989   9.466  36.521 -0.2106 -0.0993  0.1629
 1326BOLB   NC131801   8.114  15.690  19.355 -0.1201  0.0755  0.0660
 1326BOLB   PO131802   7.895  16.093  19.426  0.0319 -0.0637  0.1785
 1326BOLB   GL131803   8.233  16.068  19.644 -0.1259  0.0280 -0.0729
 1326BOLB   GL231804   8.487  15.813  19.617  0.1561 -0.2499  0.2432
 1326BOLB   C1A31805   8.343  15.828  20.075  0.0167 -0.2830 -0.0002
 1326BOLB   C2A31806   8.619  15.693  20.462  0.5238 -0.1039  0.0595
 1326BOLB   C3A31807   8.916  15.582  20.636  0.0724 -0.2544 -0.4887
 1326BOLB   C4A31808   9.191  15.708  20.839  0.0413  0.2147  0.3498
 1326BOLB   C1B31809   8.853  15.853  19.858  0.3385 -0.0693 -0.1592
 1326BOLB   C2B31810   8.959  15.578  20.102  0.0283  0.2338 -0.2684
 1326BOLB   C3B31811   9.123  15.195  20.117  0.0738 -0.2450 -0.0082
 1326BOLB   C4B31812   9.405  15.051  20.289 -0.0368 -0.2005  0.1377
 1326BOLB   NC231813   8.489  16.653  19.654 -0.2721 -0.1455 -0.3388
 1326BOLB   PO231814   8.322  16.803  20.103 -0.0176 -0.0637 -0.1040
 1326BOLB   GL331815   8.590  16.701  20.420  0.3356 -0.0010 -0.0292
 1326BOLB   GL431816   8.873  16.550  20.426 -0.2054 -0.4623 -0.0755
 1326BOLB   C1C31817   8.618  16.532  20.817 -0.1258 -0.0474 -0.3203
 1326BOLB   C2C31818   8.888  16.430  21.224 -0.1905 -0.2971  0.1254
 1326BOLB   C3C31819   9.228  16.172  21.403 -0.0214  0.0059 -0.0148
 1326BOLB   C4C31820   9.282  15.771  21.201 -0.3198  0.0076  0.3310
 1326BOLB   C1D31821   9.160  16.796  20.756  0.1374 -0.1475  0.0277
 1326BOLB   C2D31822   9.632  16.631  20.866  0.1452  0.1005  0.2885
 1326BOLB   C3D31823  10.135  16.712  20.833 -0.1451  0.0110  0.0759
 1326BOLB   C4D31824  10.580  16.760  20.836  0.0765 -0.1733 -0.1861
 1327BOLB   NC131825  21.385  10.027  36.348 -0.4167 -0.3446 -0.1002
 1327BOLB   PO131826  21.639   9.643  36.231  0.2075 -0.0937  0.1886
 1327BOLB   GL131827  21.928   9.349  36.328 -0.1267  0.0970 -0.0601
 1327BOLB   GL231828  22.213   9.592  36.251 -0.1442  0.0241  0.1682
 1327BOLB   C1A31829  22.064   9.102  36.641  0.1278 -0.2799  0.1667
 1327BOLB   C2A31830  22.348   8.752  36.625  0.0672 -0.2637 -0.2265
 1327BOLB   C3A31831  22.762   8.543  36.723  0.1430 -0.1484 -0.0684
 1327BOLB   C4A31832  23.015   8.178  36.735  0.0295  0.0147 -0.0935
 1327BOLB   C1B31833  22.410   9.206  36.280  0.3563  0.1601 -0.2144
 1327BOLB   C2B31834  22.835   9.032  36.416  0.2194 -0.2412  0.3107
 1327BOLB   C3B31835  23.056   8.642  36.304  0.3551  0.1464 -0.1492
 1327BOLB   C4B31836  23.350   8.413  36.395  0.3444  0.1244 -0.0267
 1327BOLB   NC231837  23.999   7.203  38.979  0.0399  0.2079  0.0333
 1327BOLB   PO231838  24.069   7.676  38.892 -0.4357 -0.0313 -0.0451
 1327BOLB   GL331839  24.027   7.496  38.513  0.0488  0.3272  0.0746
 1327BOLB   GL431840  23.675   7.562  38.487 -0.2196 -0.1365  0.7085
 1327BOLB   C1C31841  23.921   7.536  38.017 -0.0728 -0.0425  0.1766
 1327BOLB   C2C31842  23.647   7.756  37.680  0.0405 -0.0875 -0.1210
 1327BOLB   C3C31843  23.621   8.082  37.393 -0.1466 -0.1020 -0.0437
 1327BOLB   C4C31844  23.458   8.182  36.982 -0.1249 -0.1522 -0.0425
 1327BOLB   C1D31845  23.482   7.422  38.209  0.2495  0.0273 -0.0585
 1327BOLB   C2D31846  23.522   7.285  37.777 -0.3815  0.2920 -0.0552
 1327BOLB   C3D31847  23.377   7.410  37.378  0.1771 -0.4339 -0.2639
 1327BOLB   C4D31848  23.602   7.617  36.969 -0.2071 -0.0539  0.1208
 1328BOLB   NC131849  23.750  12.629  30.440  0.2203 -0.2014 -0.1890
 1328BOLB   PO131850  23.385  12.918  30.623 -0.1652 -0.1853  0.0323
 1328BOLB   GL131851  23.687  13.164  30.708 -0.2163  0.0167 -0.1463
 1328BOLB   GL231852  23.963  13.222  30.338  0.0658  0.1754  0.1168
 1328BOLB   C1A31853  23.964  13.570  30.799 -0.0079 -0.1451  0.0559
 1328BOLB   C2A31854  24.399  13.709  30.893 -0.0003 -0.2065  0.2510
 1328BOLB   C3A31855  24.739  13.723  31.199 -0.0493  0.1907 -0.0063
 1328BOLB   C4A31856  25.146  13.678  31.197  0.0754  0.1464  0.2117
 1328BOLB   C1B31857  24.230  13.179  29.952  0.1186  0.0128  0.1956
 1328BOLB   C2B31858  24.659  13.316  29.984  0.4009 -0.0897  0.0853
 1328BOLB   C3B31859  25.138  13.292  30.069  0.1273  0.0081  0.2525
 1328BOLB   C4B31860  25.599  13.288  30.075 -0.0650 -0.2145  0.0652
 1328BOLB   NC231861   0.404  14.015  31.050 -0.1483 -0.1132 -0.1929
 1328BOLB   PO231862   0.294  13.888  30.716  0.1998  0.1500 -0.1308
 1328BOLB   GL331863  26.859  13.981  30.857 -0.1132  0.1617 -0.0207
 1328BOLB   GL431864  26.738  13.873  30.509  0.0628 -0.5340  0.0222
 1328BOLB   C1C31865  26.594  13.836  31.041  0.0628 -0.2034 -0.0591
 1328BOLB   C2C31866  26.188  13.932  30.994  0.4189  0.2727  0.2615
 1328BOLB   C3C31867  25.881  13.712  30.782  0.0463  0.0301 -0.3497
 1328BOLB   C4C31868  25.560  13.609  31.101  0.3087 -0.3548 -0.1745
 1328BOLB   C1D31869  26.977  13.448  30.510  0.2696 -0.0113  0.1574
 1328BOLB   C2D31870  27.055  12.942  30.719 -0.1185  0.4306 -0.4129
 1328BOLB   C3D31871  26.796  12.673  30.772 -0.1667  0.1714 -0.0301
 1328BOLB   C4D31872  26.827  12.244  30.780 -0.0040  0.1238  0.3187
 1329BOLB   NC131873  18.674   9.483  38.500 -0.1016  0.0806  0.0727
 1329BOLB   PO131874  18.838   9.094  38.680 -0.2047 -0.2387 -0.0156
 1329BOLB   GL131875  18.948   8.905  39.120 -0.0626  0.1679 -0.0145
 1329BOLB   GL231876  19.002   8.603  39.334  0.1386  0.4919  0.1292
 1329BOLB   C1A31877  19.135   9.101  39.394  0.1564 -0.2352 -0.0026
 1329BOLB   C2A31878  19.407   8.951  39.771  0.2480  0.0497  0.2959
 1329BOLB   C3A31879  19.604   8.954  40.006  0.1335  0.1941 -0.1502
 1329BOLB   C4A31880  19.697   8.652  40.303  0.1758  0.0407  0.4369
 1329BOLB   C1B31881  18.947   8.373  39.710 -0.2933 -0.0694 -0.0745
 1329BOLB   C2B31882  18.878   8.152  40.044 -0.1268  0.1081  0.1613
 1329BOLB   C3B31883  18.904   8.038  40.406  0.1191 -0.1773  0.1564
 1329BOLB   C4B31884  18.760   8.131  40.786 -0.0518 -0.0441  0.2401
 1329BOLB   NC231885  21.773   8.186  42.020  0.1601 -0.2006 -0.0023
 1329BOLB   PO231886  21.528   7.844  41.910  0.3249  0.0283  0.2196
 1329BOLB   GL331887  21.148   7.987  41.705  0.1157  0.4466 -0.4352
 1329BOLB   GL431888  21.333   8.252  41.656  0.0606  0.0050  0.2499
 1329BOLB   C1C31889  20.730   8.151  41.476  0.1580  0.0945 -0.0602
 1329BOLB   C2C31890  20.521   8.157  41.073 -0.0756 -0.0804  0.1056
 1329BOLB   C3C31891  20.148   8.317  40.845  0.1172 -0.2187  0.1950
 1329BOLB   C4C31892  20.044   8.438  40.403 -0.3203  0.3300  0.2196
 1329BOLB   C1D31893  21.144   8.339  41.205  0.0756 -0.0427  0.1805
 1329BOLB   C2D31894  20.994   8.284  40.852 -0.0734 -0.0473  0.2425
 1329BOLB   C3D31895  21.016   8.272  40.411 -0.0233 -0.1225 -0.2191
 1329BOLB   C4D31896  20.787   8.411  40.004 -0.0031 -0.1139  0.0845
 1330BOLB   NC131897   7.947  13.270  31.180 -0.0128 -0.2434  0.0494
 1330BOLB   PO131898   7.633  13.166  30.937  0.0286 -0.0459 -0.0353
 1330BOLB   GL131899   7.149  13.273  30.867 -0.1192 -0.1110 -0.2794
 1330BOLB   GL231900   7.104  13.357  31.110  0.1483  0.1341 -0.2543
 1330BOLB   C1A31901   6.711  13.166  30.906 -0.2065 -0.3052 -0.2245
 1330BOLB   C2A31902   6.440  12.775  30.853 -0.0054  0.0739  0.1666
 1330BOLB   C3A31903   6.020  12.583  30.632  0.0408  0.1123  0.2570
 1330BOLB   C4A31904   5.726  12.442  30.738  0.2534  0.1707 -0.0646
 1330BOLB   C1B31905   6.859  13.099  31.386 -0.0283  0.0797 -0.2765
 1330BOLB   C2B31906   6.476  12.944  31.317  0.3786 -0.1089  0.0321
 1330BOLB   C3B31907   6.060  12.675  31.190 -0.3378 -0.0445  0.0528
 1330BOLB   C4B31908   5.640  12.801  31.142  0.1253  0.1321 -0.1223
 1330BOLB   NC231909   3.098  12.330  31.629  0.0093  0.1671  0.2693
 1330BOLB   PO231910   3.304  12.215  31.218  0.1287  0.2821 -0.1990
 1330BOLB   GL331911   3.766  12.257  31.205 -0.0870 -0.1275 -0.3115
 1330BOLB   GL431912   3.978  12.102  31.369  0.4164  0.2381 -0.1942
 1330BOLB   C1C31913   4.083  12.487  31.030 -0.0162  0.0763 -0.3719
 1330BOLB   C2C31914   4.541  12.615  30.936  0.1752  0.1175  0.2148
 1330BOLB   C3C31915   4.957  12.720  30.879  0.0755 -0.1321 -0.4485
 1330BOLB   C4C31916   5.353  12.612  30.737  0.2196  0.1457 -0.0827
 1330BOLB   C1D31917   4.423  12.281  31.332  0.1705  0.0502  0.1446
 1330BOLB   C2D31918   4.806  12.471  31.330  0.2740 -0.2010 -0.3563
 1330BOLB   C3D31919   5.248  12.481  31.442  0.0664  0.5144  0.0127
 1330BOLB   C4D31920   5.553  12.310  31.209  0.0063 -0.5785 -0.0114
 1331BOLB   NC131921   9.084   8.162  27.360 -0.4104  0.0923 -0.0733
 1331BOLB   PO131922   9.482   7.994  27.645 -0.0469  0.1781 -0.1510
 1331BOLB   GL131923   9.419   7.644  27.462  0.0501  0.6077 -0.1909
 1331BOLB   GL231924   9.035   7.619  27.541  0.0016  0.1833 -0.1128
 1331BOLB   C1A31925   9.229   7.293  27.220 -0.0684  0.0798 -0.0374
 1331BOLB   C2A31926   9.171   6.877  27.272 -0.0065 -0.3403 -0.1346
 1331BOLB   C3A31927   8.715   6.637  27.165 -0.0465  0.0615  0.0858
 1331BOLB   C4A31928   8.376   6.402  27.161  0.3445 -0.3995 -0.0164
 1331BOLB   C1B31929   8.785   7.283  27.345  0.1418  0.3263 -0.0808
 1331BOLB   C2B31930   8.614   7.082  27.308 -0.0792 -0.0650  0.0264
 1331BOLB   C3B31931   8.286   6.818  27.445 -0.0586 -0.4452 -0.0164
 1331BOLB   C4B31932   7.996   6.504  27.555  0.0187 -0.0298 -0.0085
 1331BOLB   NC231933   5.678   5.761  28.121  0.3161 -0.0346 -0.0730
 1331BOLB   PO231934   5.989   5.571  27.861  0.1556  0.0444 -0.0838
 1331BOLB   GL331935   6.282   5.697  27.593  0.1984  0.2527 -0.2121
 1331BOLB   GL431936   6.222   5.956  27.503  0.0775  0.1871 -0.2880
 1331BOLB   C1C31937   6.785   5.813  27.452  0.0173 -0.1416 -0.0361
 1331BOLB   C2C31938   7.169   6.011  27.440  0.1308  0.0091  0.0282
 1331BOLB   C3C31939   7.551   6.249  27.388 -0.1059 -0.0543  0.0551
 1331BOLB   C4C31940   7.932   6.222  27.127  0.3825  0.4263  0.2851
 1331BOLB   C1D31941   6.576   6.334  27.499  0.1282  0.2546  0.1096
 1331BOLB   C2D31942   6.994   6.496  27.487 -0.0324 -0.2616 -0.0673
 1331BOLB   C3D31943   7.421   6.632  27.662  0.1818 -0.3087 -0.0004
 1331BOLB   C4D31944   7.624   6.727  28.043 -0.0549 -0.2600 -0.3670
 1332BOLB   NC131945  11.920  13.119  38.607 -0.2716 -0.0712  0.4140
 1332BOLB   PO131946  11.667  13.248  38.908  0.3602  0.1866  0.0833
 1332BOLB   GL131947  11.415  13.306  39.140  0.0108  0.0024 -0.0822
 1332BOLB   GL231948  11.253  13.002  39.135  0.1094 -0.2432 -0.1598
 1332BOLB   C1A31949  11.161  13.543  39.395 -0.3250 -0.1879  0.1892
 1332BOLB   C2A31950  10.959  13.880  39.481  0.3631  0.1960  0.0858
 1332BOLB   C3A31951  10.597  14.143  39.408 -0.0821 -0.1557 -0.0589
 1332BOLB   C4A31952  10.503  14.562  39.444 -0.1837  0.3394 -0.1314
 1332BOLB   C1B31953  11.042  13.036  39.541 -0.2098  0.3073  0.5024
 1332BOLB   C2B31954  10.875  13.391  39.858 -0.1275 -0.0501 -0.0274
 1332BOLB   C3B31955  10.558  13.628  40.119  0.0756  0.1620 -0.0019
 1332BOLB   C4B31956  10.206  13.479  40.502  0.2440  0.1816 -0.1314
 1332BOLB   NC231957   9.105  15.716  41.196 -0.0680 -0.5086 -0.3165
 1332BOLB   PO231958   8.784  15.441  41.110 -0.1557 -0.3372 -0.0557
 1332BOLB   GL331959   9.267  15.386  40.824  0.3994 -0.2814  0.0538
 1332BOLB   GL431960   9.131  15.302  40.635  0.1283 -0.1014 -0.0787
 1332BOLB   C1C31961   9.637  15.192  40.645  0.0626  0.0709 -0.1743
 1332BOLB   C2C31962   9.708  14.973  40.332 -0.0377  0.1369  0.2959
 1332BOLB   C3C31963   9.855  14.747  39.914  0.0906  0.1600 -0.0065
 1332BOLB   C4C31964  10.110  14.773  39.543  0.2541  0.3307  0.0003
 1332BOLB   C1D31965   9.220  14.951  40.440  0.0000  0.3257 -0.4214
 1332BOLB   C2D31966   9.287  14.673  40.127  0.2955 -0.2528 -0.0259
 1332BOLB   C3D31967   9.336  14.679  39.717 -0.1094 -0.2278 -0.0951
 1332BOLB   C4D31968   9.687  14.580  39.386 -0.0535 -0.1138 -0.2002
 1333BOLB   NC131969  17.658  19.833  30.447  0.0780  0.4000 -0.1787
 1333BOLB   PO131970  17.686  19.898  30.059 -0.4714  0.0033 -0.2711
 1333BOLB   GL131971  17.999  20.125  30.081 -0.0459 -0.0526 -0.2882
 1333BOLB   GL231972  18.273  20.292  30.137  0.1549  0.1233 -0.2527
 1333BOLB   C1A31973  18.067  20.465  29.761 -0.0831  0.1146  0.2260
 1333BOLB   C2A31974  18.093  20.871  29.897  0.1143  0.1676 -0.1245
 1333BOLB   C3A31975  18.287  21.300  30.034  0.0509 -0.0401  0.3118
 1333BOLB   C4A31976  18.565  21.615  30.120 -0.0796 -0.2356 -0.0921
 1333BOLB   C1B31977  18.513  20.652  30.101 -0.0275  0.1042 -0.2790
 1333BOLB   C2B31978  18.692  21.061  29.920  0.2049  0.0446  0.0148
 1333BOLB   C3B31979  18.563  21.373  29.599 -0.0705 -0.0662 -0.2260
 1333BOLB   C4B31980  18.923  21.536  29.354  0.3233  0.0927  0.0742
 1333BOLB   NC231981  19.574  23.782  29.333  0.1091 -0.2070  0.3956
 1333BOLB   PO231982  19.339  23.733  29.815  0.2196  0.0427 -0.1156
 1333BOLB   GL331983  19.281  23.310  30.028  0.1858 -0.0144 -0.1846
 1333BOLB   GL431984  19.269  23.336  30.405  0.2772 -0.1637  0.0428
 1333BOLB   C1C31985  19.430  22.911  30.046 -0.3339 -0.0642 -0.2833
 1333BOLB   C2C31986  19.354  22.520  30.257 -0.1983  0.3566 -0.1586
 1333BOLB   C3C31987  18.971  22.284  30.273  0.0976 -0.2659  0.0835
 1333BOLB   C4C31988  18.755  22.010  30.028  0.1093  0.0459  0.0490
 1333BOLB   C1D31989  19.102  22.957  30.473 -0.2709 -0.0019  0.2342
 1333BOLB   C2D31990  18.834  22.626  30.642 -0.0833  0.0309  0.1486
 1333BOLB   C3D31991  18.754  22.121  30.709 -0.2054 -0.3371 -0.1292
 1333BOLB   C4D31992  18.681  21.677  30.630  0.0386 -0.3380 -0.0912
 1334BOLB   NC131993  18.669  14.125  38.810  0.0839 -0.1736 -0.0964
 1334BOLB   PO131994  18.639  14.584  38.814  0.1551  0.0147  0.0347
 1334BOLB   GL131995  18.578  14.558  39.239 -0.0652  0.1385  0.1452
 1334BOLB   GL231996  18.520  14.853  39.217 -0.2775 -0.0909  0.1328
 1334BOLB   C1A31997  18.810  14.377  39.670  0.0467  0.0975 -0.1144
 1334BOLB   C2A31998  18.979  14.373  40.018 -0.2628 -0.3003  0.2887
 1334BOLB   C3A31999  19.206  14.434  40.379  0.0566 -0.2317  0.1193
 1334BOLB   C4A32000  19.517  14.809  40.436 -0.1608  0.1183  0.1740
 1334BOLB   C1B32001  19.054  14.791  39.377  0.2275  0.2700  0.0269
 1334BOLB   C2B32002  19.295  14.368  39.557  0.0810  0.4291  0.3377
 1334BOLB   C3B32003  19.514  14.268  39.913  0.0146 -0.4649  0.0604
 1334BOLB   C4B32004  19.772  14.413  40.252  0.2662  0.0419 -0.4418
 1334BOLB   NC232005  20.418  15.288  42.375  0.3039  0.1014  0.1612
 1334BOLB   PO232006  20.636  15.723  42.326  0.2589  0.1507 -0.0735
 1334BOLB   GL332007  20.374  15.792  42.008  0.1363  0.1772  0.1457
 1334BOLB   GL432008  20.398  16.098  41.780  0.1731  0.0658 -0.2545
 1334BOLB   C1C32009  20.312  15.612  41.565 -0.0896  0.1388 -0.0576
 1334BOLB   C2C32010  20.208  15.417  41.157 -0.0097 -0.1929  0.4884
 1334BOLB   C3C32011  19.968  15.288  40.903 -0.1947  0.0689  0.1753
 1334BOLB   C4C32012  19.755  14.954  40.732  0.1056  0.1442  0.2246
 1334BOLB   C1D32013  20.124  16.249  41.650  0.1504 -0.1571 -0.2413
 1334BOLB   C2D32014  19.947  16.272  41.308  0.1652  0.1862 -0.0440
 1334BOLB   C3D32015  20.115  16.542  40.982  0.1664  0.0148  0.0453
 1334BOLB   C4D32016  20.130  16.696  40.521  0.3298 -0.1697  0.0527
 1335BOLB   NC132017  11.776  16.750  22.399  0.0444  0.2188  0.1280
 1335BOLB   PO132018  11.429  16.629  22.202 -0.0749 -0.2425  0.0440
 1335BOLB   GL132019  11.402  16.577  21.790  0.0223 -0.3682  0.1476
 1335BOLB   GL232020  11.283  16.252  21.791  0.0078  0.2094  0.3419
 1335BOLB   C1A32021  11.094  16.752  21.549  0.0030 -0.1481  0.3026
 1335BOLB   C2A32022  10.710  16.802  21.319 -0.4044 -0.2024  0.4294
 1335BOLB   C3A32023  10.443  16.443  21.330  0.0643  0.0968 -0.1668
 1335BOLB   C4A32024  10.073  16.269  21.134 -0.2705  0.2093  0.4610
 1335BOLB   C1B32025  11.306  16.190  21.353 -0.0662  0.1154 -0.4605
 1335BOLB   C2B32026  11.127  16.530  21.018  0.1766 -0.0323 -0.3178
 1335BOLB   C3B32027  11.060  16.762  20.661  0.0337  0.0212  0.0690
 1335BOLB   C4B32028  11.330  16.762  20.340  0.1221  0.2681 -0.3692
 1335BOLB   NC232029   7.970  16.498  19.817 -0.0122  0.0383  0.1216
 1335BOLB   PO232030   7.764  16.301  20.176 -0.2353  0.0251  0.0896
 1335BOLB   GL332031   8.123  16.305  20.263  0.0697  0.0002 -0.2766
 1335BOLB   GL432032   8.065  16.123  20.553  0.0504  0.0465 -0.4768
 1335BOLB   C1C32033   8.541  16.170  20.485  0.0705 -0.0554 -0.2409
 1335BOLB   C2C32034   8.921  16.187  20.749 -0.1042 -0.0355 -0.0544
 1335BOLB   C3C32035   9.267  16.242  20.888  0.0629  0.1481  0.0555
 1335BOLB   C4C32036   9.574  16.192  21.075  0.3256  0.3322  0.1339
 1335BOLB   C1D32037   8.184  16.292  20.909 -0.2461 -0.1669 -0.0444
 1335BOLB   C2D32038   8.400  16.289  21.274  0.1926  0.1005 -0.1619
 1335BOLB   C3D32039   8.503  16.618  21.496  0.0569  0.0235  0.0565
 1335BOLB   C4D32040   8.919  16.762  21.682  0.2345 -0.0130 -0.1746
 1336BOLB   NC132041  15.373  19.932  23.776  0.0796  0.2194 -0.0661
 1336BOLB   PO132042  15.031  20.138  24.092  0.0326  0.2151 -0.2962
 1336BOLB   GL132043  15.203  20.587  24.080  0.3194  0.0484  0.1507
 1336BOLB   GL232044  15.284  20.731  24.389  0.0233 -0.1349 -0.0363
 1336BOLB   C1A32045  15.313  20.750  23.872 -0.1729  0.3490  0.0569
 1336BOLB   C2A32046  15.749  20.957  23.809  0.0222 -0.1808 -0.0167
 1336BOLB   C3A32047  15.863  21.202  23.516  0.2204 -0.1297 -0.1177
 1336BOLB   C4A32048  15.840  21.633  23.323  0.1056 -0.2719  0.0945
 1336BOLB   C1B32049  15.519  21.213  24.295 -0.2524  0.1036 -0.1491
 1336BOLB   C2B32050  15.759  21.632  24.361  0.0701 -0.2022  0.1946
 1336BOLB   C3B32051  16.038  21.799  24.379  0.2674  0.1670 -0.3502
 1336BOLB   C4B32052  16.451  21.803  24.252 -0.4363 -0.0415  0.0784
 1336BOLB   NC232053  16.180  23.855  22.773 -0.0432 -0.2038 -0.4068
 1336BOLB   PO232054  16.400  23.764  22.465 -0.0949  0.0120 -0.2109
 1336BOLB   GL332055  16.255  23.383  22.751 -0.1723 -0.1718 -0.0410
 1336BOLB   GL432056  16.474  23.379  22.979 -0.1494  0.1252 -0.1623
 1336BOLB   C1C32057  16.300  22.984  22.735  0.2327  0.1519 -0.1112
 1336BOLB   C2C32058  16.186  22.621  22.895 -0.0147  0.2944 -0.1757
 1336BOLB   C3C32059  15.955  22.289  22.904 -0.0996 -0.1372  0.0727
 1336BOLB   C4C32060  15.770  21.986  23.099 -0.1058 -0.1405  0.0127
 1336BOLB   C1D32061  16.204  23.195  23.263 -0.2052 -0.0139  0.1373
 1336BOLB   C2D32062  15.978  22.790  23.426 -0.1201  0.1223 -0.1097
 1336BOLB   C3D32063  16.135  22.225  23.495  0.2578 -0.1091  0.0880
 1336BOLB   C4D32064  16.328  21.863  23.361 -0.0006 -0.1022 -0.1483
 1337BOLB   NC132065  11.418  10.601  23.067 -0.2799  0.1678 -0.0417
 1337BOLB   PO132066  10.899  10.582  23.115 -0.0676 -0.0469 -0.0762
 1337BOLB   GL132067  10.479  10.687  22.923 -0.0658 -0.0858  0.2120
 1337BOLB   GL232068  10.476  10.866  22.629 -0.1714  0.1193 -0.2028
 1337BOLB   C1A32069  10.271  10.256  23.026  0.3650  0.0630  0.4102
 1337BOLB   C2A32070  10.090   9.979  22.690  0.4055  0.4110  0.0091
 1337BOLB   C3A32071   9.794   9.671  22.453 -0.2189 -0.1774  0.0369
 1337BOLB   C4A32072   9.451   9.321  22.342  0.1445  0.1420  0.2906
 1337BOLB   C1B32073  10.317  10.513  22.510 -0.2315  0.0583 -0.2511
 1337BOLB   C2B32074   9.991  10.529  22.211 -0.1506 -0.0925  0.0676
 1337BOLB   C3B32075   9.693  10.354  21.849 -0.2736  0.0880  0.4584
 1337BOLB   C4B32076   9.770  10.244  21.361 -0.4155 -0.0126 -0.1672
 1337BOLB   NC232077   6.992   8.806  21.915  0.1707 -0.0077 -0.0099
 1337BOLB   PO232078   7.296   8.917  21.575 -0.0538 -0.3461  0.3146
 1337BOLB   GL332079   7.572   9.338  21.583  0.1322 -0.1529 -0.0660
 1337BOLB   GL432080   7.505   9.688  21.358 -0.1282 -0.0317 -0.4217
 1337BOLB   C1C32081   7.866   9.522  21.821 -0.2508 -0.4889 -0.3336
 1337BOLB   C2C32082   8.259   9.523  22.040 -0.3166 -0.0756  0.0712
 1337BOLB   C3C32083   8.601   9.472  22.349 -0.2454 -0.1405 -0.1718
 1337BOLB   C4C32084   9.001   9.326  22.307 -0.1426  0.0423  0.1653
 1337BOLB   C1D32085   7.847  10.069  21.492  0.0295  0.1554 -0.2593
 1337BOLB   C2D32086   7.770  10.438  21.462  0.1008 -0.4084  0.0021
 1337BOLB   C3D32087   7.656  10.718  21.787 -0.0396  0.1745 -0.0364
 1337BOLB   C4D32088   7.355  10.815  22.079  0.1159  0.0277 -0.3515
 1338BOLB   NC132089  18.238   8.354  15.559 -0.1649  0.0189  0.0774
 1338BOLB   PO132090  18.144   7.970  15.754 -0.2608 -0.1378 -0.1980
 1338BOLB   GL132091  18.331   8.283  16.084  0.3086  0.2711 -0.1291
 1338BOLB   GL232092  18.313   8.244  16.436  0.1164  0.2595  0.0962
 1338BOLB   C1A32093  18.531   8.704  16.269  0.2522 -0.2909 -0.0633
 1338BOLB   C2A32094  18.445   9.098  16.433 -0.1063 -0.3538 -0.2386
 1338BOLB   C3A32095  18.171   9.234  16.700 -0.2374  0.0132 -0.0533
 1338BOLB   C4A32096  18.181   9.528  16.968  0.1594  0.1168 -0.3596
 1338BOLB   C1B32097  18.311   8.278  16.850 -0.0188 -0.2551  0.0788
 1338BOLB   C2B32098  18.167   8.625  17.118  0.0865 -0.4212  0.0417
 1338BOLB   C3B32099  18.329   8.785  17.398  0.0724 -0.4014  0.1971
 1338BOLB   C4B32100  18.597   8.950  17.660 -0.2636 -0.0271 -0.1920
 1338BOLB   NC232101  17.314   8.470  15.901 -0.0547 -0.1889 -0.1702
 1338BOLB   PO232102  17.363   8.742  15.585 -0.1092 -0.0999  0.2918
 1338BOLB   GL332103  17.220   9.000  15.954 -0.0998  0.0636 -0.5758
 1338BOLB   GL432104  16.941   9.166  15.988  0.3320  0.1039  0.1643
 1338BOLB   C1C32105  17.401   9.334  16.321 -0.1751  0.1766 -0.1819
 1338BOLB   C2C32106  17.313   9.659  16.557  0.0221  0.0497 -0.0502
 1338BOLB   C3C32107  17.554   9.863  16.856  0.1052  0.0347 -0.1647
 1338BOLB   C4C32108  17.911   9.833  17.072  0.1928  0.0109  0.0114
 1338BOLB   C1D32109  16.701   9.215  16.424  0.0247 -0.2715  0.3246
 1338BOLB   C2D32110  16.933   9.363  16.769  0.0544 -0.1024 -0.0512
 1338BOLB   C3D32111  17.169   9.342  17.219 -0.0172 -0.2128  0.1091
 1338BOLB   C4D32112  17.644   9.514  17.310 -0.0640  0.5752  0.2767
 1339BOLB   NC132113  19.073   6.469  23.417  0.4269  0.2877 -0.0877
 1339BOLB   PO132114  19.182   6.035  23.643 -0.2298 -0.0252  0.1519
 1339BOLB   GL132115  19.110   5.658  23.516  0.0206  0.2348  0.2408
 1339BOLB   GL232116  18.864   5.421  23.484 -0.0075  0.3314  0.4652
 1339BOLB   C1A32117  19.341   5.255  23.433 -0.0218  0.0431 -0.0042
 1339BOLB   C2A32118  19.530   4.895  23.184 -0.0314 -0.0511  0.1020
 1339BOLB   C3A32119  19.617   4.443  23.247 -0.2705  0.0299 -0.2007
 1339BOLB   C4A32120  19.411   4.012  23.160 -0.1444  0.3962 -0.1088
 1339BOLB   C1B32121  18.912   4.943  23.311 -0.2704 -0.0570  0.4851
 1339BOLB   C2B32122  19.112   4.502  23.434  0.0560 -0.1847 -0.2075
 1339BOLB   C3B32123  19.041   4.068  23.498 -0.1121  0.0161 -0.1279
 1339BOLB   C4B32124  19.123   3.739  23.668 -0.0650  0.0532  0.1374
 1339BOLB   NC232125  20.753   1.674  23.651 -0.2411  0.1044  0.1779
 1339BOLB   PO232126  20.696   2.133  23.319 -0.1992  0.0625  0.3741
 1339BOLB   GL332127  20.618   2.366  23.764  0.0194 -0.3855 -0.0421
 1339BOLB   GL432128  20.637   2.106  24.100 -0.3046  0.1325  0.2532
 1339BOLB   C1C32129  20.378   2.654  23.703 -0.2866 -0.3441 -0.1591
 1339BOLB   C2C32130  20.253   2.999  23.544  0.0774  0.0043  0.1003
 1339BOLB   C3C32131  19.797   3.267  23.459  0.2077  0.1111  0.0107
 1339BOLB   C4C32132  19.506   3.616  23.363  0.1065 -0.3486  0.0420
 1339BOLB   C1D32133  20.431   2.497  24.247  0.0805 -0.2799  0.1130
 1339BOLB   C2D32134  20.057   2.792  24.117 -0.2194  0.0001  0.2660
 1339BOLB   C3D32135  19.770   3.080  24.360  0.0225 -0.1037  0.3282
 1339BOLB   C4D32136  19.626   3.449  24.547  0.1302  0.1211 -0.1511
 1340BOLB   NC132137  22.538   7.309  26.642  0.0469  0.2565  0.1267
 1340BOLB   PO132138  22.617   7.818  26.842  0.1169  0.1075 -0.0363
 1340BOLB   GL132139  22.987   7.590  26.698 -0.2060  0.1655 -0.0365
 1340BOLB   GL232140  23.169   7.670  26.561 -0.0423  0.0557  0.1375
 1340BOLB   C1A32141  23.355   7.356  26.852  0.2562  0.0809 -0.1550
 1340BOLB   C2A32142  23.270   6.910  26.897 -0.2461  0.2326 -0.1369
 1340BOLB   C3A32143  23.519   6.659  26.948 -0.2923 -0.0862  0.2675
 1340BOLB   C4A32144  23.981   6.578  27.054  0.0369 -0.2395  0.2978
 1340BOLB   C1B32145  23.655   7.819  26.773 -0.0023  0.0554  0.0339
 1340BOLB   C2B32146  23.994   7.629  26.524  0.0564 -0.1328 -0.2885
 1340BOLB   C3B32147  24.241   7.325  26.227  0.1504  0.0095 -0.0049
 1340BOLB   C4B32148  24.341   7.038  25.883 -0.0513 -0.3521 -0.1124
 1340BOLB   NC232149  25.918   4.942  27.085 -0.3659 -0.0210  0.0458
 1340BOLB   PO232150  25.614   4.731  26.811 -0.1780 -0.2513 -0.0384
 1340BOLB   GL332151  25.454   5.170  26.930  0.1460 -0.1680 -0.0305
 1340BOLB   GL432152  25.374   5.225  27.212  0.0349  0.0708  0.0184
 1340BOLB   C1C32153  25.053   5.324  26.899  0.2324 -0.1474  0.0820
 1340BOLB   C2C32154  24.667   5.473  26.981  0.0274  0.0069 -0.0710
 1340BOLB   C3C32155  24.379   5.833  27.103 -0.0424 -0.1046  0.2045
 1340BOLB   C4C32156  24.272   6.206  26.953  0.2192  0.5725  0.1197
 1340BOLB   C1D32157  24.993   5.387  27.451  0.1116  0.0502  0.0399
 1340BOLB   C2D32158  24.628   5.362  27.577 -0.1271  0.2322  0.0904
 1340BOLB   C3D32159  24.325   5.566  27.613  0.3322 -0.1598  0.2583
 1340BOLB   C4D32160  23.883   5.410  27.390  0.3115 -0.1402 -0.1335
 1341BOLB   NC132161  14.385  21.447  27.812  0.1583 -0.1283  0.1833
 1341BOLB   PO132162  14.020  21.258  27.614  0.0259 -0.0766 -0.2369
 1341BOLB   GL132163  13.965  21.625  27.303  0.1164 -0.0414  0.1293
 1341BOLB   GL232164  14.028  21.749  27.669 -0.1724 -0.2756 -0.1627
 1341BOLB   C1A32165  13.891  22.035  27.029 -0.2345 -0.0419 -0.1703
 1341BOLB   C2A32166  13.666  22.356  26.892 -0.1521 -0.1081  0.0985
 1341BOLB   C3A32167  13.405  22.455  26.546  0.2067  0.3002  0.2545
 1341BOLB   C4A32168  13.055  22.668  26.233 -0.2797  0.0797 -0.2052
 1341BOLB   C1B32169  14.222  22.092  27.531 -0.0452  0.3896 -0.3508
 1341BOLB   C2B32170  14.770  22.171  27.483  0.1924 -0.0611  0.1966
 1341BOLB   C3B32171  14.968  22.431  27.672 -0.2228  0.0426 -0.3682
 1341BOLB   C4B32172  15.222  22.746  27.658 -0.0230  0.1093  0.1992
 1341BOLB   NC232173  13.579  25.173  25.114  0.4076  0.0114 -0.0298
 1341BOLB   PO232174  13.465  24.821  25.492 -0.2889  0.1291  0.2685
 1341BOLB   GL332175  13.224  24.384  25.474  0.0494 -0.1945  0.1317
 1341BOLB   GL432176  13.526  24.267  25.351 -0.1363 -0.1686  0.1498
 1341BOLB   C1C32177  12.926  24.089  25.680  0.0167 -0.0094  0.1569
 1341BOLB   C2C32178  12.974  23.796  26.075 -0.1483  0.2347  0.0825
 1341BOLB   C3C32179  12.965  23.385  26.029  0.0456  0.1836 -0.1196
 1341BOLB   C4C32180  12.872  22.997  26.144 -0.3510  0.4423 -0.0036
 1341BOLB   C1D32181  13.847  24.012  25.608  0.1905 -0.0034  0.0207
 1341BOLB   C2D32182  13.904  23.687  25.965 -0.0304  0.1914 -0.0258
 1341BOLB   C3D32183  13.806  23.416  26.189 -0.0163  0.0276  0.0289
 1341BOLB   C4D32184  13.781  23.226  26.615 -0.3537 -0.0281  0.0474
 1342BOLB   NC132185  10.900  15.072  43.160 -0.2638  0.1318  0.1165
 1342BOLB   PO132186  11.038  15.269  42.789 -0.2329  0.0698  0.2311
 1342BOLB   GL132187  11.317  15.197  42.571  0.1749 -0.0865  0.1155
 1342BOLB   GL232188  11.221  15.280  42.221 -0.0793  0.2595  0.2042
 1342BOLB   C1A32189  11.638  14.997  42.291 -0.1804  0.0246  0.1348
 1342BOLB   C2A32190  12.049  15.078  42.038 -0.1539  0.1695  0.1856
 1342BOLB   C3A32191  12.365  14.953  41.994  0.1303 -0.1658  0.2722
 1342BOLB   C4A32192  12.339  14.647  41.743  0.3238  0.1417  0.1079
 1342BOLB   C1B32193  11.286  14.969  41.885  0.4531  0.1017 -0.2088
 1342BOLB   C2B32194  11.298  14.730  41.525 -0.0057  0.0540 -0.6055
 1342BOLB   C3B32195  11.420  14.586  41.123 -0.0349  0.2387  0.0951
 1342BOLB   C4B32196  11.673  14.260  40.848 -0.2196  0.2301 -0.0033
 1342BOLB   NC232197  10.607  14.332  42.994  0.1520 -0.1320 -0.5892
 1342BOLB   PO232198  10.798  14.670  42.825  0.0697 -0.0549  0.4564
 1342BOLB   GL332199  11.018  14.791  42.522 -0.0618  0.1074  0.3813
 1342BOLB   GL432200  10.838  14.985  42.411  0.3789  0.0042  0.3544
 1342BOLB   C1C32201  11.334  14.627  42.274 -0.3416 -0.1596 -0.0484
 1342BOLB   C2C32202  11.379  14.429  41.890 -0.0771  0.2800 -0.1328
 1342BOLB   C3C32203  11.654  14.303  41.607  0.0186 -0.1221  0.2611
 1342BOLB   C4C32204  12.005  14.408  41.536  0.1944  0.2076 -0.0906
 1342BOLB   C1D32205  10.831  15.077  42.005  0.0415 -0.1550 -0.4237
 1342BOLB   C2D32206  10.799  15.005  41.685  0.2135  0.0770  0.0360
 1342BOLB   C3D32207  10.725  14.873  41.326 -0.1393 -0.0106  0.1203
 1342BOLB   C4D32208  10.325  14.770  41.136  0.3362 -0.1841  0.1640
 1343BOLB   NC132209  15.481   5.741  34.874 -0.3732  0.0950 -0.1712
 1343BOLB   PO132210  15.212   5.382  34.898  0.1268 -0.0183  0.1544
 1343BOLB   GL132211  15.013   4.989  34.895  0.0466 -0.4198  0.1502
 1343BOLB   GL232212  14.725   5.071  34.776 -0.1687 -0.1381 -0.0201
 1343BOLB   C1A32213  14.984   4.539  35.027 -0.0323 -0.1489  0.1341
 1343BOLB   C2A32214  14.835   4.197  35.166 -0.2323  0.0602 -0.0393
 1343BOLB   C3A32215  14.714   3.844  35.370  0.1535 -0.1056  0.0942
 1343BOLB   C4A32216  14.379   3.536  35.518  0.0953 -0.2421  0.1958
 1343BOLB   C1B32217  14.626   4.626  34.675  0.1299  0.1089 -0.0325
 1343BOLB   C2B32218  14.461   4.310  34.708 -0.1122  0.0141  0.4348
 1343BOLB   C3B32219  14.427   3.961  34.966  0.2257  0.4631 -0.0227
 1343BOLB   C4B32220  14.265   3.487  35.009  0.3161 -0.0957  0.2753
 1343BOLB   NC232221  14.070   1.614  36.218  0.1424  0.1091 -0.0503
 1343BOLB   PO232222  13.774   1.635  36.395  0.0451 -0.1794 -0.0257
 1343BOLB   GL332223  13.553   2.015  36.318  0.2708 -0.0063  0.2910
 1343BOLB   GL432224  13.581   2.328  36.469  0.0420 -0.0296 -0.3025
 1343BOLB   C1C32225  13.432   2.282  35.841  0.2673  0.1883 -0.0140
 1343BOLB   C2C32226  13.444   2.654  35.526  0.4677 -0.0613  0.0390
 1343BOLB   C3C32227  13.706   3.073  35.407 -0.0381  0.2564 -0.0532
 1343BOLB   C4C32228  13.973   3.349  35.412  0.4974 -0.2173  0.0327
 1343BOLB   C1D32229  13.399   2.613  36.239 -0.1606  0.1185  0.2042
 1343BOLB   C2D32230  13.502   2.943  35.974 -0.1092 -0.0483 -0.0920
 1343BOLB   C3D32231  13.749   3.295  35.856 -0.1563  0.2597  0.1701
 1343BOLB   C4D32232  13.899   3.768  35.819 -0.1892 -0.0711  0.0106
 1344BOLB   NC132233  23.209  13.777  34.068 -0.0394  0.0537  0.1670
 1344BOLB   PO132234  23.435  13.578  33.689 -0.3203 -0.4122  0.1055
 1344BOLB   GL132235  23.818  13.784  33.789 -0.0347 -0.0015  0.2073
 1344BOLB   GL232236  23.807  14.029  33.833  0.1719 -0.4465  0.2937
 1344BOLB   C1A32237  24.218  13.653  33.715 -0.0809  0.2423 -0.1034
 1344BOLB   C2A32238  24.609  13.677  33.564  0.0792  0.0289  0.1781
 1344BOLB   C3A32239  25.080  13.560  33.635 -0.0738  0.3272  0.1342
 1344BOLB   C4A32240  25.412  13.747  33.306 -0.5163 -0.1456 -0.3423
 1344BOLB   C1B32241  24.213  13.920  34.125  0.1957 -0.1867  0.1338
 1344BOLB   C2B32242  24.637  13.940  34.057  0.2670 -0.0057 -0.0686
 1344BOLB   C3B32243  24.932  13.996  33.850 -0.1616  0.1872  0.2488
 1344BOLB   C4B32244  25.410  13.912  33.791  0.3130  0.0738 -0.0891
 1344BOLB   NC232245   0.965  13.248  32.372  0.0962 -0.1638  0.1341
 1344BOLB   PO232246   0.598  13.503  32.375  0.1429  0.0701 -0.1661
 1344BOLB   GL332247   0.237  13.691  32.407 -0.1384 -0.1796 -0.3168
 1344BOLB   GL432248   0.120  13.445  32.196 -0.0422  0.0673  0.1836
 1344BOLB   C1C32249  26.873  13.695  32.660  0.0399  0.1791 -0.0198
 1344BOLB   C2C32250  26.476  13.555  32.632  0.1766 -0.0559  0.1640
 1344BOLB   C3C32251  26.059  13.451  32.754  0.0391  0.0882 -0.3755
 1344BOLB   C4C32252  25.790  13.529  33.105  0.1219 -0.0295  0.0455
 1344BOLB   C1D32253  26.815  13.336  32.322 -0.2617  0.2504 -0.0028
 1344BOLB   C2D32254  26.418  13.164  32.272 -0.0352 -0.1053 -0.1890
 1344BOLB   C3D32255  26.071  13.048  32.430  0.2120 -0.2775  0.1616
 1344BOLB   C4D32256  26.013  12.902  32.779 -0.1002 -0.1120 -0.0906
 1345BOLB   NC132257  12.488   6.985  23.664 -0.1974 -0.3083 -0.1331
 1345BOLB   PO132258  12.194   6.837  23.810  0.2194 -0.1862 -0.1865
 1345BOLB   GL132259  12.334   6.522  23.482 -0.0572  0.1297 -0.0303
 1345BOLB   GL232260  12.482   6.260  23.629  0.2507 -0.0817  0.0571
 1345BOLB   C1A32261  12.149   6.176  23.316  0.0792  0.1977 -0.0483
 1345BOLB   C2A32262  11.932   5.785  23.423  0.1759  0.1440  0.3003
 1345BOLB   C3A32263  11.715   5.576  23.738  0.3491  0.1494 -0.1640
 1345BOLB   C4A32264  11.448   5.243  23.700  0.3503 -0.1202  0.1656
 1345BOLB   C1B32265  12.303   5.883  23.727  0.3493 -0.2303 -0.0116
 1345BOLB   C2B32266  12.175   5.415  23.682  0.3306 -0.0328  0.1672
 1345BOLB   C3B32267  11.881   5.093  23.451  0.0350 -0.1429 -0.0170
 1345BOLB   C4B32268  11.551   5.025  23.182  0.5415 -0.1349 -0.0365
 1345BOLB   NC232269  10.568   2.895  23.856  0.1482 -0.1725 -0.0135
 1345BOLB   PO232270  10.483   3.091  23.463  0.0420 -0.0297 -0.4574
 1345BOLB   GL332271  10.653   3.466  23.564 -0.0591  0.1204 -0.2303
 1345BOLB   GL432272  10.600   3.486  23.830  0.2815  0.0329  0.3017
 1345BOLB   C1C32273  10.908   3.864  23.347  0.2461  0.0192  0.0847
 1345BOLB   C2C32274  11.072   4.228  23.233 -0.2945 -0.1501  0.1494
 1345BOLB   C3C32275  11.179   4.637  23.182  0.2907  0.0635 -0.1039
 1345BOLB   C4C32276  11.188   4.960  23.548  0.2181  0.2687 -0.1733
 1345BOLB   C1D32277  10.639   3.925  23.850  0.2182 -0.1330 -0.0615
 1345BOLB   C2D32278  10.700   4.371  24.045 -0.0320  0.1842 -0.0356
 1345BOLB   C3D32279  10.897   4.602  24.437 -0.2808 -0.1100 -0.0292
 1345BOLB   C4D32280  11.191   4.652  24.764  0.0400  0.0253  0.1845
 1346BOLB   NC132281  23.447  12.235  33.346 -0.0161 -0.0794  0.2321
 1346BOLB   PO132282  23.770  12.073  33.591  0.1872 -0.2270  0.0152
 1346BOLB   GL132283  24.220  12.101  33.512 -0.1979 -0.0860 -0.1923
 1346BOLB   GL232284  24.152  11.737  33.423  0.1935 -0.0713  0.3804
 1346BOLB   C1A32285  24.730  12.075  33.456 -0.0293 -0.3924  0.0259
 1346BOLB   C2A32286  25.086  12.101  33.497  0.1314 -0.0737  0.0361
 1346BOLB   C3A32287  25.431  12.003  33.393 -0.1416  0.0792  0.2992
 1346BOLB   C4A32288  25.829  12.267  33.428  0.1473  0.3411 -0.3199
 1346BOLB   C1B32289  24.302  11.731  33.840 -0.3621 -0.0253 -0.0932
 1346BOLB   C2B32290  24.706  11.904  34.111 -0.0489 -0.1118 -0.4455
 1346BOLB   C3B32291  24.978  11.707  34.494  0.1647 -0.1842 -0.0156
 1346BOLB   C4B32292  25.241  11.454  34.776  0.1674 -0.0520 -0.2762
 1346BOLB   NC232293   0.726  12.609  33.777  0.0559  0.1262  0.0523
 1346BOLB   PO232294   0.552  13.023  33.906  0.0152 -0.2478  0.4876
 1346BOLB   GL332295   0.371  12.898  33.426 -0.5555  0.2522  0.0802
 1346BOLB   GL432296   0.617  12.920  33.164 -0.0898  0.1885 -0.1106
 1346BOLB   C1C32297  27.049  12.912  33.217  0.1291 -0.2114 -0.0642
 1346BOLB   C2C32298  26.715  13.059  33.388  0.2182  0.1783 -0.1030
 1346BOLB   C3C32299  26.429  12.883  33.612 -0.1685 -0.0801 -0.0816
 1346BOLB   C4C32300  26.050  12.704  33.628  0.0335  0.3085  0.2026
 1346BOLB   C1D32301   0.316  12.662  32.949 -0.2599 -0.0185  0.2229
 1346BOLB   C2D32302   0.039  12.740  32.651 -0.0299  0.1702  0.1276
 1346BOLB   C3D32303  26.718  12.762  32.306 -0.0473 -0.0959  0.1891
 1346BOLB   C4D32304  26.331  12.787  31.983  0.2442  0.0597  0.1358
 1347BOLB   NC132305  16.285  17.038  38.561  0.0736 -0.1241  0.0560
 1347BOLB   PO132306  16.345  17.330  38.272 -0.1318 -0.0139  0.1149
 1347BOLB   GL132307  16.392  17.485  38.779  0.3326  0.1652 -0.2035
 1347BOLB   GL232308  16.681  17.289  38.924  0.0092 -0.1981  0.1050
 1347BOLB   C1A32309  16.154  17.961  38.912  0.0456  0.0375 -0.2254
 1347BOLB   C2A32310  15.973  18.207  39.202  0.2604  0.2506  0.0810
 1347BOLB   C3A32311  15.725  18.456  39.420 -0.1989  0.0726 -0.0610
 1347BOLB   C4A32312  15.611  18.406  39.832  0.0436 -0.1598  0.0756
 1347BOLB   C1B32313  16.579  17.771  39.188  0.0025  0.2531 -0.0508
 1347BOLB   C2B32314  16.472  18.183  39.284 -0.1288  0.1174  0.4578
 1347BOLB   C3B32315  16.218  18.435  39.589  0.1031 -0.1146 -0.2244
 1347BOLB   C4B32316  16.316  18.765  39.907 -0.3371  0.1592 -0.2143
 1347BOLB   NC232317  15.272  19.244  42.115  0.0580 -0.0087 -0.0651
 1347BOLB   PO232318  15.839  19.295  42.099  0.1554  0.1858  0.1621
 1347BOLB   GL332319  15.711  19.144  41.720 -0.0045  0.0138 -0.0719
 1347BOLB   GL432320  15.583  18.935  41.829 -0.0219 -0.0897 -0.3136
 1347BOLB   C1C32321  15.788  18.950  41.294 -0.2628 -0.3247 -0.0661
 1347BOLB   C2C32322  15.760  18.666  41.063  0.0484 -0.0477 -0.0978
 1347BOLB   C3C32323  15.565  18.557  40.670 -0.2041  0.1865  0.0359
 1347BOLB   C4C32324  15.544  18.453  40.286 -0.1346 -0.0956  0.0864
 1347BOLB   C1D32325  15.824  18.510  41.709 -0.0371  0.1587 -0.3503
 1347BOLB   C2D32326  15.823  18.248  41.316 -0.1189 -0.1561  0.3490
 1347BOLB   C3D32327  15.862  18.111  40.858 -0.0028  0.0544  0.0698
 1347BOLB   C4D32328  16.248  17.873  40.604  0.1018 -0.0328 -0.0097
 1348BOLB   NC132329  19.360  18.786  30.912  0.0878 -0.3087 -0.0430
 1348BOLB   PO132330  19.383  18.720  31.345 -0.0742  0.0605  0.1069
 1348BOLB   GL132331  19.680  19.100  31.279 -0.1088 -0.1164  0.1604
 1348BOLB   GL232332  19.533  19.347  31.410 -0.1230  0.4417  0.0473
 1348BOLB   C1A32333  19.934  19.469  31.210  0.1016  0.0024  0.1622
 1348BOLB   C2A32334  19.941  19.884  31.099  0.3687  0.0727  0.1648
 1348BOLB   C3A32335  20.080  20.342  30.850  0.2863  0.0456 -0.0713
 1348BOLB   C4A32336  20.391  20.644  31.005  0.2633  0.3102 -0.1655
 1348BOLB   C1B32337  19.588  19.862  31.600  0.3012 -0.2215 -0.2567
 1348BOLB   C2B32338  19.500  20.293  31.762 -0.0920  0.0224 -0.3234
 1348BOLB   C3B32339  19.704  20.640  31.903  0.1125 -0.0122  0.2295
 1348BOLB   C4B32340  19.799  20.795  32.269  0.2143 -0.1414  0.0663
 1348BOLB   NC232341  21.549  22.608  31.674  0.1017 -0.1963 -0.0338
 1348BOLB   PO232342  21.743  22.292  31.442  0.1485  0.3073 -0.1684
 1348BOLB   GL332343  21.763  21.897  31.367  0.2102 -0.1522 -0.0881
 1348BOLB   GL432344  21.525  21.810  31.530 -0.0696 -0.0969  0.3328
 1348BOLB   C1C32345  21.582  21.510  31.122 -0.2994 -0.0950  0.0035
 1348BOLB   C2C32346  21.389  21.199  31.176  0.1782 -0.0153  0.1993
 1348BOLB   C3C32347  21.230  20.871  31.246 -0.1882  0.0823  0.1354
 1348BOLB   C4C32348  20.752  20.802  31.257 -0.2641  0.0624  0.1360
 1348BOLB   C1D32349  21.611  21.327  31.585 -0.0321 -0.0183 -0.3402
 1348BOLB   C2D32350  21.420  20.992  31.694  0.1789  0.0723  0.1767
 1348BOLB   C3D32351  21.160  20.810  31.880 -0.1356 -0.0516 -0.1514
 1348BOLB   C4D32352  20.795  20.592  31.790  0.0968  0.3466 -0.2586
 1349BOLB   NC132353  10.836  11.334  38.310  0.1197  0.2641 -0.0536
 1349BOLB   PO132354  10.646  11.364  37.967  0.2684  0.2227 -0.0174
 1349BOLB   GL132355  10.347  10.985  38.168 -0.1821  0.5980  0.1184
 1349BOLB   GL232356  10.555  10.924  38.461 -0.0411 -0.0021  0.1003
 1349BOLB   C1A32357   9.945  10.983  38.399 -0.1001  0.1107 -0.0265
 1349BOLB   C2A32358   9.556  10.834  38.592 -0.2751  0.2768  0.1465
 1349BOLB   C3A32359   9.309  10.623  38.885  0.3143  0.0269 -0.4092
 1349BOLB   C4A32360   9.253  10.342  39.313  0.0719 -0.1761  0.1300
 1349BOLB   C1B32361  10.350  11.146  38.782  0.0413  0.0422  0.1117
 1349BOLB   C2B32362  10.161  11.456  38.966 -0.0082 -0.1670 -0.2844
 1349BOLB   C3B32363   9.845  11.389  39.266 -0.3000 -0.1385 -0.0117
 1349BOLB   C4B32364   9.712  11.242  39.694  0.3469  0.0302 -0.0807
 1349BOLB   NC232365   8.254  10.710  41.331  0.0841 -0.3060 -0.0268
 1349BOLB   PO232366   8.247  10.359  41.027  0.0633  0.2154 -0.2950
 1349BOLB   GL332367   8.649  10.360  41.001 -0.1413 -0.1555 -0.1065
 1349BOLB   GL432368   8.583  10.713  40.940  0.2365 -0.1729  0.0965
 1349BOLB   C1C32369   8.869  10.555  40.632 -0.1278  0.0510  0.1553
 1349BOLB   C2C32370   9.155  10.564  40.420 -0.0065 -0.0593  0.3320
 1349BOLB   C3C32371   9.380  10.369  40.173 -0.2052 -0.2162 -0.1424
 1349BOLB   C4C32372   9.336  10.211  39.749 -0.1600 -0.0241  0.1267
 1349BOLB   C1D32373   8.519  10.880  40.504 -0.2838 -0.0603 -0.0615
 1349BOLB   C2D32374   8.804  10.838  40.171  0.1499  0.1183 -0.2525
 1349BOLB   C3D32375   9.329  10.867  39.954  0.0750 -0.3895 -0.2270
 1349BOLB   C4D32376   9.589  10.655  39.802  0.0992 -0.3197  0.1375
 1350BOLB   NC132377  22.864  14.172  35.486  0.0592  0.0834  0.0774
 1350BOLB   PO132378  22.907  14.242  35.889  0.0259 -0.1346  0.0480
 1350BOLB   GL132379  23.261  14.453  36.109  0.2438 -0.2077  0.5458
 1350BOLB   GL232380  23.479  14.694  35.920  0.0112  0.3654  0.2123
 1350BOLB   C1A32381  23.571  14.593  36.418 -0.0573 -0.2143  0.0557
 1350BOLB   C2A32382  23.535  15.009  36.651 -0.1609  0.2663  0.1902
 1350BOLB   C3A32383  23.607  15.304  36.971 -0.2741  0.1290 -0.1627
 1350BOLB   C4A32384  23.767  15.485  37.316 -0.2987  0.0664 -0.2643
 1350BOLB   C1B32385  23.922  14.813  36.077 -0.1656  0.0248 -0.0840
 1350BOLB   C2B32386  24.158  15.138  36.157 -0.0209 -0.0057 -0.0378
 1350BOLB   C3B32387  24.524  15.328  36.017  0.2374  0.0395  0.3088
 1350BOLB   C4B32388  24.921  15.240  36.111 -0.0807  0.2602 -0.0445
 1350BOLB   NC232389  25.404  16.982  37.546  0.0180  0.0487 -0.2418
 1350BOLB   PO232390  25.250  16.881  37.148 -0.1329 -0.3060 -0.0447
 1350BOLB   GL332391  24.903  16.854  37.258 -0.1131 -0.4747  0.1500
 1350BOLB   GL432392  24.850  16.528  37.229 -0.1032  0.1625 -0.2272
 1350BOLB   C1C32393  24.535  16.619  37.622  0.5112  0.0140  0.2441
 1350BOLB   C2C32394  24.366  16.157  37.707  0.5109 -0.2473  0.0095
 1350BOLB   C3C32395  24.284  15.799  37.833  0.1061 -0.1578  0.1588
 1350BOLB   C4C32396  24.036  15.481  37.604 -0.0064 -0.0718 -0.2706
 1350BOLB   C1D32397  24.418  16.533  37.131 -0.0558  0.0344  0.1410
 1350BOLB   C2D32398  24.212  16.172  36.914 -0.0580 -0.1275  0.1040
 1350BOLB   C3D32399  23.855  16.162  36.614 -0.1010 -0.0775 -0.3674
 1350BOLB   C4D32400  23.461  16.000  36.438  0.1530 -0.0742 -0.0944
 1351BOLB   NC132401  23.486  21.710  33.638  0.0786 -0.1011 -0.0158
 1351BOLB   PO132402  23.108  21.598  33.377 -0.5389  0.0721  0.1988
 1351BOLB   GL132403  22.826  21.293  33.325  0.1415 -0.0673  0.3970
 1351BOLB   GL232404  22.533  21.335  33.302  0.4922  0.0975 -0.0732
 1351BOLB   C1A32405  22.763  20.884  33.140 -0.2268 -0.3532  0.2180
 1351BOLB   C2A32406  22.620  20.395  33.083 -0.1820  0.1604 -0.0806
 1351BOLB   C3A32407  22.675  20.090  33.347 -0.3167  0.1444  0.2178
 1351BOLB   C4A32408  22.540  19.926  33.698  0.0012  0.1703 -0.1477
 1351BOLB   C1B32409  22.154  21.160  33.473 -0.3976  0.1148  0.2962
 1351BOLB   C2B32410  21.832  20.821  33.274 -0.2627  0.0523 -0.1695
 1351BOLB   C3B32411  21.501  20.586  33.237  0.1079 -0.0824  0.0044
 1351BOLB   C4B32412  21.156  20.435  33.107  0.2829 -0.0452 -0.0247
 1351BOLB   NC232413  22.754  21.890  33.520  0.4113  0.1985 -0.3290
 1351BOLB   PO232414  22.407  21.782  33.585  0.1933  0.3780 -0.2275
 1351BOLB   GL332415  22.244  21.428  33.915  0.5338 -0.1374 -0.0780
 1351BOLB   GL432416  21.910  21.511  33.800 -0.0494 -0.5241  0.2409
 1351BOLB   C1C32417  21.974  21.046  33.967 -0.1999 -0.2146 -0.0007
 1351BOLB   C2C32418  22.045  20.788  34.192  0.1590  0.0230 -0.0606
 1351BOLB   C3C32419  21.938  20.419  34.069 -0.4418  0.2305 -0.1498
 1351BOLB   C4C32420  22.125  20.012  33.936 -0.0386  0.0620 -0.0722
 1351BOLB   C1D32421  21.730  21.367  33.328  0.0927  0.0985  0.3373
 1351BOLB   C2D32422  21.909  21.388  33.012 -0.2676 -0.1321  0.1753
 1351BOLB   C3D32423  22.226  21.142  32.929  0.1178  0.0481  0.0850
 1351BOLB   C4D32424  22.268  20.738  33.084  0.2341  0.0398 -0.2335
 1352BOLB   NC132425  10.760  13.595  37.439  0.0675  0.0384  0.1544
 1352BOLB   PO132426  10.543  13.599  37.856  0.1018  0.1962 -0.0355
 1352BOLB   GL132427  10.246  13.545  38.140  0.1419  0.0040  0.0726
 1352BOLB   GL232428  10.052  13.262  38.216 -0.3797 -0.4328  0.0678
 1352BOLB   C1A32429  10.252  13.810  38.586  0.0788 -0.2086 -0.1227
 1352BOLB   C2A32430   9.829  13.791  38.893 -0.0281  0.1635 -0.1016
 1352BOLB   C3A32431   9.476  13.645  39.199 -0.1036  0.1280  0.4421
 1352BOLB   C4A32432   9.187  13.569  39.020  0.2010 -0.0174 -0.1746
 1352BOLB   C1B32433   9.877  13.374  38.568 -0.2185  0.4474 -0.2645
 1352BOLB   C2B32434   9.549  13.307  38.811 -0.1486 -0.1615 -0.1668
 1352BOLB   C3B32435   9.333  13.102  39.182  0.3573  0.1707  0.2262
 1352BOLB   C4B32436   9.454  12.833  39.523  0.0963 -0.1060 -0.1623
 1352BOLB   NC232437   7.506  14.215  40.556 -0.2563  0.0386 -0.3338
 1352BOLB   PO232438   7.802  14.064  40.834  0.1390 -0.1908 -0.2860
 1352BOLB   GL332439   7.837  13.698  40.545 -0.1787 -0.0498  0.0739
 1352BOLB   GL432440   7.619  13.809  40.227 -0.2513  0.2576 -0.0460
 1352BOLB   C1C32441   8.052  13.416  40.314  0.0091  0.0762 -0.2755
 1352BOLB   C2C32442   8.271  13.141  40.063  0.0575  0.0557 -0.0801
 1352BOLB   C3C32443   8.502  13.244  39.721  0.2047 -0.2443 -0.2356
 1352BOLB   C4C32444   8.807  13.305  39.268  0.0608  0.3372 -0.2492
 1352BOLB   C1D32445   8.033  14.055  40.156 -0.1426 -0.0374 -0.0539
 1352BOLB   C2D32446   8.352  14.197  39.942  0.2409  0.1265  0.0338
 1352BOLB   C3D32447   8.635  14.171  39.600 -0.0752  0.1936 -0.3361
 1352BOLB   C4D32448   8.909  14.348  39.611 -0.0926  0.1615 -0.1679
 1353BOLB   NC132449  14.127   4.897  31.332 -0.0311  0.2243  0.1143
 1353BOLB   PO132450  14.284   4.466  31.132 -0.1677  0.1543 -0.3137
 1353BOLB   GL132451  14.393   4.121  31.144 -0.1664 -0.0472 -0.0356
 1353BOLB   GL232452  14.760   4.215  31.162  0.3373  0.1229 -0.1211
 1353BOLB   C1A32453  14.526   3.684  31.109 -0.0485 -0.2604  0.1418
 1353BOLB   C2A32454  14.649   3.267  31.107  0.1832 -0.2200 -0.3721
 1353BOLB   C3A32455  14.757   2.887  31.215 -0.1523  0.3244  0.1538
 1353BOLB   C4A32456  14.581   2.518  31.056 -0.0649  0.1079  0.2343
 1353BOLB   C1B32457  14.903   3.859  31.433  0.1599  0.0574  0.0069
 1353BOLB   C2B32458  14.652   3.457  31.568 -0.0709 -0.1335  0.2316
 1353BOLB   C3B32459  14.355   3.132  31.721  0.5825  0.1086 -0.0015
 1353BOLB   C4B32460  13.925   3.057  31.965  0.1444 -0.4959 -0.0053
 1353BOLB   NC232461  14.111   0.353  31.464 -0.1601  0.2118 -0.5222
 1353BOLB   PO232462  14.273   0.310  31.007 -0.0417  0.0546 -0.0488
 1353BOLB   GL332463  14.404   0.659  30.971 -0.1198  0.1405  0.0298
 1353BOLB   GL432464  14.750   0.595  30.976  0.1906  0.2150 -0.0143
 1353BOLB   C1C32465  14.321   1.128  30.845  0.3628 -0.0158  0.0383
 1353BOLB   C2C32466  14.057   1.442  30.769  0.0132 -0.1016 -0.4002
 1353BOLB   C3C32467  14.078   1.849  30.802 -0.3447 -0.0762 -0.3824
 1353BOLB   C4C32468  14.304   2.229  30.953 -0.0089  0.2866  0.0092
 1353BOLB   C1D32469  14.791   0.788  31.394 -0.0335 -0.0768  0.1746
 1353BOLB   C2D32470  14.913   1.134  31.432 -0.1375 -0.0748 -0.0008
 1353BOLB   C3D32471  15.200   1.429  31.242 -0.3211  0.2123  0.1538
 1353BOLB   C4D32472  15.226   1.717  30.929 -0.2131 -0.2237  0.2016
 1354BOLB   NC132473  22.184  13.602  36.599  0.1624 -0.1856 -0.0099
 1354BOLB   PO132474  21.905  13.624  36.968 -0.3921 -0.0484 -0.1220
 1354BOLB   GL132475  22.060  13.592  37.363 -0.1360  0.0495  0.1144
 1354BOLB   GL232476  22.009  13.704  37.648 -0.1306  0.1426  0.1640
 1354BOLB   C1A32477  22.454  13.843  37.569  0.1451  0.1027 -0.3206
 1354BOLB   C2A32478  22.432  14.027  37.955  0.0522  0.2270 -0.1563
 1354BOLB   C3A32479  22.640  14.248  38.318  0.2607 -0.1372 -0.1390
 1354BOLB   C4A32480  22.887  14.470  38.666 -0.1315 -0.1355  0.3612
 1354BOLB   C1B32481  22.135  13.639  38.142 -0.0846  0.0649 -0.3575
 1354BOLB   C2B32482  22.245  13.781  38.533 -0.2759 -0.2611 -0.0747
 1354BOLB   C3B32483  22.400  13.652  38.885  0.0323  0.1519  0.1481
 1354BOLB   C4B32484  22.664  13.364  38.751 -0.0780  0.0182  0.1191
 1354BOLB   NC232485  24.450  16.048  39.318 -0.0183 -0.1496 -0.1765
 1354BOLB   PO232486  24.746  15.771  39.546 -0.1597  0.2659 -0.1728
 1354BOLB   GL332487  24.359  15.577  39.403 -0.0516  0.1489  0.1988
 1354BOLB   GL432488  24.021  15.643  39.390 -0.0608 -0.2879 -0.2403
 1354BOLB   C1C32489  24.147  15.131  39.293 -0.2185  0.1313  0.2227
 1354BOLB   C2C32490  24.077  14.903  38.909 -0.1079  0.0551 -0.0237
 1354BOLB   C3C32491  23.690  14.674  38.732  0.4100  0.0908 -0.1439
 1354BOLB   C4C32492  23.264  14.529  38.812  0.1668  0.0001  0.1192
 1354BOLB   C1D32493  23.775  15.484  39.161 -0.0879  0.1539  0.3407
 1354BOLB   C2D32494  23.384  15.559  38.964 -0.0875 -0.0537 -0.0863
 1354BOLB   C3D32495  23.158  15.331  38.660  0.3676 -0.0638 -0.0402
 1354BOLB   C4D32496  23.131  14.941  38.485 -0.0340  0.1611 -0.2235
 1355BOLB   NC132497  21.608   7.047  33.781 -0.2398 -0.4809  0.2154
 1355BOLB   PO132498  21.770   7.485  33.685 -0.2298 -0.2921 -0.1457
 1355BOLB   GL132499  22.136   7.433  33.902 -0.2176 -0.2134 -0.1089
 1355BOLB   GL232500  22.270   7.652  34.022  0.0600  0.4692  0.2806
 1355BOLB   C1A32501  22.383   7.048  33.927 -0.1622 -0.0461 -0.2247
 1355BOLB   C2A32502  22.675   6.770  34.085 -0.0935 -0.1028  0.0728
 1355BOLB   C3A32503  23.070   6.673  33.970 -0.3091  0.3054  0.0210
 1355BOLB   C4A32504  23.477   6.456  33.876  0.0302  0.0152 -0.1771
 1355BOLB   C1B32505  22.692   7.448  34.037  0.1239  0.2187 -0.0422
 1355BOLB   C2B32506  23.023   7.147  33.923  0.0693 -0.0367  0.2872
 1355BOLB   C3B32507  23.423   6.985  33.781 -0.0363 -0.0110 -0.1611
 1355BOLB   C4B32508  23.691   6.756  33.444  0.2041  0.1097 -0.2380
 1355BOLB   NC232509  25.425   5.985  35.309 -0.1914  0.1237 -0.0107
 1355BOLB   PO232510  25.685   6.292  35.000  0.0405  0.4025  0.2805
 1355BOLB   GL332511  25.246   6.306  34.865  0.2571  0.1294  0.1267
 1355BOLB   GL432512  25.002   6.223  35.096 -0.0364  0.0303  0.1554
 1355BOLB   C1C32513  24.865   6.383  34.567 -0.0702  0.1226 -0.0498
 1355BOLB   C2C32514  24.491   6.470  34.383  0.0124  0.0621  0.1995
 1355BOLB   C3C32515  24.232   6.582  34.027  0.0978 -0.0374  0.0517
 1355BOLB   C4C32516  23.853   6.625  33.877 -0.1696  0.0587 -0.1745
 1355BOLB   C1D32517  24.789   6.478  35.424  0.1428 -0.2336  0.2410
 1355BOLB   C2D32518  24.410   6.442  35.699  0.1019  0.1780  0.0455
 1355BOLB   C3D32519  24.193   6.044  35.668  0.1084 -0.1593  0.1976
 1355BOLB   C4D32520  23.977   5.637  35.688 -0.2291 -0.1930  0.2308
 1356BOLB   NC132521   9.508   8.398  33.780 -0.2049  0.2427 -0.2582
 1356BOLB   PO132522   9.706   8.212  33.372  0.1270 -0.3789 -0.0101
 1356BOLB   GL132523   9.467   7.925  33.561  0.1426 -0.0259 -0.1547
 1356BOLB   GL232524   9.488   7.720  33.431  0.1914  0.1783  0.1350
 1356BOLB   C1A32525   9.020   7.816  33.601 -0.0740  0.0634 -0.4054
 1356BOLB   C2A32526   8.679   7.755  33.910  0.0093  0.0427  0.2333
 1356BOLB   C3A32527   8.321   7.369  33.897  0.0850 -0.1617 -0.3180
 1356BOLB   C4A32528   8.238   7.006  34.113 -0.0837  0.0972 -0.1921
 1356BOLB   C1B32529   9.349   7.350  33.640  0.0567  0.2147 -0.2693
 1356BOLB   C2B32530   9.112   6.938  33.768  0.3028  0.0689  0.1030
 1356BOLB   C3B32531   8.898   6.559  33.757 -0.2142 -0.0970 -0.1071
 1356BOLB   C4B32532   8.487   6.471  33.982  0.1772  0.2557 -0.2318
 1356BOLB   NC232533   6.000   6.607  36.147 -0.0242  0.0415 -0.0033
 1356BOLB   PO232534   6.140   6.703  35.740 -0.1772  0.0448 -0.0040
 1356BOLB   GL332535   6.545   6.783  35.519 -0.2803 -0.0490 -0.1265
 1356BOLB   GL432536   6.599   7.091  35.479  0.2783 -0.0785  0.0415
 1356BOLB   C1C32537   7.010   6.799  35.435 -0.1980 -0.2372 -0.1620
 1356BOLB   C2C32538   7.374   6.823  35.055 -0.0292 -0.2993 -0.2217
 1356BOLB   C3C32539   7.592   6.884  34.665 -0.0805  0.1285  0.0895
 1356BOLB   C4C32540   8.020   6.842  34.417  0.0322  0.2096  0.0693
 1356BOLB   C1D32541   6.867   7.149  35.087 -0.2155 -0.2615 -0.0775
 1356BOLB   C2D32542   7.141   7.370  34.873  0.1281 -0.2663  0.1439
 1356BOLB   C3D32543   7.502   7.351  34.571  0.2770 -0.3214 -0.2861
 1356BOLB   C4D32544   7.806   7.284  34.316  0.0902  0.1845  0.3109
 1357BOLB   NC132545  20.179   6.821  36.562 -0.0542 -0.0786  0.1714
 1357BOLB   PO132546  19.840   6.625  36.649  0.0101 -0.0977 -0.1275
 1357BOLB   GL132547  20.040   6.403  36.864 -0.0955 -0.1854 -0.3031
 1357BOLB   GL232548  19.970   6.013  36.771 -0.1120 -0.3314  0.1935
 1357BOLB   C1A32549  20.296   6.424  37.141  0.2594 -0.4487 -0.1245
 1357BOLB   C2A32550  20.523   6.334  37.537 -0.3314 -0.0643  0.0028
 1357BOLB   C3A32551  20.463   6.018  37.802 -0.3446  0.0346  0.3169
 1357BOLB   C4A32552  20.275   5.703  37.613  0.3052 -0.1116  0.0021
 1357BOLB   C1B32553  20.205   5.944  37.098  0.1042 -0.1609  0.1114
 1357BOLB   C2B32554  20.047   6.166  37.535  0.0549  0.0808 -0.1791
 1357BOLB   C3B32555  19.816   6.100  38.025 -0.2527  0.2185  0.0762
 1357BOLB   C4B32556  19.632   5.827  38.343 -0.0394  0.0185 -0.0679
 1357BOLB   NC232557  21.172   3.265  38.662  0.0353 -0.0892 -0.1514
 1357BOLB   PO232558  20.968   3.368  38.313  0.3198 -0.2158  0.0341
 1357BOLB   GL332559  20.845   3.711  38.068  0.1590 -0.0955 -0.1375
 1357BOLB   GL432560  20.598   3.816  38.021  0.1626 -0.1688 -0.0516
 1357BOLB   C1C32561  20.938   4.128  37.829  0.1238 -0.0280  0.1460
 1357BOLB   C2C32562  20.744   4.491  37.656 -0.5173  0.2132  0.0281
 1357BOLB   C3C32563  20.434   4.833  37.703 -0.0801  0.1995  0.0378
 1357BOLB   C4C32564  20.360   5.212  37.798  0.1723 -0.0579 -0.0626
 1357BOLB   C1D32565  20.483   4.181  38.155  0.1371  0.0343  0.1567
 1357BOLB   C2D32566  20.207   4.465  38.061  0.2087 -0.0654  0.1460
 1357BOLB   C3D32567  20.012   4.838  38.032 -0.3116  0.0113  0.1126
 1357BOLB   C4D32568  19.826   5.128  37.770 -0.1361 -0.2730 -0.2021
 1358BOLB   NC132569  17.676   9.383  38.317  0.0318 -0.1058  0.0098
 1358BOLB   PO132570  17.322   9.207  38.560  0.1108 -0.1980  0.0023
 1358BOLB   GL132571  17.412   8.817  38.804  0.2605 -0.0529  0.1638
 1358BOLB   GL232572  17.575   8.557  38.817  0.2432  0.0105 -0.1021
 1358BOLB   C1A32573  17.451   8.697  39.301  0.0456  0.2989 -0.2711
 1358BOLB   C2A32574  17.377   8.488  39.689 -0.2469 -0.4235 -0.2352
 1358BOLB   C3A32575  17.519   8.013  39.701 -0.1731 -0.2684 -0.0352
 1358BOLB   C4A32576  17.513   7.732  40.006 -0.3415 -0.1415 -0.0236
 1358BOLB   C1B32577  17.359   8.230  39.141 -0.0328  0.0581 -0.1857
 1358BOLB   C2B32578  17.146   7.943  39.242  0.0306  0.2196  0.0134
 1358BOLB   C3B32579  17.178   7.580  39.580  0.1508  0.1955 -0.2476
 1358BOLB   C4B32580  17.077   7.530  40.037  0.1150  0.0966  0.2222
 1358BOLB   NC232581  17.657   5.759  42.378  0.4354 -0.0401 -0.1959
 1358BOLB   PO232582  17.888   6.022  42.080  0.3698  0.0562  0.0738
 1358BOLB   GL332583  17.799   6.292  41.671 -0.2299 -0.3387 -0.1651
 1358BOLB   GL432584  17.998   6.545  41.541  0.1404 -0.2516 -0.1364
 1358BOLB   C1C32585  17.640   6.399  41.212  0.1481 -0.1584 -0.0789
 1358BOLB   C2C32586  17.523   6.747  40.892 -0.0993  0.0092  0.0275
 1358BOLB   C3C32587  17.552   7.089  40.626  0.2019 -0.3383 -0.4163
 1358BOLB   C4C32588  17.611   7.422  40.254 -0.1769 -0.0641 -0.5275
 1358BOLB   C1D32589  17.935   6.807  41.096  0.0005 -0.1414 -0.4102
 1358BOLB   C2D32590  18.038   7.091  40.760  0.4285 -0.0176 -0.0666
 1358BOLB   C3D32591  18.308   7.404  40.552  0.2423  0.1912  0.1078
 1358BOLB   C4D32592  18.118   7.519  40.088 -0.2632  0.2061 -0.0904
 1359BOLB   NC132593   9.478  18.204  26.362  0.2476  0.1860 -0.0605
 1359BOLB   PO132594   9.295  17.822  26.263  0.1560  0.0488 -0.1600
 1359BOLB   GL132595   8.968  18.026  26.126  0.0307 -0.1550  0.1068
 1359BOLB   GL232596   8.743  17.802  26.095 -0.1850 -0.1898 -0.1933
 1359BOLB   C1A32597   8.693  18.252  25.870 -0.2147 -0.2285  0.0074
 1359BOLB   C2A32598   8.247  18.457  25.673  0.1338  0.0763 -0.0596
 1359BOLB   C3A32599   7.915  18.496  25.540  0.2274 -0.0359  0.0012
 1359BOLB   C4A32600   7.755  18.701  25.077 -0.2528 -0.2094  0.2538
 1359BOLB   C1B32601   8.291  17.884  26.018 -0.0550 -0.1183  0.1377
 1359BOLB   C2B32602   8.019  17.686  26.071  0.0053 -0.0182 -0.2483
 1359BOLB   C3B32603   7.626  17.792  25.939  0.1889  0.0692 -0.1763
 1359BOLB   C4B32604   7.204  17.859  26.030 -0.2846 -0.2495  0.1512
 1359BOLB   NC232605   7.476  19.688  22.793 -0.1581  0.0726 -0.2663
 1359BOLB   PO232606   7.104  19.598  23.181 -0.1680  0.2866  0.0556
 1359BOLB   GL332607   7.355  19.354  23.471 -0.3743 -0.1219  0.1310
 1359BOLB   GL432608   7.447  19.589  23.702  0.0598  0.1979 -0.0552
 1359BOLB   C1C32609   7.471  19.015  23.745 -0.5484  0.0798  0.1945
 1359BOLB   C2C32610   7.359  19.026  24.197 -0.0574 -0.0614 -0.2472
 1359BOLB   C3C32611   7.301  19.017  24.646 -0.2042  0.2234 -0.2306
 1359BOLB   C4C32612   7.581  18.960  24.881 -0.0600 -0.1619 -0.1591
 1359BOLB   C1D32613   7.701  19.372  24.023  0.2137 -0.1208  0.0444
 1359BOLB   C2D32614   7.859  19.061  24.373 -0.1340  0.0671 -0.1530
 1359BOLB   C3D32615   8.092  18.711  24.693 -0.1212  0.0746 -0.3514
 1359BOLB   C4D32616   8.111  18.301  25.009  0.2575  0.1347 -0.1314
 1360BOLB   NC132617  10.624   6.581  30.772 -0.1047  0.1223 -0.0861
 1360BOLB   PO132618  10.505   6.587  31.328  0.1289 -0.0694 -0.1895
 1360BOLB   GL132619  10.156   6.309  31.291 -0.0734 -0.0360 -0.1168
 1360BOLB   GL232620   9.844   6.321  31.200  0.1703 -0.2334  0.2373
 1360BOLB   C1A32621   9.897   5.947  31.527  0.0495 -0.1385  0.1130
 1360BOLB   C2A32622   9.833   5.499  31.531  0.0068 -0.1616 -0.0280
 1360BOLB   C3A32623   9.758   5.058  31.589 -0.1985  0.0181 -0.1289
 1360BOLB   C4A32624   9.757   4.689  31.845 -0.0150  0.0524 -0.2344
 1360BOLB   C1B32625   9.480   6.202  30.921 -0.0184 -0.0395 -0.1847
 1360BOLB   C2B32626   9.135   5.962  31.062 -0.1286 -0.1574  0.4890
 1360BOLB   C3B32627   8.743   5.733  31.049 -0.2764 -0.1038 -0.0343
 1360BOLB   C4B32628   8.434   5.486  31.137  0.1742  0.0385  0.2455
 1360BOLB   NC232629   8.037   3.242  31.611 -0.1634 -0.1410  0.2548
 1360BOLB   PO232630   8.349   2.924  31.749 -0.0187  0.0677  0.0503
 1360BOLB   GL332631   8.571   3.220  31.786  0.1312  0.2650  0.0527
 1360BOLB   GL432632   8.826   3.216  31.949 -0.1727  0.4080  0.2500
 1360BOLB   C1C32633   8.597   3.600  32.137 -0.1532  0.0918  0.4386
 1360BOLB   C2C32634   8.893   3.963  32.145  0.2349 -0.0028  0.2178
 1360BOLB   C3C32635   9.216   4.023  31.907 -0.1548 -0.1351  0.1798
 1360BOLB   C4C32636   9.486   4.260  31.850 -0.5470 -0.0549 -0.0186
 1360BOLB   C1D32637   8.874   3.652  31.751  0.3581 -0.3056  0.0174
 1360BOLB   C2D32638   8.823   3.794  31.277 -0.2171 -0.1560  0.0389
 1360BOLB   C3D32639   8.746   4.129  31.081 -0.0898  0.1773  0.1437
 1360BOLB   C4D32640   8.862   4.581  31.071 -0.0750 -0.0919  0.1510
 1361BOLB   NC132641  13.545   9.943  21.301  0.0565  0.2384 -0.1635
 1361BOLB   PO132642  13.346  10.396  21.305  0.1630 -0.2116 -0.0608
 1361BOLB   GL132643  13.081  10.089  21.123 -0.1684 -0.3520 -0.2376
 1361BOLB   GL232644  13.214   9.843  20.950 -0.3036  0.1273 -0.1673
 1361BOLB   C1A32645  12.631  10.008  20.814 -0.0195 -0.0552  0.0568
 1361BOLB   C2A32646  12.467   9.795  20.491 -0.0276 -0.1431  0.1535
 1361BOLB   C3A32647  12.496   9.621  20.207 -0.1766  0.0842  0.3963
 1361BOLB   C4A32648  12.346   9.588  19.816  0.1912 -0.2987  0.1585
 1361BOLB   C1B32649  13.314  10.083  20.605 -0.3868  0.1384  0.0452
 1361BOLB   C2B32650  13.439  10.241  20.171 -0.0891  0.1026 -0.0034
 1361BOLB   C3B32651  13.596  10.436  19.770  0.0905 -0.1690  0.0182
 1361BOLB   C4B32652  13.823  10.719  19.598 -0.0359 -0.1030  0.2852
 1361BOLB   NC232653  10.620   9.009  18.410 -0.0127 -0.1170  0.5119
 1361BOLB   PO232654  10.948   8.699  18.485 -0.3848  0.0607  0.1212
 1361BOLB   GL332655  11.047   8.902  18.748  0.2304  0.0465  0.0208
 1361BOLB   GL432656  10.896   9.051  18.914  0.0691  0.0529 -0.2269
 1361BOLB   C1C32657  11.426   9.177  19.005 -0.1341 -0.5165  0.1542
 1361BOLB   C2C32658  11.789   9.453  19.104  0.1577 -0.1508  0.0631
 1361BOLB   C3C32659  12.173   9.471  19.133 -0.0181  0.3239  0.1869
 1361BOLB   C4C32660  12.447   9.429  19.446 -0.1662  0.2206 -0.1073
 1361BOLB   C1D32661  11.022   9.064  19.301  0.0673 -0.1760  0.0278
 1361BOLB   C2D32662  11.230   9.020  19.576 -0.1830 -0.2472  0.0749
 1361BOLB   C3D32663  11.314   8.937  20.046  0.2147 -0.1626  0.0181
 1361BOLB   C4D32664  11.403   8.782  20.537 -0.2797 -0.2897 -0.0601
 1362BOLB   NC132665  23.681  17.388  25.575  0.0630  0.0169 -0.0616
 1362BOLB   PO132666  23.847  17.290  26.004  0.1691  0.0617 -0.0962
 1362BOLB   GL132667  23.603  17.570  26.181 -0.1085  0.1927 -0.2220
 1362BOLB   GL232668  23.545  17.509  26.626  0.1827  0.2796  0.0185
 1362BOLB   C1A32669  23.339  17.880  26.209  0.0312  0.1995  0.0447
 1362BOLB   C2A32670  22.958  17.816  26.422 -0.1300  0.0645  0.0377
 1362BOLB   C3A32671  22.798  17.670  26.810 -0.0123  0.1237  0.0105
 1362BOLB   C4A32672  22.598  17.787  27.101  0.0206  0.2594  0.1715
 1362BOLB   C1B32673  23.245  17.270  26.421  0.0139  0.0807 -0.1065
 1362BOLB   C2B32674  22.890  17.323  26.448 -0.3819  0.0870  0.0263
 1362BOLB   C3B32675  22.431  17.276  26.556 -0.3296  0.4881  0.0496
 1362BOLB   C4B32676  22.068  17.025  26.692 -0.0428  0.0127  0.2066
 1362BOLB   NC232677  23.644  20.010  26.310 -0.1608 -0.3926 -0.2032
 1362BOLB   PO232678  23.096  20.024  26.266  0.1223 -0.0388 -0.1141
 1362BOLB   GL332679  22.887  19.687  26.593 -0.5258 -0.0445  0.3896
 1362BOLB   GL432680  22.554  19.695  26.665  0.0196 -0.2116  0.1280
 1362BOLB   C1C32681  22.787  19.359  26.939 -0.1155 -0.1294  0.1116
 1362BOLB   C2C32682  22.576  18.993  27.105  0.0765 -0.1847 -0.1990
 1362BOLB   C3C32683  22.370  18.645  27.042  0.0390  0.2103  0.1345
 1362BOLB   C4C32684  22.439  18.157  27.256  0.0629 -0.0492  0.1546
 1362BOLB   C1D32685  22.194  19.541  26.508 -0.0107  0.0348 -0.4407
 1362BOLB   C2D32686  21.810  19.450  26.706 -0.1289  0.2943  0.2016
 1362BOLB   C3D32687  21.467  19.572  26.962  0.3305 -0.2576  0.4640
 1362BOLB   C4D32688  21.448  19.784  27.403  0.1194  0.1089  0.0782
 1363BOLB   NC132689  18.816   4.889  27.634  0.1264  0.2393 -0.1660
 1363BOLB   PO132690  18.941   4.463  27.780 -0.0514  0.0884 -0.3050
 1363BOLB   GL132691  18.947   3.974  27.778  0.1580 -0.1571 -0.4283
 1363BOLB   GL232692  18.765   3.922  27.963 -0.0339  0.0250 -0.0283
 1363BOLB   C1A32693  19.081   3.567  27.747  0.0415 -0.0664 -0.0973
 1363BOLB   C2A32694  18.952   3.296  27.476 -0.0256 -0.2022  0.2085
 1363BOLB   C3A32695  19.015   2.998  27.200 -0.3499  0.0228  0.1787
 1363BOLB   C4A32696  19.149   2.639  26.937 -0.1576 -0.0018  0.1747
 1363BOLB   C1B32697  18.627   3.439  27.947  0.0893  0.3202  0.1381
 1363BOLB   C2B32698  18.641   3.087  27.841  0.0152  0.0743 -0.0843
 1363BOLB   C3B32699  18.762   2.813  28.209 -0.2234  0.2891 -0.2433
 1363BOLB   C4B32700  18.651   2.555  28.521 -0.0183 -0.1925 -0.1332
 1363BOLB   NC232701  20.120   0.248  27.377 -0.0937  0.1439  0.0346
 1363BOLB   PO232702  19.744   0.385  27.104  0.3884 -0.2421  0.0601
 1363BOLB   GL332703  19.609   0.766  27.169 -0.0075  0.1506  0.1693
 1363BOLB   GL432704  19.569   0.634  27.494 -0.2049  0.2036 -0.2081
 1363BOLB   C1C32705  19.761   1.180  27.003 -0.2567 -0.2415  0.0352
 1363BOLB   C2C32706  19.618   1.502  26.653 -0.1252 -0.0708  0.0053
 1363BOLB   C3C32707  19.458   1.928  26.534 -0.1968  0.0901  0.0866
 1363BOLB   C4C32708  19.345   2.232  26.827  0.0294  0.0075 -0.3728
 1363BOLB   C1D32709  19.562   0.913  27.815 -0.0080  0.0518  0.1959
 1363BOLB   C2D32710  19.668   1.188  27.544 -0.3511  0.1961  0.0358
 1363BOLB   C3D32711  19.723   1.645  27.627  0.2502  0.2313  0.0029
 1363BOLB   C4D32712  19.940   1.827  27.868 -0.0610 -0.3140 -0.1065
 1364BOLB   NC132713  15.111  19.632  36.494 -0.1935  0.2919  0.0889
 1364BOLB   PO132714  14.855  19.621  36.169 -0.0122  0.3802 -0.0952
 1364BOLB   GL132715  14.738  19.895  36.537 -0.1543  0.1796  0.0492
 1364BOLB   GL232716  14.834  20.120  36.558  0.0494  0.1419 -0.1294
 1364BOLB   C1A32717  14.509  20.302  36.876 -0.2374  0.1230  0.1754
 1364BOLB   C2A32718  14.362  20.729  37.001 -0.3051  0.0331 -0.0258
 1364BOLB   C3A32719  14.169  21.164  36.769  0.0686  0.0566  0.0322
 1364BOLB   C4A32720  14.207  21.535  36.549  0.1891  0.0797 -0.1150
 1364BOLB   C1B32721  15.118  20.202  36.874 -0.2513 -0.0574  0.3651
 1364BOLB   C2B32722  15.179  20.327  37.250 -0.1226  0.1609 -0.1069
 1364BOLB   C3B32723  15.629  20.189  37.437 -0.0384 -0.2825  0.0457
 1364BOLB   C4B32724  15.715  20.123  37.877 -0.3373  0.2075  0.0859
 1364BOLB   NC232725  14.350  23.882  36.999 -0.1258 -0.1137 -0.1717
 1364BOLB   PO232726  13.974  23.744  37.210  0.0566  0.0320  0.1473
 1364BOLB   GL332727  14.064  23.329  37.059  0.1758  0.1053  0.0524
 1364BOLB   GL432728  14.343  23.369  37.143  0.0263 -0.2367 -0.0166
 1364BOLB   C1C32729  14.014  22.883  36.963 -0.0958 -0.2676  0.0876
 1364BOLB   C2C32730  14.104  22.588  36.885 -0.1201  0.3655  0.1198
 1364BOLB   C3C32731  14.308  22.309  36.561  0.2549  0.0422  0.3433
 1364BOLB   C4C32732  14.244  21.898  36.480 -0.1104  0.0539 -0.1658
 1364BOLB   C1D32733  14.531  22.974  37.037 -0.0137  0.0493 -0.0314
 1364BOLB   C2D32734  14.555  22.746  36.680  0.0787  0.3390  0.0415
 1364BOLB   C3D32735  14.863  22.419  36.667 -0.0765 -0.0655  0.0691
 1364BOLB   C4D32736  15.166  22.196  36.502  0.2491  0.0384  0.0327
 1365BOLB   NC132737  23.769  11.434  33.338  0.0593 -0.1703 -0.2497
 1365BOLB   PO132738  23.636  11.027  33.559 -0.2385 -0.0038 -0.0404
 1365BOLB   GL132739  24.096  10.910  33.405  0.3356 -0.3923  0.0746
 1365BOLB   GL232740  24.073  10.776  33.027  0.5056  0.1117  0.1004
 1365BOLB   C1A32741  24.461  10.731  33.450  0.4658 -0.0027  0.3369
 1365BOLB   C2A32742  24.796  10.870  33.661 -0.1029 -0.0238  0.0256
 1365BOLB   C3A32743  25.123  10.785  33.979  0.1972 -0.4816  0.3804
 1365BOLB   C4A32744  25.459  10.473  34.311 -0.0073 -0.2595 -0.3350
 1365BOLB   C1B32745  24.559  10.743  32.955  0.1091 -0.0045  0.0360
 1365BOLB   C2B32746  24.912  10.721  33.168 -0.0985 -0.0143  0.1876
 1365BOLB   C3B32747  25.171  10.518  33.407 -0.0205  0.0903  0.0996
 1365BOLB   C4B32748  25.272  10.122  33.673 -0.3550 -0.2069  0.1843
 1365BOLB   NC232749  26.385   8.956  36.354  0.0159 -0.1200 -0.0081
 1365BOLB   PO232750  26.587   8.890  35.937 -0.2279  0.2100 -0.0589
 1365BOLB   GL332751  26.374   9.237  35.782 -0.0516  0.0701 -0.2835
 1365BOLB   GL432752  26.100   9.118  35.805 -0.0792 -0.1715 -0.1538
 1365BOLB   C1C32753  26.249   9.617  35.576  0.1762 -0.1294  0.0815
 1365BOLB   C2C32754  26.037   9.906  35.387  0.2631  0.1392  0.1224
 1365BOLB   C3C32755  26.031  10.220  35.095 -0.0812 -0.1518  0.0756
 1365BOLB   C4C32756  25.786  10.431  34.680 -0.4115  0.1758  0.1788
 1365BOLB   C1D32757  25.706   8.991  35.941  0.5200 -0.0478  0.0642
 1365BOLB   C2D32758  25.269   8.984  35.899  0.1668  0.2769  0.2400
 1365BOLB   C3D32759  24.874   9.166  35.683  0.0877  0.0510 -0.2289
 1365BOLB   C4D32760  24.454   9.341  35.610 -0.1488  0.0677 -0.4453
 1366BOLB   NC132761  22.194  15.280  29.615 -0.0553 -0.0550  0.2860
 1366BOLB   PO132762  22.231  14.943  29.551  0.1947 -0.0882 -0.0479
 1366BOLB   GL132763  22.645  15.157  29.472 -0.0186  0.1843  0.0238
 1366BOLB   GL232764  22.894  15.058  29.663 -0.1012  0.0560  0.1274
 1366BOLB   C1A32765  22.778  15.500  29.169 -0.2644 -0.3782 -0.4467
 1366BOLB   C2A32766  23.162  15.772  29.187 -0.0246  0.0695  0.2479
 1366BOLB   C3A32767  23.479  15.991  29.194  0.1182  0.0172  0.1499
 1366BOLB   C4A32768  23.833  16.272  29.044  0.0684 -0.0485  0.0626
 1366BOLB   C1B32769  23.189  15.310  29.437 -0.3246  0.0859 -0.1017
 1366BOLB   C2B32770  23.568  15.429  29.233  0.0736  0.2105  0.1736
 1366BOLB   C3B32771  23.853  15.669  29.169 -0.1937  0.1881  0.4197
 1366BOLB   C4B32772  24.149  15.878  29.005  0.1592 -0.0565 -0.0246
 1366BOLB   NC232773  26.228  16.893  28.419 -0.2123 -0.0882 -0.1185
 1366BOLB   PO232774  25.972  16.750  28.196  0.2177  0.0715  0.1553
 1366BOLB   GL332775  25.539  17.002  28.318 -0.3461 -0.1834 -0.0735
 1366BOLB   GL432776  25.581  17.188  28.563 -0.1655  0.1635  0.1327
 1366BOLB   C1C32777  25.132  16.815  28.555  0.4326 -0.1647 -0.0174
 1366BOLB   C2C32778  24.998  16.389  28.731 -0.4551 -0.2282  0.1687
 1366BOLB   C3C32779  24.592  16.221  28.761  0.1557 -0.0648 -0.1915
 1366BOLB   C4C32780  24.210  16.441  28.967 -0.1511  0.2140  0.0287
 1366BOLB   C1D32781  25.234  17.325  28.746  0.0878  0.4099 -0.1572
 1366BOLB   C2D32782  24.802  17.482  28.721 -0.2441 -0.0941 -0.2048
 1366BOLB   C3D32783  24.406  17.321  28.943 -0.0877 -0.1072 -0.2246
 1366BOLB   C4D32784  24.274  17.471  29.252 -0.0310 -0.0969 -0.0879
 1367BOLB   NC132785   9.503  10.235  25.266  0.1038 -0.0493  0.3672
 1367BOLB   PO132786   9.895  10.510  24.989 -0.2246  0.0520  0.0487
 1367BOLB   GL132787   9.481  10.421  24.804  0.1348  0.2741  0.0238
 1367BOLB   GL232788   9.542  10.615  24.568 -0.0261 -0.2722  0.2634
 1367BOLB   C1A32789   9.175  10.360  24.523  0.2586  0.0566  0.1128
 1367BOLB   C2A32790   8.810  10.195  24.550 -0.0843  0.5176 -0.0116
 1367BOLB   C3A32791   8.413  10.223  24.355 -0.0071 -0.0187 -0.0864
 1367BOLB   C4A32792   8.050  10.376  24.248 -0.1838  0.2220  0.2422
 1367BOLB   C1B32793   9.159  10.787  24.279  0.2837  0.4205 -0.3466
 1367BOLB   C2B32794   8.735  10.696  24.133 -0.2121  0.1377 -0.0087
 1367BOLB   C3B32795   8.574  10.272  23.896 -0.4744 -0.1556  0.2158
 1367BOLB   C4B32796   8.191  10.220  23.773 -0.2648 -0.5052 -0.0812
 1367BOLB   NC232797   5.818   9.298  22.427  0.1200  0.0224  0.0123
 1367BOLB   PO232798   6.093   9.536  22.683  0.3019  0.0430 -0.0273
 1367BOLB   GL332799   6.417   9.723  22.968 -0.0576  0.0665 -0.0346
 1367BOLB   GL432800   6.317   9.685  23.312 -0.0208 -0.0932  0.3521
 1367BOLB   C1C32801   6.800   9.632  23.315 -0.0266 -0.2002 -0.5540
 1367BOLB   C2C32802   7.171   9.835  23.540  0.1603 -0.2383 -0.1517
 1367BOLB   C3C32803   7.253  10.087  23.942  0.0297  0.0334  0.3746
 1367BOLB   C4C32804   7.610  10.286  24.214  0.0336  0.3042 -0.2067
 1367BOLB   C1D32805   6.400   9.508  23.676 -0.0016  0.1073 -0.3644
 1367BOLB   C2D32806   6.434   9.562  24.018 -0.2046  0.1236  0.0785
 1367BOLB   C3D32807   6.333   9.973  24.139  0.0036 -0.3693  0.3807
 1367BOLB   C4D32808   6.539  10.272  24.485 -0.2132  0.0382  0.0704
 1368BOLB   NC132809  18.360  18.947  35.235  0.1818  0.1483  0.1552
 1368BOLB   PO132810  18.380  19.197  34.872 -0.2079 -0.0414 -0.0884
 1368BOLB   GL132811  18.406  19.459  35.160 -0.1913 -0.1678  0.2717
 1368BOLB   GL232812  18.353  19.363  35.530 -0.0983  0.2836  0.0101
 1368BOLB   C1A32813  18.747  19.745  35.290 -0.3889 -0.1759  0.0986
 1368BOLB   C2A32814  18.858  20.130  35.507  0.1541 -0.0401  0.0544
 1368BOLB   C3A32815  19.183  20.300  35.810  0.0476 -0.0059 -0.0167
 1368BOLB   C4A32816  19.125  20.667  36.038 -0.0949  0.2326 -0.3626
 1368BOLB   C1B32817  18.506  19.765  35.781  0.0311 -0.0521 -0.1063
 1368BOLB   C2B32818  18.292  19.797  36.141 -0.1528  0.0025 -0.1238
 1368BOLB   C3B32819  18.055  19.687  36.439 -0.1179 -0.3356  0.2172
 1368BOLB   C4B32820  17.678  19.621  36.245 -0.0575 -0.0901 -0.3309
 1368BOLB   NC232821  20.495  22.021  37.313  0.0954  0.1180 -0.4645
 1368BOLB   PO232822  20.556  22.255  36.968  0.1635  0.0221  0.1667
 1368BOLB   GL332823  20.130  22.103  36.939 -0.2464  0.1452  0.2235
 1368BOLB   GL432824  20.033  21.812  37.047 -0.0258  0.1922  0.2182
 1368BOLB   C1C32825  19.880  22.026  36.594  0.0998 -0.0551 -0.0150
 1368BOLB   C2C32826  19.515  21.846  36.350 -0.2669  0.3527 -0.0336
 1368BOLB   C3C32827  19.180  21.596  36.068  0.1959  0.2394 -0.1331
 1368BOLB   C4C32828  19.197  21.123  36.033  0.4012 -0.2759  0.1796
 1368BOLB   C1D32829  19.729  21.462  37.180 -0.2302 -0.0805 -0.0019
 1368BOLB   C2D32830  19.663  21.056  37.184  0.2554 -0.0498 -0.1343
 1368BOLB   C3D32831  19.561  20.721  36.835  0.2298 -0.2491  0.0737
 1368BOLB   C4D32832  19.219  20.663  36.489 -0.1447  0.1350 -0.4681
 1369BOLB   NC132833  10.013   8.397  31.769 -0.0890 -0.0626  0.3163
 1369BOLB   PO132834   9.507   8.292  31.947 -0.0964  0.0089  0.1399
 1369BOLB   GL132835   9.065   8.085  31.927  0.2831  0.0706 -0.1401
 1369BOLB   GL232836   9.092   7.976  32.260  0.3726  0.0581 -0.0251
 1369BOLB   C1A32837   8.614   8.079  32.234  0.0848  0.0589 -0.0496
 1369BOLB   C2A32838   8.146   7.925  32.394 -0.2234  0.1869  0.1657
 1369BOLB   C3A32839   7.877   7.798  32.778 -0.0686 -0.0826  0.0287
 1369BOLB   C4A32840   7.687   7.400  32.964 -0.2412 -0.0989 -0.0699
 1369BOLB   C1B32841   8.969   7.590  32.247 -0.1651  0.3107  0.0202
 1369BOLB   C2B32842   8.755   7.205  32.218  0.0779  0.0504  0.0601
 1369BOLB   C3B32843   8.377   7.033  32.150 -0.1474  0.3093 -0.0992
 1369BOLB   C4B32844   8.032   6.783  32.125 -0.2312 -0.2013  0.0372
 1369BOLB   NC232845   5.977   5.842  32.743  0.1121  0.4002  0.1651
 1369BOLB   PO232846   6.127   5.701  33.080  0.5976 -0.0373  0.2479
 1369BOLB   GL332847   6.523   5.987  33.044 -0.1084 -0.1304  0.4822
 1369BOLB   GL432848   6.771   6.010  33.181 -0.4625 -0.1096  0.4155
 1369BOLB   C1C32849   6.684   6.363  32.728 -0.2108 -0.3310  0.0949
 1369BOLB   C2C32850   6.649   6.800  32.594 -0.2049 -0.0927 -0.2150
 1369BOLB   C3C32851   6.932   7.193  32.537  0.1996  0.0468  0.2139
 1369BOLB   C4C32852   7.295   7.323  32.779 -0.3637  0.1178 -0.0313
 1369BOLB   C1D32853   7.120   6.354  33.139 -0.0575 -0.1444  0.1180
 1369BOLB   C2D32854   7.530   6.422  32.992 -0.3610  0.3323  0.2283
 1369BOLB   C3D32855   8.001   6.578  33.012  0.1006 -0.3833  0.0602
 1369BOLB   C4D32856   8.372   6.731  33.080  0.1716 -0.0159  0.0487
 1370BOLB   NC132857  15.201  25.151  28.766  0.2739  0.0748 -0.2049
 1370BOLB   PO132858  15.088  25.211  28.382  0.0331  0.2415  0.0235
 1370BOLB   GL132859  15.278  24.771  28.355  0.0640 -0.2695 -0.1760
 1370BOLB   GL232860  15.586  24.703  28.458 -0.1535 -0.1919  0.0515
 1370BOLB   C1A32861  15.326  24.259  28.455  0.0056  0.3406 -0.3690
 1370BOLB   C2A32862  15.063  23.933  28.602 -0.1796 -0.0527  0.0987
 1370BOLB   C3A32863  15.212  23.487  28.703 -0.0385  0.0733  0.3489
 1370BOLB   C4A32864  15.156  23.155  28.320 -0.1113 -0.2161  0.2443
 1370BOLB   C1B32865  15.325  24.554  28.844 -0.0086 -0.1022 -0.2675
 1370BOLB   C2B32866  15.125  24.281  29.046  0.0344 -0.0002  0.1758
 1370BOLB   C3B32867  15.165  23.787  29.148 -0.0987 -0.2714  0.0494
 1370BOLB   C4B32868  15.203  23.516  29.485  0.2822 -0.3181  0.1475
 1370BOLB   NC232869  15.256  25.111  27.906 -0.2298  0.0766  0.2707
 1370BOLB   PO232870  15.338  25.162  27.415 -0.0952 -0.1360 -0.0375
 1370BOLB   GL332871  15.606  24.743  27.493 -0.1386  0.1743 -0.2081
 1370BOLB   GL432872  15.638  24.819  27.239  0.0778  0.0557  0.0635
 1370BOLB   C1C32873  15.693  24.315  27.402 -0.2181 -0.0398 -0.0681
 1370BOLB   C2C32874  15.678  23.830  27.515 -0.0094 -0.2877 -0.1295
 1370BOLB   C3C32875  15.657  23.527  27.836 -0.1557 -0.2030 -0.4270
 1370BOLB   C4C32876  15.304  23.260  27.919  0.1941  0.0048 -0.1590
 1370BOLB   C1D32877  15.652  24.535  26.987 -0.0163  0.0316 -0.2800
 1370BOLB   C2D32878  15.400  24.334  26.585  0.0890 -0.5248  0.1590
 1370BOLB   C3D32879  14.890  24.309  26.573 -0.2886 -0.1559  0.0259
 1370BOLB   C4D32880  14.397  24.414  26.601 -0.0314 -0.0942  0.2188
 1371BOLB   NC132881  14.939  18.473  37.044 -0.1835 -0.0004 -0.1758
 1371BOLB   PO132882  14.976  18.912  36.827  0.4658 -0.1130 -0.0585
 1371BOLB   GL132883  14.977  19.228  36.983 -0.2059 -0.2274 -0.1232
 1371BOLB   GL232884  14.908  19.510  36.917  0.0795 -0.0667 -0.3424
 1371BOLB   C1A32885  14.940  19.580  37.411 -0.0114  0.1020  0.3186
 1371BOLB   C2A32886  15.064  19.810  37.647 -0.1073 -0.1129  0.1683
 1371BOLB   C3A32887  15.201  20.281  37.777  0.1308 -0.1954  0.2381
 1371BOLB   C4A32888  15.290  20.680  37.860 -0.0331  0.2145  0.4018
 1371BOLB   C1B32889  14.815  19.909  37.111 -0.0193 -0.0260  0.2344
 1371BOLB   C2B32890  14.748  20.209  37.362 -0.6265 -0.1580  0.3918
 1371BOLB   C3B32891  14.744  20.182  37.771  0.2913 -0.0387 -0.3351
 1371BOLB   C4B32892  14.864  20.228  38.191 -0.1774 -0.1339 -0.3006
 1371BOLB   NC232893  15.814  22.854  38.939 -0.2792  0.4729  0.2768
 1371BOLB   PO232894  15.319  22.765  39.044 -0.0255 -0.1783  0.0009
 1371BOLB   GL332895  15.526  22.435  38.821 -0.1787  0.2519 -0.0490
 1371BOLB   GL432896  15.631  22.039  39.024  0.3799 -0.2095 -0.1202
 1371BOLB   C1C32897  15.455  22.133  38.437  0.1379  0.2764 -0.1401
 1371BOLB   C2C32898  15.598  21.701  38.284  0.2191  0.1970  0.1293
 1371BOLB   C3C32899  15.627  21.310  38.122  0.2673  0.1066 -0.0747
 1371BOLB   C4C32900  15.385  20.975  38.112 -0.0648  0.1265  0.0041
 1371BOLB   C1D32901  15.936  22.082  38.611 -0.0586 -0.0840 -0.1798
 1371BOLB   C2D32902  16.122  21.812  38.255 -0.0609 -0.0740  0.0398
 1371BOLB   C3D32903  15.967  21.631  37.864 -0.1251  0.0776 -0.2959
 1371BOLB   C4D32904  15.482  21.638  37.818 -0.1595  0.1607  0.0534
 1372BOLB   NC132905  14.237   4.074  19.726 -0.4633 -0.0337 -0.2301
 1372BOLB   PO132906  14.245   4.499  19.634 -0.0894 -0.1356 -0.1864
 1372BOLB   GL132907  14.394   4.861  19.673  0.1356  0.0128 -0.0957
 1372BOLB   GL232908  14.601   4.847  19.955 -0.1501  0.0430 -0.0970
 1372BOLB   C1A32909  14.824   5.093  19.591 -0.0135 -0.2776 -0.0651
 1372BOLB   C2A32910  14.994   5.401  19.494  0.3744  0.0337 -0.0857
 1372BOLB   C3A32911  14.977   5.838  19.440  0.0296 -0.0140 -0.0901
 1372BOLB   C4A32912  15.003   6.184  19.765  0.1121 -0.3641  0.1726
 1372BOLB   C1B32913  14.663   5.256  20.098 -0.0957  0.2763  0.0030
 1372BOLB   C2B32914  14.539   5.615  20.324  0.3962 -0.1002 -0.0851
 1372BOLB   C3B32915  14.436   6.077  20.473 -0.1001  0.0595 -0.0406
 1372BOLB   C4B32916  14.149   6.419  20.411  0.2466  0.1334 -0.1379
 1372BOLB   NC232917  13.123   5.643  18.222  0.1621 -0.2213 -0.1227
 1372BOLB   PO232918  13.431   5.637  18.573 -0.0210 -0.3421  0.0015
 1372BOLB   GL332919  13.410   5.862  18.966  0.1103  0.0043 -0.4677
 1372BOLB   GL432920  13.178   5.955  19.085 -0.0910 -0.0950  0.2673
 1372BOLB   C1C32921  13.689   5.861  19.216 -0.1653 -0.2072 -0.2438
 1372BOLB   C2C32922  13.817   6.172  19.510  0.0340 -0.2221 -0.1474
 1372BOLB   C3C32923  14.105   6.425  19.720 -0.1690  0.3963 -0.1401
 1372BOLB   C4C32924  14.590   6.298  19.895  0.0336 -0.2666  0.0471
 1372BOLB   C1D32925  13.305   6.002  19.535 -0.2939 -0.3438 -0.0730
 1372BOLB   C2D32926  13.574   5.856  19.809 -0.1644 -0.0658 -0.0924
 1372BOLB   C3D32927  13.988   5.532  19.831  0.2024 -0.3433 -0.1368
 1372BOLB   C4D32928  14.391   5.397  19.710 -0.0300 -0.1728 -0.0453
 1373BOLB   NC132929  11.923   5.203  30.319  0.1124 -0.1764  0.0787
 1373BOLB   PO132930  11.993   5.361  29.919 -0.2326  0.0164  0.0943
 1373BOLB   GL132931  11.732   5.120  29.588  0.3081  0.0566 -0.0748
 1373BOLB   GL232932  11.881   4.892  29.321 -0.0410  0.2257  0.1218
 1373BOLB   C1A32933  11.696   4.533  29.652  0.0119 -0.0372  0.0174
 1373BOLB   C2A32934  11.593   4.172  29.471  0.2628 -0.3225  0.1268
 1373BOLB   C3A32935  11.273   4.005  29.215  0.0956 -0.0544 -0.0629
 1373BOLB   C4A32936  10.956   3.785  29.308 -0.0274  0.0568  0.0040
 1373BOLB   C1B32937  11.869   4.467  29.205  0.3940  0.0188  0.2636
 1373BOLB   C2B32938  11.659   4.232  28.956 -0.0224  0.2575  0.2698
 1373BOLB   C3B32939  11.279   4.033  28.703  0.1910  0.1171  0.5017
 1373BOLB   C4B32940  11.239   4.188  28.197 -0.1045  0.0187  0.4179
 1373BOLB   NC232941   9.929   1.840  28.244  0.1030 -0.0312  0.1136
 1373BOLB   PO232942   9.771   1.896  28.741 -0.0700  0.1297  0.2270
 1373BOLB   GL332943  10.168   2.164  28.966  0.0312  0.1304  0.2176
 1373BOLB   GL432944  10.452   2.071  28.948  0.0971  0.0114  0.1020
 1373BOLB   C1C32945  10.278   2.522  29.085  0.2437  0.0714 -0.1646
 1373BOLB   C2C32946  10.414   2.928  29.115 -0.0009 -0.0281 -0.4071
 1373BOLB   C3C32947  10.379   3.384  29.299  0.0945  0.0069 -0.1111
 1373BOLB   C4C32948  10.554   3.712  29.421 -0.2365  0.2295 -0.3433
 1373BOLB   C1D32949  10.444   2.457  28.651 -0.0610  0.0180 -0.0326
 1373BOLB   C2D32950  10.564   2.870  28.648 -0.0609 -0.0851 -0.1557
 1373BOLB   C3D32951  11.044   2.985  28.873  0.1576 -0.3928  0.0117
 1373BOLB   C4D32952  11.287   3.105  29.112 -0.1634  0.2902  0.0061
 1374BOLB   NC132953  17.956  17.727  37.425 -0.3008 -0.0465  0.0687
 1374BOLB   PO132954  17.551  17.906  37.501 -0.1826 -0.4820  0.1327
 1374BOLB   GL132955  17.774  18.155  37.831 -0.3826 -0.4079  0.3317
 1374BOLB   GL232956  18.001  17.874  37.902 -0.0992 -0.1273  0.2859
 1374BOLB   C1A32957  17.676  18.238  38.305  0.0079 -0.1422 -0.0379
 1374BOLB   C2A32958  17.380  18.465  38.550 -0.3300  0.1310  0.1044
 1374BOLB   C3A32959  17.182  18.572  38.936 -0.4313 -0.0031  0.1207
 1374BOLB   C4A32960  16.831  18.542  39.189  0.3071  0.2087  0.3163
 1374BOLB   C1B32961  18.179  17.865  38.334 -0.1489 -0.0704  0.2103
 1374BOLB   C2B32962  18.108  18.071  38.729  0.0535  0.0675 -0.1140
 1374BOLB   C3B32963  17.939  18.530  38.855  0.0302  0.6274 -0.1113
 1374BOLB   C4B32964  17.643  18.823  38.760 -0.2378  0.0999  0.1826
 1374BOLB   NC232965  17.506  20.874  40.542  0.2669 -0.1428  0.0998
 1374BOLB   PO232966  17.126  20.702  40.486 -0.5456  0.2248 -0.3387
 1374BOLB   GL332967  16.869  20.478  40.161 -0.1207  0.4832 -0.0091
 1374BOLB   GL432968  16.520  20.454  40.141 -0.0912 -0.0125 -0.0807
 1374BOLB   C1C32969  16.842  20.089  40.069 -0.0267 -0.0815  0.1388
 1374BOLB   C2C32970  16.543  19.611  40.123  0.0819  0.1470 -0.0220
 1374BOLB   C3C32971  16.495  19.221  39.844 -0.1636 -0.1662  0.0134
 1374BOLB   C4C32972  16.556  18.872  39.447  0.2978 -0.0779  0.2641
 1374BOLB   C1D32973  16.213  20.356  39.768  0.1501  0.0523 -0.0913
 1374BOLB   C2D32974  16.326  20.285  39.403  0.2330 -0.1518  0.0598
 1374BOLB   C3D32975  16.345  19.978  39.108 -0.0244  0.0674 -0.2713
 1374BOLB   C4D32976  16.538  19.668  38.816 -0.1394 -0.2657  0.2022
 1375BOLB   NC132977  21.782   6.625  26.430  0.2042  0.0635  0.1286
 1375BOLB   PO132978  22.114   6.440  26.601  0.2285 -0.1335 -0.0386
 1375BOLB   GL132979  22.508   6.315  26.480 -0.5099  0.2286  0.0940
 1375BOLB   GL232980  22.442   5.880  26.416  0.0254 -0.0215 -0.0657
 1375BOLB   C1A32981  22.947   6.261  26.161 -0.0720 -0.0243  0.0338
 1375BOLB   C2A32982  23.395   6.107  26.214  0.1167 -0.2012  0.0012
 1375BOLB   C3A32983  23.590   5.795  26.441  0.1031 -0.0334  0.1449
 1375BOLB   C4A32984  23.910   5.427  26.537 -0.1230 -0.3223 -0.1534
 1375BOLB   C1B32985  22.632   5.722  26.757  0.1720 -0.2377  0.2728
 1375BOLB   C2B32986  22.778   5.363  26.834  0.2882  0.0888  0.2319
 1375BOLB   C3B32987  23.012   5.306  27.209 -0.0085  0.1414 -0.0980
 1375BOLB   C4B32988  23.304   5.013  27.273 -0.0476  0.1996  0.2342
 1375BOLB   NC232989  24.912   3.632  27.515  0.2630  0.1894  0.1574
 1375BOLB   PO232990  24.731   3.458  27.232  0.1417  0.4310  0.0021
 1375BOLB   GL332991  24.567   3.737  27.019  0.1272 -0.0362  0.0405
 1375BOLB   GL432992  24.428   3.644  26.773  0.2169  0.2270  0.1731
 1375BOLB   C1C32993  24.467   4.147  26.919 -0.1247  0.0822  0.0365
 1375BOLB   C2C32994  24.732   4.536  26.922 -0.0657  0.0043  0.0924
 1375BOLB   C3C32995  24.632   4.897  26.802 -0.1186  0.1502 -0.2493
 1375BOLB   C4C32996  24.229   5.057  26.649  0.0909 -0.0096  0.0806
 1375BOLB   C1D32997  24.022   3.805  26.898 -0.2326  0.7068  0.0727
 1375BOLB   C2D32998  24.156   3.880  27.404  0.4087  0.2883  0.1192
 1375BOLB   C3D32999  24.022   4.028  27.731  0.2010  0.5912  0.0314
 1375BOLB   C4D33000  24.265   4.254  28.070  0.0644 -0.0613  0.2844
 1376BOLB   NC133001  22.163  11.759  26.214 -0.1110  0.3455  0.1185
 1376BOLB   PO133002  22.625  11.933  26.439  0.1009 -0.1005  0.3369
 1376BOLB   GL133003  23.018  11.995  26.235  0.4467  0.3313 -0.0028
 1376BOLB   GL233004  23.126  12.300  26.156  0.1895  0.1807 -0.1333
 1376BOLB   C1A33005  23.077  11.842  25.834  0.1234 -0.1284 -0.0543
 1376BOLB   C2A33006  23.349  11.966  25.512  0.2987  0.4650 -0.1781
 1376BOLB   C3A33007  23.751  11.914  25.382 -0.1109 -0.1652  0.2429
 1376BOLB   C4A33008  24.170  12.101  25.391 -0.1166  0.0825 -0.0816
 1376BOLB   C1B33009  23.498  12.055  25.958 -0.0394  0.2061 -0.1036
 1376BOLB   C2B33010  23.874  12.101  25.808  0.1304 -0.2319 -0.0396
 1376BOLB   C3B33011  24.391  12.096  25.924 -0.1308  0.0888  0.3325
 1376BOLB   C4B33012  24.591  11.913  26.336 -0.2427 -0.1878 -0.0655
 1376BOLB   NC233013  26.780  12.583  24.444 -0.3125 -0.2450 -0.0809
 1376BOLB   PO233014  26.569  12.885  24.178  0.1190 -0.2523 -0.1232
 1376BOLB   GL333015  26.303  12.749  24.503 -0.1381 -0.1550  0.0591
 1376BOLB   GL433016  26.404  12.825  24.791  0.1667 -0.0907  0.2594
 1376BOLB   C1C33017  25.865  12.633  24.805 -0.1142 -0.0687 -0.1224
 1376BOLB   C2C33018  25.295  12.706  24.971 -0.1886 -0.3234 -0.0705
 1376BOLB   C3C33019  24.833  12.511  25.046  0.2275  0.0755 -0.1291
 1376BOLB   C4C33020  24.581  12.280  25.502  0.1618 -0.3352 -0.1781
 1376BOLB   C1D33021  26.091  12.909  25.161 -0.0318  0.2255  0.0756
 1376BOLB   C2D33022  26.155  12.784  25.582  0.0440 -0.1275  0.6031
 1376BOLB   C3D33023  26.161  12.727  25.947 -0.1134  0.1886 -0.2388
 1376BOLB   C4D33024  26.208  12.279  26.195 -0.2824 -0.0954  0.1941
 1377BOLB   NC133025  12.548  17.761  22.828  0.0657 -0.1352 -0.2886
 1377BOLB   PO133026  12.155  17.619  22.881 -0.0937  0.1824  0.0250
 1377BOLB   GL133027  12.120  17.846  22.437  0.1474 -0.3520 -0.0411
 1377BOLB   GL233028  12.396  17.879  22.282  0.0847  0.2410 -0.2130
 1377BOLB   C1A33029  11.826  18.001  22.106  0.2631 -0.0701 -0.0863
 1377BOLB   C2A33030  11.415  17.919  21.918  0.4671  0.0123  0.0066
 1377BOLB   C3A33031  11.025  18.266  21.944  0.2915  0.3361  0.0653
 1377BOLB   C4A33032  10.794  18.334  21.534 -0.2502 -0.0929 -0.0872
 1377BOLB   C1B33033  12.314  18.159  21.940 -0.3256  0.0291  0.1189
 1377BOLB   C2B33034  12.272  18.419  21.616 -0.2857 -0.1355 -0.1254
 1377BOLB   C3B33035  12.146  18.575  21.222  0.2778  0.0863 -0.1881
 1377BOLB   C4B33036  11.968  18.914  21.004 -0.0916 -0.0688 -0.1720
 1377BOLB   NC233037   9.639  19.494  19.851 -0.4590 -0.1609 -0.0593
 1377BOLB   PO233038  10.095  19.670  19.922  0.1286 -0.1217 -0.3373
 1377BOLB   GL333039  10.493  19.375  19.981  0.2384 -0.0489  0.0365
 1377BOLB   GL433040  10.748  19.520  19.954  0.1136 -0.0494  0.0063
 1377BOLB   C1C33041  10.525  18.948  20.060  0.1652 -0.0829  0.3282
 1377BOLB   C2C33042  10.858  18.814  20.426  0.2519  0.2481  0.0582
 1377BOLB   C3C33043  10.998  18.637  20.846  0.0717 -0.2347  0.3294
 1377BOLB   C4C33044  10.762  18.299  21.085 -0.0816 -0.2901  0.0275
 1377BOLB   C1D33045  10.828  19.347  20.338 -0.0214 -0.2407  0.0405
 1377BOLB   C2D33046  11.119  19.122  20.698 -0.1967 -0.2177  0.1614
 1377BOLB   C3D33047  11.305  18.894  21.081 -0.0436  0.1924 -0.0052
 1377BOLB   C4D33048  11.702  18.894  21.453  0.0026  0.2252  0.0001
 1378BOLB   NC133049   8.289  15.002  25.996 -0.0097 -0.0017 -0.4565
 1378BOLB   PO133050   8.494  14.807  25.696  0.1547 -0.2755  0.2098
 1378BOLB   GL133051   8.096  14.834  25.476  0.2158 -0.1788  0.2403
 1378BOLB   GL233052   8.061  14.678  25.194  0.0037 -0.1882 -0.1519
 1378BOLB   C1A33053   7.656  14.952  25.246 -0.1300 -0.1025 -0.4117
 1378BOLB   C2A33054   7.274  15.178  25.152  0.0760 -0.3263 -0.4662
 1378BOLB   C3A33055   7.144  15.277  24.804  0.2573  0.1780  0.0867
 1378BOLB   C4A33056   6.919  15.554  24.503 -0.2799  0.0133 -0.2111
 1378BOLB   C1B33057   7.720  14.604  24.916 -0.2049  0.2246 -0.3440
 1378BOLB   C2B33058   7.397  14.841  24.824  0.0432 -0.2818  0.3418
 1378BOLB   C3B33059   7.002  14.822  24.764  0.2858  0.0935 -0.0978
 1378BOLB   C4B33060   6.734  14.462  24.704 -0.0671  0.0849  0.0447
 1378BOLB   NC233061   5.214  17.099  24.012 -0.2124 -0.1272  0.1101
 1378BOLB   PO233062   5.193  17.410  24.273  0.0932  0.1772  0.1015
 1378BOLB   GL333063   5.564  17.066  24.343  0.3010  0.2377 -0.0866
 1378BOLB   GL433064   5.886  17.072  24.373 -0.1046 -0.0848 -0.2190
 1378BOLB   C1C33065   5.598  16.632  24.330  0.1909  0.1570 -0.1061
 1378BOLB   C2C33066   6.008  16.446  24.166  0.0747 -0.1738 -0.0055
 1378BOLB   C3C33067   6.211  16.055  24.285 -0.2203 -0.0758 -0.2668
 1378BOLB   C4C33068   6.452  15.626  24.339 -0.0537  0.0507 -0.2049
 1378BOLB   C1D33069   5.797  17.287  24.859 -0.0784  0.2126  0.1219
 1378BOLB   C2D33070   5.992  17.167  25.291 -0.1506  0.0255  0.0846
 1378BOLB   C3D33071   6.389  16.909  25.345 -0.4249 -0.3510  0.0504
 1378BOLB   C4D33072   6.801  16.816  25.525 -0.0680 -0.0045 -0.0736
 1379BOLB   NC133073   4.341   7.264  30.172 -0.0209 -0.0512  0.2622
 1379BOLB   PO133074   4.498   7.352  29.821  0.4918  0.0425  0.2462
 1379BOLB   GL133075   4.749   7.643  30.113  0.3355 -0.2510 -0.2843
 1379BOLB   GL233076   4.789   7.368  30.337 -0.1468 -0.0437  0.1693
 1379BOLB   C1A33077   5.154   7.782  30.298  0.2305  0.1022  0.0722
 1379BOLB   C2A33078   5.478   8.131  30.212 -0.5138 -0.3958 -0.0853
 1379BOLB   C3A33079   5.610   8.307  29.768  0.0311  0.1790  0.1562
 1379BOLB   C4A33080   5.770   8.235  29.262 -0.1266  0.1617  0.2691
 1379BOLB   C1B33081   5.197   7.416  29.984  0.1559 -0.2297  0.0574
 1379BOLB   C2B33082   5.418   7.741  29.768 -0.0102 -0.0156 -0.2232
 1379BOLB   C3B33083   5.353   8.018  29.449  0.1863 -0.0268  0.0079
 1379BOLB   C4B33084   5.318   8.186  29.097 -0.1694 -0.1692  0.0897
 1379BOLB   NC233085   3.892   8.733  28.063  0.2957 -0.2021  0.1539
 1379BOLB   PO233086   4.130   8.321  27.940 -0.2893 -0.1256  0.0199
 1379BOLB   GL333087   4.576   8.304  28.195 -0.0309 -0.4617 -0.3020
 1379BOLB   GL433088   4.616   8.593  28.144  0.2852 -0.0098 -0.2893
 1379BOLB   C1C33089   4.981   8.302  28.100  0.1611 -0.2875  0.0189
 1379BOLB   C2C33090   5.348   8.415  28.272 -0.0419 -0.4371 -0.0847
 1379BOLB   C3C33091   5.594   8.098  28.451  0.0898 -0.3526  0.0280
 1379BOLB   C4C33092   5.770   8.058  28.840 -0.2094 -0.0386 -0.0536
 1379BOLB   C1D33093   4.719   9.021  27.997  0.0328  0.0799 -0.0526
 1379BOLB   C2D33094   4.622   9.510  28.025  0.2182  0.1432  0.0059
 1379BOLB   C3D33095   4.705   9.839  28.361  0.2165 -0.2432 -0.0994
 1379BOLB   C4D33096   5.091  10.048  28.440 -0.1696  0.3345  0.0211
 1380BOLB   NC133097   8.661  14.315  35.395  0.0162 -0.0083 -0.0365
 1380BOLB   PO133098   8.339  14.218  35.152  0.1150 -0.0050  0.3034
 1380BOLB   GL133099   8.201  14.199  35.572 -0.5542 -0.3026 -0.1689
 1380BOLB   GL233100   8.422  14.036  35.727 -0.1612 -0.0102 -0.1952
 1380BOLB   C1A33101   7.713  14.248  35.661  0.1121 -0.0985  0.1843
 1380BOLB   C2A33102   7.273  14.385  35.979 -0.1791 -0.0828  0.0344
 1380BOLB   C3A33103   6.964  14.476  36.321  0.3228  0.0295 -0.2186
 1380BOLB   C4A33104   6.671  14.495  36.666  0.1401 -0.0710 -0.2200
 1380BOLB   C1B33105   8.092  13.934  36.036 -0.1461  0.2024  0.0678
 1380BOLB   C2B33106   7.619  14.020  36.178  0.0127  0.1313 -0.0870
 1380BOLB   C3B33107   7.132  13.925  36.200  0.0745 -0.0715  0.5031
 1380BOLB   C4B33108   6.976  14.009  35.803 -0.0003  0.1795  0.0065
 1380BOLB   NC233109   5.702  14.007  38.980  0.4011 -0.1795  0.4085
 1380BOLB   PO233110   5.371  14.105  38.698 -0.1860  0.1448  0.2290
 1380BOLB   GL333111   5.759  13.892  38.483 -0.0124 -0.0665  0.2833
 1380BOLB   GL433112   6.065  13.962  38.512 -0.0078 -0.1630  0.1000
 1380BOLB   C1C33113   5.992  14.028  38.031  0.1777  0.1682  0.0196
 1380BOLB   C2C33114   6.211  14.110  37.706 -0.2250 -0.0890 -0.0830
 1380BOLB   C3C33115   6.451  14.029  37.254 -0.3162 -0.0623 -0.3589
 1380BOLB   C4C33116   6.468  14.310  36.861  0.2217  0.1356  0.0866
 1380BOLB   C1D33117   6.395  13.775  38.345 -0.0775  0.0265  0.0292
 1380BOLB   C2D33118   6.572  13.760  37.903  0.2437  0.1020  0.0457
 1380BOLB   C3D33119   6.906  13.737  37.673  0.1494  0.0197 -0.1993
 1380BOLB   C4D33120   7.283  13.707  37.442  0.2582  0.0153 -0.3560
 1381BOLB   NC133121  23.507  11.702  32.633 -0.3589  0.1241 -0.1402
 1381BOLB   PO133122  23.779  11.483  32.832  0.1337  0.0155  0.0590
 1381BOLB   GL133123  24.197  11.247  32.804  0.0306  0.0176  0.1897
 1381BOLB   GL233124  24.200  11.265  33.112 -0.0485 -0.0202  0.2537
 1381BOLB   C1A33125  24.584  11.224  32.733 -0.1855  0.0063  0.1935
 1381BOLB   C2A33126  25.029  11.008  32.740 -0.1224 -0.3515  0.5395
 1381BOLB   C3A33127  25.448  10.899  32.682 -0.1549  0.1109 -0.0886
 1381BOLB   C4A33128  25.812  11.065  32.460 -0.4540 -0.0884 -0.2278
 1381BOLB   C1B33129  24.526  11.291  33.233 -0.1612 -0.2652 -0.2484
 1381BOLB   C2B33130  24.977  11.175  33.307  0.1186 -0.1461 -0.0126
 1381BOLB   C3B33131  25.453  11.043  33.133 -0.2013  0.3180 -0.2188
 1381BOLB   C4B33132  25.659  11.264  32.955  0.0694 -0.0919  0.0788
 1381BOLB   NC233133   0.640  11.070  32.057  0.1862  0.2524 -0.0550
 1381BOLB   PO233134   0.901  11.381  31.944  0.0816 -0.0216 -0.0995
 1381BOLB   GL333135   0.357  11.417  31.857 -0.0993  0.0088 -0.2098
 1381BOLB   GL433136   0.307  11.122  31.666  0.2128  0.3054  0.2109
 1381BOLB   C1C33137  26.986  11.409  31.730 -0.0329  0.0373 -0.0409
 1381BOLB   C2C33138  26.591  11.561  31.808  0.0498 -0.3766 -0.0872
 1381BOLB   C3C33139  26.207  11.611  32.181 -0.2379  0.1591 -0.2618
 1381BOLB   C4C33140  26.032  11.440  32.566  0.1063  0.0907 -0.0402
 1381BOLB   C1D33141  26.929  10.905  31.537 -0.1683  0.1157 -0.2635
 1381BOLB   C2D33142  26.431  10.870  31.581 -0.2826 -0.3389  0.0112
 1381BOLB   C3D33143  26.134  11.100  31.569 -0.5516 -0.3455 -0.1317
 1381BOLB   C4D33144  25.910  11.214  31.898  0.1316 -0.1412  0.0463
 1382BOLB   NC133145  15.224  20.454  26.459 -0.0317 -0.2751  0.4200
 1382BOLB   PO133146  14.969  20.731  26.145 -0.3475  0.4308 -0.2611
 1382BOLB   GL133147  14.983  21.161  25.942 -0.0993  0.0232  0.0235
 1382BOLB   GL233148  14.778  21.405  26.016  0.0086  0.1263 -0.0342
 1382BOLB   C1A33149  15.093  21.431  25.624  0.0831 -0.1742 -0.0254
 1382BOLB   C2A33150  14.968  21.844  25.451 -0.0384 -0.2823  0.0387
 1382BOLB   C3A33151  14.828  22.242  25.327  0.0553 -0.2930  0.1428
 1382BOLB   C4A33152  15.028  22.470  25.070  0.0865  0.1262 -0.0292
 1382BOLB   C1B33153  14.646  21.729  25.836 -0.1336  0.2126  0.0166
 1382BOLB   C2B33154  14.498  22.084  25.759  0.1277 -0.1529 -0.1323
 1382BOLB   C3B33155  14.380  22.478  25.607  0.0560 -0.0256  0.1183
 1382BOLB   C4B33156  14.360  22.878  25.573 -0.0982  0.0703  0.0026
 1382BOLB   NC233157  14.783  24.477  23.527 -0.2387  0.1160  0.1431
 1382BOLB   PO233158  15.174  24.472  23.821  0.2536 -0.0987 -0.5630
 1382BOLB   GL333159  15.034  24.282  24.195  0.1844  0.3800  0.1365
 1382BOLB   GL433160  14.777  24.287  24.427 -0.2291  0.2445  0.3295
 1382BOLB   C1C33161  15.121  23.935  24.442  0.0805 -0.2261  0.0232
 1382BOLB   C2C33162  14.962  23.582  24.696 -0.1965 -0.0997 -0.0931
 1382BOLB   C3C33163  14.933  23.222  24.904 -0.2427  0.1972  0.0788
 1382BOLB   C4C33164  15.158  22.888  24.927 -0.3253  0.0345 -0.1966
 1382BOLB   C1D33165  14.586  23.936  24.245  0.0504 -0.0880 -0.1684
 1382BOLB   C2D33166  14.326  23.680  24.243 -0.0114  0.1335 -0.2027
 1382BOLB   C3D33167  14.006  23.407  24.263 -0.0201  0.0165  0.0430
 1382BOLB   C4D33168  13.798  23.054  24.358 -0.0262  0.0449  0.1475
 1383BOLB   NC133169  18.200  19.198  26.459 -0.1639  0.1745  0.2164
 1383BOLB   PO133170  18.146  19.051  26.039  0.1802 -0.0245  0.2907
 1383BOLB   GL133171  18.589  19.224  26.167 -0.0082  0.2507 -0.1685
 1383BOLB   GL233172  18.627  19.416  26.525  0.0132  0.1993 -0.1116
 1383BOLB   C1A33173  19.068  19.378  26.128  0.0017 -0.4924 -0.1045
 1383BOLB   C2A33174  19.531  19.454  26.209  0.1129  0.1981  0.3597
 1383BOLB   C3A33175  19.886  19.525  25.917  0.2218  0.0484 -0.2550
 1383BOLB   C4A33176  20.227  19.861  25.981  0.1290  0.4995 -0.0415
 1383BOLB   C1B33177  19.022  19.614  26.538  0.2569  0.1603 -0.0662
 1383BOLB   C2B33178  19.365  19.859  26.649 -0.1537  0.0537 -0.0193
 1383BOLB   C3B33179  19.686  19.960  26.359  0.0638 -0.0853  0.1484
 1383BOLB   C4B33180  20.014  20.257  26.222 -0.0908  0.3727  0.1713
 1383BOLB   NC233181  22.053  21.389  26.956 -0.3608  0.2101  0.0363
 1383BOLB   PO233182  22.095  21.026  26.618 -0.0018 -0.2847  0.3131
 1383BOLB   GL333183  21.776  20.788  26.696  0.2817 -0.0438 -0.0071
 1383BOLB   GL433184  21.611  20.986  26.838 -0.1672 -0.0812 -0.1535
 1383BOLB   C1C33185  21.592  20.354  26.517  0.0149 -0.1711  0.4322
 1383BOLB   C2C33186  21.170  20.318  26.288  0.1505 -0.0519 -0.1011
 1383BOLB   C3C33187  20.948  20.036  26.148  0.1394  0.0350 -0.0255
 1383BOLB   C4C33188  20.503  19.982  25.939 -0.2733 -0.2660  0.0936
 1383BOLB   C1D33189  21.185  20.724  26.827  0.1278 -0.0631 -0.1529
 1383BOLB   C2D33190  20.997  20.402  26.757  0.3262 -0.2051 -0.0590
 1383BOLB   C3D33191  20.632  20.089  26.616 -0.0769  0.4844 -0.1806
 1383BOLB   C4D33192  20.245  19.877  26.522 -0.1425 -0.1338 -0.0263
 1384BOLB   NC133193   8.691  10.745  26.622  0.0409 -0.5398 -0.1945
 1384BOLB   PO133194   8.313  10.861  26.754  0.0506  0.6105 -0.1026
 1384BOLB   GL133195   8.220  10.663  26.346  0.3560 -0.1247 -0.2759
 1384BOLB   GL233196   8.363  10.356  26.314  0.2804  0.2690  0.2063
 1384BOLB   C1A33197   8.041  10.807  26.007  0.2262 -0.2467  0.0513
 1384BOLB   C2A33198   7.735  11.021  25.875  0.0879 -0.0477 -0.2677
 1384BOLB   C3A33199   7.291  11.061  25.817  0.1177  0.1613 -0.0889
 1384BOLB   C4A33200   6.929  10.950  25.456  0.1339  0.1199  0.2943
 1384BOLB   C1B33201   8.025  10.182  26.082 -0.0993  0.2645  0.2657
 1384BOLB   C2B33202   7.831   9.854  25.878  0.0836 -0.3210  0.0390
 1384BOLB   C3B33203   7.709   9.464  25.769 -0.0742 -0.0612  0.3790
 1384BOLB   C4B33204   7.604   9.218  25.438  0.0084  0.0061 -0.0110
 1384BOLB   NC233205   4.647   9.934  24.889 -0.0034 -0.1147  0.1372
 1384BOLB   PO233206   4.850   9.906  25.197 -0.2267 -0.1621  0.0309
 1384BOLB   GL333207   5.205  10.131  25.369  0.0115 -0.3485  0.3063
 1384BOLB   GL433208   5.304  10.181  25.625  0.1447  0.2196  0.2433
 1384BOLB   C1C33209   5.557  10.473  25.248 -0.2527 -0.1717 -0.1411
 1384BOLB   C2C33210   5.703  10.768  25.028  0.1600 -0.1650  0.2610
 1384BOLB   C3C33211   6.156  10.874  25.144 -0.2468 -0.2636  0.0336
 1384BOLB   C4C33212   6.546  10.950  25.178 -0.0206  0.0065 -0.2239
 1384BOLB   C1D33213   5.645  10.348  25.709  0.1088  0.0155  0.0257
 1384BOLB   C2D33214   5.934  10.648  25.512 -0.2957  0.0496  0.0197
 1384BOLB   C3D33215   6.274  10.766  25.645  0.0751 -0.3301  0.0264
 1384BOLB   C4D33216   6.700  10.663  25.759  0.1782  0.1321  0.0672
 1385BOLB   NC133217   9.564  19.108  28.211  0.1567 -0.0227 -0.1443
 1385BOLB   PO133218   9.878  19.345  28.041  0.1523  0.2016  0.0783
 1385BOLB   GL133219   9.545  19.415  27.797 -0.0340  0.1165  0.2142
 1385BOLB   GL233220   9.307  19.183  27.764  0.1599  0.0416 -0.1040
 1385BOLB   C1A33221   9.214  19.678  27.543  0.0447  0.0145 -0.0603
 1385BOLB   C2A33222   9.319  20.013  27.273  0.1340  0.1811  0.1094
 1385BOLB   C3A33223   9.146  20.490  27.229 -0.0310 -0.2800 -0.2435
 1385BOLB   C4A33224   9.094  20.993  27.191 -0.2006  0.1663 -0.1137
 1385BOLB   C1B33225   9.129  19.519  27.986  0.0396 -0.1380  0.0028
 1385BOLB   C2B33226   9.060  19.991  27.936  0.1827  0.1606 -0.0925
 1385BOLB   C3B33227   8.902  20.403  27.934 -0.0272 -0.3220 -0.1677
 1385BOLB   C4B33228   8.669  20.835  28.094  0.3074 -0.1261  0.0803
 1385BOLB   NC233229   8.271  23.158  26.231 -0.0948 -0.3398 -0.1640
 1385BOLB   PO233230   8.168  23.113  26.652 -0.0705 -0.2593  0.1473
 1385BOLB   GL333231   8.492  22.813  26.821 -0.1039 -0.0808  0.2575
 1385BOLB   GL433232   8.968  23.011  26.815  0.2069  0.3831  0.1859
 1385BOLB   C1C33233   8.710  22.520  27.007  0.2452  0.3283  0.0118
 1385BOLB   C2C33234   8.749  22.119  27.115  0.0911  0.4853  0.0783
 1385BOLB   C3C33235   8.946  21.805  27.103 -0.1398 -0.0481  0.1039
 1385BOLB   C4C33236   8.973  21.375  27.158 -0.0262  0.0524  0.0315
 1385BOLB   C1D33237   8.956  22.716  26.591 -0.1371 -0.1011 -0.1027
 1385BOLB   C2D33238   8.882  22.233  26.620  0.0407 -0.3193 -0.1942
 1385BOLB   C3D33239   8.981  21.894  26.340 -0.0300 -0.3294 -0.1114
 1385BOLB   C4D33240   8.711  21.973  25.921 -0.1130  0.0323  0.1614
 1386BOLB   NC133241  11.985  16.839  36.936 -0.2830  0.0830  0.2498
 1386BOLB   PO133242  12.095  16.965  37.385  0.0821 -0.0496 -0.1720
 1386BOLB   GL133243  12.000  17.286  37.583  0.0884  0.0448 -0.0366
 1386BOLB   GL233244  11.808  17.265  37.872  0.1574  0.0751  0.4309
 1386BOLB   C1A33245  12.220  17.624  37.929  0.1808  0.1485 -0.3998
 1386BOLB   C2A33246  12.331  17.784  38.272  0.2098  0.0569 -0.0625
 1386BOLB   C3A33247  12.123  18.108  38.485 -0.2401  0.6758  0.4216
 1386BOLB   C4A33248  11.833  18.077  38.754  0.1229  0.0480  0.0573
 1386BOLB   C1B33249  11.691  17.668  37.738  0.1732 -0.2031 -0.2568
 1386BOLB   C2B33250  11.531  17.960  38.096 -0.1802  0.3357 -0.2197
 1386BOLB   C3B33251  11.585  18.328  38.412  0.2654 -0.4000 -0.1174
 1386BOLB   C4B33252  11.619  18.684  38.608  0.0695 -0.1978 -0.4479
 1386BOLB   NC233253  10.353  18.274  40.976 -0.4282  0.0966  0.0349
 1386BOLB   PO233254  10.450  18.638  40.766  0.3600 -0.0009  0.0992
 1386BOLB   GL333255  10.522  18.502  40.285  0.1504  0.0470 -0.2835
 1386BOLB   GL433256  10.722  18.693  40.223  0.0315 -0.0383 -0.1313
 1386BOLB   C1C33257  10.787  18.188  40.109  0.3715  0.1551  0.1491
 1386BOLB   C2C33258  11.002  17.981  39.768 -0.0625  0.1191 -0.0343
 1386BOLB   C3C33259  11.418  18.012  39.531 -0.0054  0.1522 -0.1057
 1386BOLB   C4C33260  11.586  18.010  39.180  0.4047  0.2123 -0.2285
 1386BOLB   C1D33261  10.892  18.667  39.837 -0.1627 -0.1923  0.2531
 1386BOLB   C2D33262  11.110  18.409  39.522  0.3456 -0.0250  0.1578
 1386BOLB   C3D33263  11.090  18.261  39.176  0.0374 -0.1439 -0.3176
 1386BOLB   C4D33264  11.278  18.034  38.761  0.1715 -0.1841 -0.0962
 1387BOLB   NC133265  17.689  11.902  39.220  0.2785 -0.0119 -0.0904
 1387BOLB   PO133266  17.887  12.004  39.553 -0.1224 -0.0786  0.0536
 1387BOLB   GL133267  17.935  11.965  40.013  0.2957  0.0608 -0.2246
 1387BOLB   GL233268  17.723  12.327  40.177  0.0384  0.0456 -0.0087
 1387BOLB   C1A33269  17.983  11.752  40.376  0.2280 -0.3500 -0.0524
 1387BOLB   C2A33270  17.787  11.736  40.805 -0.0109 -0.0950 -0.0317
 1387BOLB   C3A33271  17.941  11.775  41.218 -0.0484  0.2083  0.1002
 1387BOLB   C4A33272  17.797  11.694  41.571 -0.0097 -0.7137  0.1282
 1387BOLB   C1B33273  17.668  12.129  40.628  0.2098 -0.0025  0.2858
 1387BOLB   C2B33274  17.680  12.170  41.083 -0.0411  0.0963  0.0733
 1387BOLB   C3B33275  17.916  12.363  41.402  0.0679 -0.0394 -0.0360
 1387BOLB   C4B33276  17.766  12.507  41.787  0.3762  0.1875  0.0656
 1387BOLB   NC233277  18.064  13.242  43.682  0.0177  0.0766 -0.0582
 1387BOLB   PO233278  18.123  12.771  43.511 -0.2697 -0.0253  0.3015
 1387BOLB   GL333279  17.856  12.633  43.178 -0.0789  0.2751 -0.1957
 1387BOLB   GL433280  18.015  12.508  43.043  0.2620  0.0749  0.5486
 1387BOLB   C1C33281  17.471  12.349  43.028 -0.1451 -0.3070 -0.0691
 1387BOLB   C2C33282  17.252  12.093  42.635  0.0375  0.0036  0.1419
 1387BOLB   C3C33283  17.199  11.929  42.137  0.0331  0.0934  0.2807
 1387BOLB   C4C33284  17.486  11.616  41.887  0.0348  0.3414 -0.4709
 1387BOLB   C1D33285  17.766  12.520  42.698 -0.1594  0.3433 -0.1130
 1387BOLB   C2D33286  17.899  12.684  42.259 -0.2358 -0.2284  0.0938
 1387BOLB   C3D33287  17.752  12.915  42.042  0.0606 -0.3511 -0.4017
 1387BOLB   C4D33288  17.707  12.919  41.572  0.1325 -0.1038  0.1442
 1388BOLB   NC133289   9.621   7.428  29.756  0.0498  0.1097 -0.1157
 1388BOLB   PO133290   9.451   7.618  30.172 -0.0636  0.2725  0.4592
 1388BOLB   GL133291   9.004   7.553  30.023  0.0019 -0.3092 -0.1295
 1388BOLB   GL233292   8.855   7.418  30.306 -0.0673 -0.0080  0.0905
 1388BOLB   C1A33293   8.546   7.480  29.892  0.1838 -0.0476  0.0169
 1388BOLB   C2A33294   8.208   7.377  29.657 -0.1736  0.2244  0.2691
 1388BOLB   C3A33295   7.946   7.138  29.690  0.5300 -0.4021  0.0539
 1388BOLB   C4A33296   7.609   7.052  29.432  0.2084 -0.0448 -0.1542
 1388BOLB   C1B33297   8.445   7.214  30.375 -0.0456  0.2352 -0.0132
 1388BOLB   C2B33298   8.192   6.817  30.464 -0.0707  0.1930  0.2073
 1388BOLB   C3B33299   7.894   6.561  30.319 -0.1547 -0.3614  0.2482
 1388BOLB   C4B33300   7.667   6.306  30.041 -0.2938  0.0949 -0.1264
 1388BOLB   NC233301   6.063   5.263  29.815 -0.1404 -0.2510 -0.1112
 1388BOLB   PO233302   5.738   5.425  29.443  0.1167  0.0380 -0.1041
 1388BOLB   GL333303   6.020   5.808  29.317  0.1436  0.0344 -0.0901
 1388BOLB   GL433304   6.029   5.665  29.063  0.0225  0.2722 -0.2860
 1388BOLB   C1C33305   6.408   6.062  29.308 -0.1037  0.0938 -0.0257
 1388BOLB   C2C33306   6.821   6.126  29.227 -0.1847 -0.0836 -0.1221
 1388BOLB   C3C33307   6.937   6.570  29.184  0.1478  0.0282  0.1390
 1388BOLB   C4C33308   7.362   6.660  29.183 -0.0558 -0.0223  0.1795
 1388BOLB   C1D33309   6.300   5.928  28.849  0.1512  0.2281 -0.3309
 1388BOLB   C2D33310   6.590   6.324  28.827 -0.2165 -0.3675 -0.0782
 1388BOLB   C3D33311   7.094   6.329  28.752  0.3230 -0.0717 -0.0378
 1388BOLB   C4D33312   7.498   6.203  28.865 -0.0180  0.2790  0.0432
 1389BOLB   NC133313  10.309  11.163  17.391 -0.2056  0.2777  0.0781
 1389BOLB   PO133314  10.581  11.235  17.594  0.3533 -0.0699  0.0885
 1389BOLB   GL133315  10.959  11.355  17.928 -0.2824 -0.2202 -0.3122
 1389BOLB   GL233316  11.071  10.978  17.884  0.2434  0.2348  0.1860
 1389BOLB   C1A33317  11.308  11.307  18.233 -0.0615 -0.5022 -0.1374
 1389BOLB   C2A33318  11.666  11.483  18.350  0.0625 -0.2271 -0.0534
 1389BOLB   C3A33319  11.967  11.711  18.627 -0.2289 -0.0971  0.1912
 1389BOLB   C4A33320  12.217  11.511  18.752 -0.1392  0.2339 -0.0982
 1389BOLB   C1B33321  11.436  10.846  18.108  0.0716  0.3421  0.1962
 1389BOLB   C2B33322  11.381  10.911  18.560 -0.1301 -0.2386 -0.2911
 1389BOLB   C3B33323  11.547  10.810  18.932  0.2192 -0.0863 -0.1105
 1389BOLB   C4B33324  11.757  10.999  19.236  0.0677  0.0314 -0.0544
 1389BOLB   NC233325  11.218  10.277  17.294  0.1859 -0.1311  0.0487
 1389BOLB   PO233326  11.647  10.163  17.287 -0.0286  0.3389 -0.0839
 1389BOLB   GL333327  11.809  10.403  17.525  0.1245  0.2237  0.0130
 1389BOLB   GL433328  12.000  10.679  17.351 -0.2243  0.0870  0.4763
 1389BOLB   C1C33329  12.020  10.414  17.806  0.0556  0.1958  0.0237
 1389BOLB   C2C33330  12.219  10.570  17.961 -0.0343 -0.0528 -0.0188
 1389BOLB   C3C33331  12.278  10.811  18.405 -0.1760  0.0141 -0.3519
 1389BOLB   C4C33332  12.401  11.159  18.597  0.0148 -0.1151  0.5977
 1389BOLB   C1D33333  12.128  10.961  17.663  0.1144  0.1355 -0.1719
 1389BOLB   C2D33334  12.269  11.284  17.663 -0.1982 -0.3116  0.0743
 1389BOLB   C3D33335  12.553  11.578  17.789 -0.1034 -0.0222  0.3217
 1389BOLB   C4D33336  12.985  11.673  17.979 -0.2428  0.2311 -0.0836
 1390BOLB   NC133337   9.926   7.567  31.014 -0.2137  0.0839 -0.3820
 1390BOLB   PO133338   9.801   7.589  31.583  0.0243  0.2057 -0.0089
 1390BOLB   GL133339   9.493   7.360  31.641 -0.1159 -0.1416  0.0394
 1390BOLB   GL233340   9.509   7.091  31.652 -0.0509  0.0183 -0.0351
 1390BOLB   C1A33341   8.973   7.306  31.799  0.1394 -0.0148 -0.1792
 1390BOLB   C2A33342   8.596   7.003  31.735 -0.1420 -0.1352  0.3779
 1390BOLB   C3A33343   8.484   6.582  31.491 -0.4402  0.0644 -0.2350
 1390BOLB   C4A33344   8.013   6.452  31.234 -0.0185 -0.1570  0.3002
 1390BOLB   C1B33345   9.143   6.787  31.553 -0.0627 -0.1718  0.0252
 1390BOLB   C2B33346   8.890   6.406  31.796  0.2794  0.0335 -0.1227
 1390BOLB   C3B33347   8.584   6.020  31.825 -0.0802  0.3485 -0.1329
 1390BOLB   C4B33348   8.419   5.879  31.436 -0.1453 -0.1664  0.1324
 1390BOLB   NC233349   5.644   5.672  30.261 -0.0596  0.5095  0.2737
 1390BOLB   PO233350   6.102   5.549  30.257  0.0560 -0.4523  0.0184
 1390BOLB   GL333351   6.505   5.802  30.333  0.1862 -0.1113 -0.2504
 1390BOLB   GL433352   6.477   6.211  30.279  0.1153  0.0992 -0.1047
 1390BOLB   C1C33353   6.887   5.858  30.104 -0.0056  0.0779 -0.2790
 1390BOLB   C2C33354   7.271   5.869  30.363 -0.1308 -0.2627  0.1959
 1390BOLB   C3C33355   7.561   6.190  30.496 -0.0874 -0.3297 -0.2214
 1390BOLB   C4C33356   7.727   6.463  30.831 -0.3578  0.1267  0.1478
 1390BOLB   C1D33357   6.629   6.601  30.568  0.0474 -0.2352  0.0199
 1390BOLB   C2D33358   6.828   6.834  30.892 -0.4440 -0.2470  0.0650
 1390BOLB   C3D33359   7.104   6.974  31.121 -0.0365  0.2058  0.1350
 1390BOLB   C4D33360   7.431   7.288  31.383 -0.3905  0.0877 -0.1004
 1391BOLB   NC133361  19.992   6.063  33.920 -0.3547  0.1114 -0.3173
 1391BOLB   PO133362  20.170   6.185  33.580 -0.0276  0.0426  0.3693
 1391BOLB   GL133363  20.387   5.720  33.659  0.2230 -0.2204 -0.0611
 1391BOLB   GL233364  20.158   5.550  33.872  0.0342  0.0999 -0.1375
 1391BOLB   C1A33365  20.743   5.391  33.544  0.4884  0.2794 -0.1861
 1391BOLB   C2A33366  21.014   5.027  33.793 -0.1999 -0.0745 -0.0711
 1391BOLB   C3A33367  21.161   4.564  33.851  0.0967  0.2136 -0.0822
 1391BOLB   C4A33368  21.240   4.104  33.897 -0.2101 -0.0727  0.0197
 1391BOLB   C1B33369  20.306   5.187  34.041 -0.0702 -0.2554 -0.1057
 1391BOLB   C2B33370  20.496   4.865  34.253 -0.2197 -0.0685  0.0276
 1391BOLB   C3B33371  20.275   4.436  34.159 -0.0759  0.0641  0.1710
 1391BOLB   C4B33372  20.268   4.289  33.763  0.0890 -0.1100 -0.1463
 1391BOLB   NC233373  22.047   2.794  36.168 -0.1686 -0.0987  0.1677
 1391BOLB   PO233374  22.336   2.753  35.832  0.0137 -0.1827 -0.0484
 1391BOLB   GL333375  22.329   2.944  35.417  0.1287  0.2182  0.3273
 1391BOLB   GL433376  22.222   3.356  35.431  0.0639 -0.0737  0.0848
 1391BOLB   C1C33377  22.070   3.083  34.967 -0.4280  0.0018 -0.1247
 1391BOLB   C2C33378  21.812   3.377  34.749 -0.0577  0.2938  0.0025
 1391BOLB   C3C33379  21.624   3.484  34.369 -0.0653  0.1877  0.0887
 1391BOLB   C4C33380  21.588   3.680  33.974 -0.3745 -0.1058  0.5075
 1391BOLB   C1D33381  22.204   3.527  35.036  0.0452  0.0978  0.1101
 1391BOLB   C2D33382  21.987   3.825  34.778  0.2619 -0.0721 -0.1196
 1391BOLB   C3D33383  21.920   4.098  34.590  0.0171 -0.0635 -0.0467
 1391BOLB   C4D33384  21.809   4.458  34.499  0.0011 -0.0997 -0.0041
 1392BOLB   NC133385  18.306   5.633  34.988  0.3151 -0.0212  0.0711
 1392BOLB   PO133386  18.240   5.538  34.553 -0.0520 -0.1004  0.0180
 1392BOLB   GL133387  18.110   5.182  34.575 -0.0376 -0.2478  0.3767
 1392BOLB   GL233388  18.293   5.074  34.861  0.0191  0.2605 -0.2799
 1392BOLB   C1A33389  18.005   4.863  34.562 -0.0429 -0.0704  0.5429
 1392BOLB   C2A33390  18.083   4.426  34.659  0.4063  0.1222 -0.0768
 1392BOLB   C3A33391  18.175   4.014  34.765  0.1509 -0.1323  0.0148
 1392BOLB   C4A33392  18.347   3.611  34.957  0.4550 -0.0720 -0.1307
 1392BOLB   C1B33393  18.369   4.701  35.011 -0.2838 -0.3181 -0.0205
 1392BOLB   C2B33394  18.480   4.335  35.160  0.0539 -0.1421  0.2977
 1392BOLB   C3B33395  18.426   3.964  35.339  0.0561  0.0725 -0.1419
 1392BOLB   C4B33396  18.405   3.493  35.484  0.0251 -0.0758 -0.2113
 1392BOLB   NC233397  19.335   1.185  35.784  0.1425 -0.1628  0.2190
 1392BOLB   PO233398  19.290   1.629  35.709  0.3268 -0.3858 -0.1350
 1392BOLB   GL333399  19.140   1.984  35.464 -0.1164 -0.1160  0.0365
 1392BOLB   GL433400  19.238   2.201  35.658 -0.2482  0.0405 -0.1335
 1392BOLB   C1C33401  18.859   2.075  35.135  0.1330  0.1510  0.1588
 1392BOLB   C2C33402  18.736   2.389  35.083 -0.0016  0.3515  0.1376
 1392BOLB   C3C33403  18.558   2.763  35.002  0.0332  0.0172  0.1881
 1392BOLB   C4C33404  18.324   3.120  34.978  0.1118 -0.3047 -0.1526
 1392BOLB   C1D33405  19.249   2.623  35.676 -0.0551 -0.0702  0.0244
 1392BOLB   C2D33406  19.438   2.975  35.518  0.0558  0.2483 -0.2131
 1392BOLB   C3D33407  19.134   3.239  35.663  0.0666 -0.2000 -0.0796
 1392BOLB   C4D33408  18.768   3.337  35.842 -0.1330  0.2413 -0.1784
 1393BOLB   NC133409  16.034  20.122  24.250 -0.1213  0.2609  0.3207
 1393BOLB   PO133410  16.280  19.889  24.090  0.0153 -0.0422 -0.0409
 1393BOLB   GL133411  16.269  20.234  23.811 -0.1623  0.2858 -0.0915
 1393BOLB   GL233412  16.172  20.586  23.918 -0.0469 -0.2134 -0.1112
 1393BOLB   C1A33413  16.608  20.502  23.616 -0.3915 -0.0934  0.1705
 1393BOLB   C2A33414  16.842  20.775  23.514  0.2091  0.1691  0.0553
 1393BOLB   C3A33415  17.206  21.054  23.340 -0.0425  0.3815 -0.0317
 1393BOLB   C4A33416  17.577  21.197  23.409  0.1998 -0.0811 -0.2521
 1393BOLB   C1B33417  16.292  20.990  23.749  0.0611 -0.0607  0.0534
 1393BOLB   C2B33418  16.348  21.214  23.399 -0.0524  0.2308  0.2407
 1393BOLB   C3B33419  16.240  21.571  23.002 -0.2224  0.0744 -0.0515
 1393BOLB   C4B33420  16.308  21.883  22.881  0.0159 -0.1650 -0.2989
 1393BOLB   NC233421  19.165  23.019  22.924 -0.2017  0.1195  0.3836
 1393BOLB   PO233422  19.342  22.705  23.191 -0.0221  0.0672  0.1990
 1393BOLB   GL333423  19.079  22.413  23.215 -0.0408  0.0887  0.1625
 1393BOLB   GL433424  18.812  22.511  22.941 -0.2047  0.0031  0.1514
 1393BOLB   C1C33425  18.672  22.247  23.385  0.4143 -0.0286 -0.0752
 1393BOLB   C2C33426  18.394  21.934  23.361  0.1658  0.1625  0.2970
 1393BOLB   C3C33427  18.209  21.492  23.448 -0.3256 -0.1195  0.0481
 1393BOLB   C4C33428  17.910  21.135  23.621 -0.0544 -0.1575 -0.2122
 1393BOLB   C1D33429  18.479  22.301  22.809  0.2116  0.1121  0.1642
 1393BOLB   C2D33430  18.124  22.085  22.907  0.0987  0.3350  0.0817
 1393BOLB   C3D33431  17.910  21.878  23.295  0.0640 -0.3151  0.2172
 1393BOLB   C4D33432  17.631  21.667  23.559 -0.4247  0.2129  0.2194
 1394BOLB   NC133433  10.035  24.334  26.893  0.0106 -0.1597  0.0295
 1394BOLB   PO133434  10.368  24.446  27.098 -0.0015 -0.0530 -0.2969
 1394BOLB   GL133435  10.251  24.052  27.234  0.0129  0.0296  0.1986
 1394BOLB   GL233436  10.223  24.203  27.555  0.0165  0.0399  0.1485
 1394BOLB   C1A33437  10.170  23.568  27.221  0.0839 -0.2185 -0.0097
 1394BOLB   C2A33438  10.320  23.161  27.120  0.0459 -0.0365 -0.2087
 1394BOLB   C3A33439  10.564  22.730  27.144  0.1727  0.3049 -0.2126
 1394BOLB   C4A33440  10.989  22.609  27.064 -0.1960  0.2087  0.0435
 1394BOLB   C1B33441  10.584  23.946  27.701  0.1301 -0.0308  0.1905
 1394BOLB   C2B33442  10.859  23.674  27.718 -0.0258  0.0639  0.1876
 1394BOLB   C3B33443  10.915  23.272  27.618 -0.1371  0.0328 -0.0636
 1394BOLB   C4B33444  11.083  22.876  27.515  0.0799 -0.1585 -0.0189
 1394BOLB   NC233445  10.793  24.584  27.259 -0.3007  0.0596  0.1022
 1394BOLB   PO233446  10.890  24.738  26.812  0.3713  0.2014 -0.1553
 1394BOLB   GL333447  11.149  24.379  26.978 -0.0541  0.1958  0.1198
 1394BOLB   GL433448  10.859  24.081  27.188  0.2290  0.2392 -0.0999
 1394BOLB   C1C33449  11.463  24.178  27.186  0.2316 -0.0578  0.1076
 1394BOLB   C2C33450  11.456  23.795  27.343 -0.3260  0.1585 -0.0486
 1394BOLB   C3C33451  11.372  23.305  27.233 -0.1006 -0.0923  0.0756
 1394BOLB   C4C33452  11.392  22.908  27.109  0.3639 -0.0485 -0.1263
 1394BOLB   C1D33453  11.054  23.795  26.934 -0.0908 -0.0891 -0.1424
 1394BOLB   C2D33454  11.500  23.722  26.895  0.1538  0.2662  0.3629
 1394BOLB   C3D33455  11.774  23.407  26.952  0.0379  0.1286 -0.3442
 1394BOLB   C4D33456  12.023  22.915  26.888  0.1527  0.2780  0.1672
 1395BOLB   NC133457  15.639  16.129  38.722  0.0470  0.1122 -0.2674
 1395BOLB   PO133458  15.784  15.772  39.015 -0.0133  0.0254  0.2917
 1395BOLB   GL133459  15.762  15.753  39.512 -0.1425  0.0100 -0.1967
 1395BOLB   GL233460  15.929  16.063  39.597 -0.1696 -0.2007  0.2044
 1395BOLB   C1A33461  16.078  15.614  39.956 -0.2752 -0.3142 -0.3445
 1395BOLB   C2A33462  16.296  15.904  40.259 -0.3254 -0.1314  0.3724
 1395BOLB   C3A33463  16.497  16.139  40.600 -0.0970 -0.0006  0.1281
 1395BOLB   C4A33464  16.571  16.229  41.018  0.0620 -0.2235 -0.0755
 1395BOLB   C1B33465  15.701  16.159  40.020  0.2547 -0.1850  0.3618
 1395BOLB   C2B33466  15.813  16.457  40.470  0.1537 -0.0050  0.0355
 1395BOLB   C3B33467  16.137  16.488  40.812 -0.1431 -0.0729 -0.1235
 1395BOLB   C4B33468  16.151  16.782  41.195  0.2405 -0.2548 -0.1931
 1395BOLB   NC233469  16.614  17.326  43.588 -0.0715  0.0007  0.1254
 1395BOLB   PO233470  16.553  17.386  43.083  0.1377  0.1228  0.0093
 1395BOLB   GL333471  16.373  17.114  42.766 -0.1634 -0.0842  0.1844
 1395BOLB   GL433472  16.109  17.001  42.775  0.0614  0.1200 -0.1809
 1395BOLB   C1C33473  16.350  17.186  42.250 -0.1194  0.1011 -0.2834
 1395BOLB   C2C33474  16.305  17.191  41.853  0.0299 -0.0605  0.0209
 1395BOLB   C3C33475  16.415  16.995  41.563 -0.0807 -0.0515  0.2638
 1395BOLB   C4C33476  16.501  16.515  41.370 -0.1105 -0.2642  0.2455
 1395BOLB   C1D33477  16.166  16.762  42.504 -0.1769  0.1222  0.0181
 1395BOLB   C2D33478  16.303  16.634  42.110 -0.1317 -0.0491 -0.3358
 1395BOLB   C3D33479  16.177  16.442  41.749  0.3399  0.3098 -0.0133
 1395BOLB   C4D33480  16.025  16.242  41.298  0.0060  0.4121 -0.0827
 1396BOLB   NC133481  13.914  19.801  35.486  0.0050 -0.3560  0.0672
 1396BOLB   PO133482  13.796  19.828  35.053  0.2959  0.3805 -0.3036
 1396BOLB   GL133483  13.760  20.279  35.295 -0.3966  0.0186 -0.1636
 1396BOLB   GL233484  13.688  20.455  34.991  0.5002 -0.1361 -0.2240
 1396BOLB   C1A33485  13.661  20.561  35.501 -0.2716  0.0242  0.1927
 1396BOLB   C2A33486  13.641  20.868  35.765 -0.0007 -0.0894 -0.0893
 1396BOLB   C3A33487  13.685  21.137  36.031 -0.3843 -0.0064 -0.0272
 1396BOLB   C4A33488  13.700  21.298  36.495 -0.1448  0.0469 -0.0398
 1396BOLB   C1B33489  13.540  20.880  35.160  0.0079  0.1111  0.2547
 1396BOLB   C2B33490  13.387  21.271  34.945 -0.0682 -0.1516  0.1279
 1396BOLB   C3B33491  13.548  21.704  34.780  0.0403 -0.2061 -0.2489
 1396BOLB   C4B33492  13.320  22.125  34.887  0.0956 -0.0116 -0.1035
 1396BOLB   NC233493  12.456  22.091  38.814 -0.1410  0.4551  0.0540
 1396BOLB   PO233494  12.873  22.211  38.672 -0.1546 -0.2515 -0.1590
 1396BOLB   GL333495  13.067  22.163  38.255 -0.3913 -0.1521  0.3882
 1396BOLB   GL433496  13.451  22.274  38.216 -0.1924 -0.1243 -0.0412
 1396BOLB   C1C33497  13.117  22.098  37.794  0.1530  0.0748 -0.0481
 1396BOLB   C2C33498  13.271  21.726  37.574  0.3824  0.1631 -0.1202
 1396BOLB   C3C33499  13.334  21.272  37.370 -0.2542 -0.0205 -0.0796
 1396BOLB   C4C33500  13.614  21.216  36.965 -0.3888 -0.0858 -0.3068
 1396BOLB   C1D33501  13.603  22.177  37.792 -0.3846 -0.0548  0.2179
 1396BOLB   C2D33502  13.798  21.722  37.577 -0.1432 -0.1233  0.0265
 1396BOLB   C3D33503  13.840  21.263  37.489 -0.0980 -0.2005 -0.0345
 1396BOLB   C4D33504  13.964  20.923  37.183  0.1478  0.2184 -0.2933
 1397BOLB   NC133505  13.763  12.464  20.535  0.0321  0.1581  0.0099
 1397BOLB   PO133506  13.642  12.057  20.570 -0.1793  0.0077 -0.0435
 1397BOLB   GL133507  13.438  12.125  20.137 -0.1313  0.2417 -0.0027
 1397BOLB   GL233508  13.196  12.210  20.010  0.2868  0.2391 -0.0631
 1397BOLB   C1A33509  13.355  12.001  19.603 -0.0044 -0.0168 -0.1139
 1397BOLB   C2A33510  13.488  11.775  19.281  0.2116  0.1352 -0.2946
 1397BOLB   C3A33511  13.663  11.444  18.923  0.2165  0.1519 -0.1347
 1397BOLB   C4A33512  13.536  11.180  18.671 -0.0056 -0.1544 -0.1857
 1397BOLB   C1B33513  12.888  12.218  19.666 -0.0102 -0.0275  0.1467
 1397BOLB   C2B33514  12.492  12.048  19.363 -0.4060  0.0689  0.4477
 1397BOLB   C3B33515  12.504  11.626  19.169 -0.1654  0.1049 -0.2207
 1397BOLB   C4B33516  12.682  11.454  18.912  0.0596  0.0378  0.0607
 1397BOLB   NC233517  12.540   9.243  17.201 -0.0132 -0.0153 -0.0157
 1397BOLB   PO233518  12.203   9.579  17.320 -0.4788 -0.0067  0.0140
 1397BOLB   GL333519  12.582   9.659  17.551 -0.0825  0.0251  0.1968
 1397BOLB   GL433520  12.676   9.384  17.880  0.0947 -0.3219  0.2512
 1397BOLB   C1C33521  12.946   9.821  17.732  0.1012 -0.1231  0.1585
 1397BOLB   C2C33522  13.097  10.058  18.056 -0.0065  0.2648 -0.2721
 1397BOLB   C3C33523  13.335  10.460  18.180 -0.0493  0.0934  0.2604
 1397BOLB   C4C33524  13.484  10.846  18.384  0.0060 -0.1057 -0.1140
 1397BOLB   C1D33525  12.331   9.201  18.184 -0.0443 -0.0085  0.2037
 1397BOLB   C2D33526  12.456   8.742  18.232  0.2321  0.0274  0.0363
 1397BOLB   C3D33527  12.649   8.474  18.342 -0.1528  0.1653 -0.1629
 1397BOLB   C4D33528  13.073   8.353  18.524  0.4896  0.0423  0.2066
 1398BOLB   NC133529  15.588  17.938  37.429  0.1217 -0.0419 -0.0520
 1398BOLB   PO133530  15.122  17.867  37.585  0.2107 -0.0346 -0.3612
 1398BOLB   GL133531  15.360  18.132  37.871  0.0970 -0.0846 -0.2750
 1398BOLB   GL233532  15.618  18.338  37.834  0.2071 -0.2668 -0.0743
 1398BOLB   C1A33533  15.240  18.215  38.329 -0.3194  0.0524  0.2461
 1398BOLB   C2A33534  15.341  18.392  38.716  0.0383 -0.2403 -0.3678
 1398BOLB   C3A33535  14.910  18.490  38.966  0.2065 -0.0325  0.1182
 1398BOLB   C4A33536  14.770  18.915  39.049 -0.0649 -0.1000 -0.1804
 1398BOLB   C1B33537  15.607  18.524  38.224  0.1395 -0.1335 -0.1933
 1398BOLB   C2B33538  15.791  18.814  38.469  0.1168 -0.1017  0.3339
 1398BOLB   C3B33539  16.069  18.856  38.742  0.1552  0.1786  0.0319
 1398BOLB   C4B33540  16.134  18.814  39.172  0.2148  0.2352  0.0462
 1398BOLB   NC233541  13.518  19.681  41.075 -0.0310  0.1638  0.0778
 1398BOLB   PO233542  13.784  20.017  41.065 -0.1058  0.2769 -0.0544
 1398BOLB   GL333543  13.981  19.856  40.743 -0.3162  0.0709 -0.1558
 1398BOLB   GL433544  13.895  19.630  40.638 -0.1264  0.1283  0.0808
 1398BOLB   C1C33545  14.038  20.036  40.355 -0.0921  0.1497  0.2002
 1398BOLB   C2C33546  14.399  19.977  39.988 -0.1528 -0.1682  0.0462
 1398BOLB   C3C33547  14.598  19.550  39.850  0.0008  0.0592 -0.2813
 1398BOLB   C4C33548  14.749  19.230  39.473  0.1441  0.0864  0.1318
 1398BOLB   C1D33549  13.792  19.548  40.237 -0.2069  0.1415  0.0482
 1398BOLB   C2D33550  14.022  19.397  39.976  0.2898  0.0731 -0.4409
 1398BOLB   C3D33551  14.338  19.099  39.697  0.1571 -0.2423 -0.1193
 1398BOLB   C4D33552  14.429  18.685  39.384  0.0446 -0.0673 -0.2455
 1399BOLB   NC133553   8.534  16.221  26.629  0.0934 -0.0295 -0.1794
 1399BOLB   PO133554   8.543  16.486  26.320 -0.2368 -0.1437 -0.0122
 1399BOLB   GL133555   8.297  16.706  26.241  0.1425 -0.1401  0.1026
 1399BOLB   GL233556   8.311  16.803  25.964 -0.2301  0.0873  0.1170
 1399BOLB   C1A33557   7.981  16.912  26.345  0.1217  0.1112  0.1987
 1399BOLB   C2A33558   7.535  17.088  26.276 -0.0671  0.0335 -0.2687
 1399BOLB   C3A33559   7.249  17.376  26.155  0.1589  0.0589  0.0018
 1399BOLB   C4A33560   6.837  17.559  26.014 -0.2440  0.2142  0.0837
 1399BOLB   C1B33561   8.083  16.800  25.684 -0.1494  0.0437  0.1064
 1399BOLB   C2B33562   7.782  16.937  25.491  0.1079  0.1356 -0.3097
 1399BOLB   C3B33563   7.416  17.017  25.252 -0.3079 -0.1180 -0.1160
 1399BOLB   C4B33564   6.968  17.017  25.116 -0.1133  0.0893 -0.1913
 1399BOLB   NC233565   4.754  18.491  25.667  0.1442  0.3163 -0.2209
 1399BOLB   PO233566   5.210  18.474  25.658 -0.1742  0.2120  0.3544
 1399BOLB   GL333567   5.542  18.252  25.730 -0.1925 -0.0698  0.1738
 1399BOLB   GL433568   5.428  17.950  25.725  0.1365  0.0751 -0.0908
 1399BOLB   C1C33569   5.973  18.349  25.489  0.0802 -0.1522  0.0295
 1399BOLB   C2C33570   6.273  18.163  25.269  0.1887  0.0495 -0.0822
 1399BOLB   C3C33571   6.645  17.932  25.360 -0.0064  0.1477 -0.0072
 1399BOLB   C4C33572   6.791  17.811  25.731  0.2759 -0.1844  0.2055
 1399BOLB   C1D33573   5.738  17.773  25.941  0.0502  0.0027  0.2125
 1399BOLB   C2D33574   5.950  17.629  26.340 -0.0232  0.0162  0.1454
 1399BOLB   C3D33575   5.994  17.439  26.739 -0.0705  0.0707 -0.1363
 1399BOLB   C4D33576   6.080  17.249  27.055  0.1945 -0.0218 -0.1462
 1400BOLB   NC133577  11.600  20.343  29.248  0.1867 -0.2281 -0.2378
 1400BOLB   PO133578  11.762  20.772  29.232  0.0371  0.0132 -0.1862
 1400BOLB   GL133579  11.539  21.197  29.209  0.1646  0.2426 -0.2636
 1400BOLB   GL233580  11.399  21.108  28.935 -0.0895  0.1404 -0.2616
 1400BOLB   C1A33581  11.401  21.613  29.442 -0.2497  0.0262  0.0276
 1400BOLB   C2A33582  11.088  21.930  29.567 -0.1300 -0.0568 -0.0003
 1400BOLB   C3A33583  10.725  22.095  29.428  0.0310 -0.0366 -0.1728
 1400BOLB   C4A33584  10.637  22.307  29.113  0.1908  0.1881 -0.2292
 1400BOLB   C1B33585  11.225  21.589  28.926 -0.0175 -0.0289 -0.2660
 1400BOLB   C2B33586  10.872  21.697  29.075  0.2385  0.3242  0.0828
 1400BOLB   C3B33587  10.556  21.905  28.875  0.0455 -0.1007 -0.0551
 1400BOLB   C4B33588  10.177  21.997  28.699  0.2843 -0.0980 -0.3388
 1400BOLB   NC233589   9.152  24.046  29.014 -0.0907 -0.2363 -0.3680
 1400BOLB   PO233590   8.924  24.234  28.660 -0.1777  0.4059  0.0974
 1400BOLB   GL333591   9.107  23.807  28.524  0.1643  0.1006  0.2094
 1400BOLB   GL433592   9.123  23.813  28.276 -0.0793  0.2549  0.1612
 1400BOLB   C1C33593   9.607  23.695  28.473  0.0955 -0.1135 -0.1322
 1400BOLB   C2C33594   9.776  23.272  28.552 -0.1068 -0.2615  0.1694
 1400BOLB   C3C33595  10.269  23.185  28.822 -0.0864 -0.1542 -0.0115
 1400BOLB   C4C33596  10.550  22.742  28.962 -0.1143  0.3759 -0.3668
 1400BOLB   C1D33597   9.258  23.441  28.204 -0.1972 -0.1171 -0.2485
 1400BOLB   C2D33598   9.431  23.011  28.267  0.3265 -0.2399 -0.1542
 1400BOLB   C3D33599   9.530  22.548  28.218  0.1949 -0.0690  0.1104
 1400BOLB   C4D33600   9.820  22.177  28.114 -0.1218 -0.1738  0.1592
 1401BOLB   NC133601  10.114  18.513  27.431  0.1151  0.2649  0.5361
 1401BOLB   PO133602   9.732  18.454  27.226  0.2291  0.3100  0.1430
 1401BOLB   GL133603   9.531  18.820  26.990 -0.0325 -0.0732 -0.2102
 1401BOLB   GL233604   9.177  18.708  26.831  0.5696 -0.1444  0.0951
 1401BOLB   C1A33605   9.342  19.198  26.748  0.1643  0.0371  0.0230
 1401BOLB   C2A33606   9.124  19.408  26.474 -0.1067 -0.3660  0.2684
 1401BOLB   C3A33607   8.884  19.697  26.300  0.0919 -0.0771  0.0488
 1401BOLB   C4A33608   8.628  19.859  25.989 -0.1273  0.1065 -0.0438
 1401BOLB   C1B33609   8.861  19.024  26.629 -0.2953 -0.1586 -0.3239
 1401BOLB   C2B33610   8.588  19.286  26.320 -0.1351 -0.0600  0.1286
 1401BOLB   C3B33611   8.206  19.347  26.220 -0.1138 -0.1164  0.0559
 1401BOLB   C4B33612   7.783  19.230  25.938 -0.1845  0.1127  0.2030
 1401BOLB   NC233613   6.083  21.202  25.881  0.1426 -0.0365  0.1597
 1401BOLB   PO233614   6.506  21.306  25.791 -0.0624  0.0314 -0.1740
 1401BOLB   GL333615   6.951  21.169  25.904 -0.1273  0.3193 -0.1576
 1401BOLB   GL433616   7.223  21.260  25.782  0.1087  0.0475  0.2465
 1401BOLB   C1C33617   7.323  20.927  26.192  0.0660  0.1625  0.1067
 1401BOLB   C2C33618   7.717  20.816  26.307  0.2529 -0.3170  0.3078
 1401BOLB   C3C33619   8.030  20.516  26.139  0.0295  0.3084  0.2884
 1401BOLB   C4C33620   8.356  20.190  26.027  0.0422 -0.6374 -0.0893
 1401BOLB   C1D33621   7.594  21.163  25.821 -0.1267  0.1449  0.2255
 1401BOLB   C2D33622   7.971  20.871  25.838 -0.1468  0.0704 -0.0683
 1401BOLB   C3D33623   8.298  20.943  25.497  0.0155 -0.2850 -0.0769
 1401BOLB   C4D33624   8.403  20.840  25.042 -0.1357 -0.2303  0.2109
 1402BOLB   NC133625  13.074   5.244  31.747  0.0889  0.0133  0.2833
 1402BOLB   PO133626  13.373   5.146  32.100 -0.1610 -0.1349 -0.0541
 1402BOLB   GL133627  13.290   4.750  32.308  0.0596  0.2533  0.2210
 1402BOLB   GL233628  12.972   4.583  32.217 -0.0336 -0.1429 -0.0350
 1402BOLB   C1A33629  13.314   4.231  32.431  0.0947 -0.1472  0.0769
 1402BOLB   C2A33630  13.555   3.961  32.529  0.1438  0.2182 -0.0881
 1402BOLB   C3A33631  13.762   3.691  32.806  0.1516 -0.1682  0.2725
 1402BOLB   C4A33632  14.057   3.326  32.937  0.3057  0.1733  0.0125
 1402BOLB   C1B33633  12.658   4.302  32.219  0.0620 -0.2680  0.0652
 1402BOLB   C2B33634  12.283   3.875  32.175  0.2223 -0.0222 -0.0395
 1402BOLB   C3B33635  11.965   3.504  32.286 -0.3557  0.3920 -0.1702
 1402BOLB   C4B33636  11.966   3.195  32.600 -0.0812  0.2469  0.0961
 1402BOLB   NC233637  14.373   0.507  33.279 -0.3065 -0.0174 -0.0031
 1402BOLB   PO233638  14.137   0.844  33.222  0.0697  0.0535 -0.4332
 1402BOLB   GL333639  13.914   1.270  32.912 -0.1922  0.0096  0.1631
 1402BOLB   GL433640  14.201   1.199  32.611 -0.1256 -0.1256  0.3361
 1402BOLB   C1C33641  13.906   1.699  32.756  0.0286  0.3167 -0.1037
 1402BOLB   C2C33642  14.022   2.076  32.669  0.0136 -0.1035  0.1457
 1402BOLB   C3C33643  14.175   2.473  32.857  0.0400  0.2428 -0.0034
 1402BOLB   C4C33644  14.238   2.897  33.084  0.0117  0.2043 -0.2659
 1402BOLB   C1D33645  14.362   1.479  32.188 -0.0738 -0.2143  0.0698
 1402BOLB   C2D33646  14.215   1.980  32.164  0.1253 -0.0334 -0.1315
 1402BOLB   C3D33647  14.123   2.514  32.253  0.1514 -0.1725 -0.2650
 1402BOLB   C4D33648  14.015   2.839  32.611  0.0331  0.0687 -0.0242
 1403BOLB   NC133649  13.241   6.630  36.646 -0.2678  0.1806  0.1960
 1403BOLB   PO133650  12.941   6.499  36.484  0.0132  0.1504  0.2852
 1403BOLB   GL133651  12.536   6.303  36.660 -0.1519 -0.3315  0.1314
 1403BOLB   GL233652  12.323   6.402  36.775 -0.0506 -0.2632  0.1246
 1403BOLB   C1A33653  12.740   5.978  36.981  0.1745 -0.3290 -0.0918
 1403BOLB   C2A33654  12.669   5.549  37.276  0.0850 -0.1042 -0.2135
 1403BOLB   C3A33655  12.560   5.064  37.230  0.0373 -0.0782 -0.1169
 1403BOLB   C4A33656  12.351   4.813  37.102  0.1463  0.0633  0.1922
 1403BOLB   C1B33657  12.249   6.165  37.160 -0.2006  0.0269  0.1907
 1403BOLB   C2B33658  12.076   5.882  37.478 -0.0732  0.1489 -0.1940
 1403BOLB   C3B33659  11.822   5.609  37.509 -0.0727  0.2056 -0.0106
 1403BOLB   C4B33660  11.739   5.237  37.802  0.5272  0.0434  0.1334
 1403BOLB   NC233661  11.054   3.230  37.875 -0.1853  0.0450  0.0605
 1403BOLB   PO233662  10.792   3.350  37.552 -0.1872  0.0591 -0.1152
 1403BOLB   GL333663  10.899   3.530  37.323 -0.0750  0.1809  0.1757
 1403BOLB   GL433664  10.817   3.490  37.076  0.1414  0.1446  0.2045
 1403BOLB   C1C33665  11.351   3.676  37.148 -0.3262 -0.0073  0.1793
 1403BOLB   C2C33666  11.557   4.049  37.137  0.0809 -0.1493  0.0138
 1403BOLB   C3C33667  11.889   4.236  37.040  0.1469 -0.1355 -0.1252
 1403BOLB   C4C33668  12.213   4.503  37.142 -0.1330 -0.0151  0.2103
 1403BOLB   C1D33669  11.118   3.639  36.684 -0.1706  0.2552  0.1530
 1403BOLB   C2D33670  11.364   3.821  36.315  0.2219 -0.0357  0.3238
 1403BOLB   C3D33671  11.500   4.190  36.123  0.1080  0.4397 -0.0489
 1403BOLB   C4D33672  11.696   4.573  36.008  0.2175  0.1420 -0.2283
 1404BOLB   NC133673  14.052  15.287  39.017 -0.0003 -0.0696  0.0321
 1404BOLB   PO133674  14.399  15.564  39.131 -0.3271  0.0951  0.0674
 1404BOLB   GL133675  14.438  15.853  39.387  0.3420 -0.4758 -0.2084
 1404BOLB   GL233676  14.672  16.066  39.422  0.0066 -0.2600  0.0631
 1404BOLB   C1A33677  14.254  16.082  39.814 -0.0704  0.0561  0.2589
 1404BOLB   C2A33678  14.077  16.553  39.942  0.0991 -0.0773  0.0635
 1404BOLB   C3A33679  14.047  16.941  40.181  0.1186 -0.3735  0.0751
 1404BOLB   C4A33680  14.135  17.301  40.327  0.1514  0.0393 -0.2048
 1404BOLB   C1B33681  14.594  16.468  39.622  0.1749  0.3647 -0.0398
 1404BOLB   C2B33682  14.505  16.853  39.994 -0.0503  0.0430 -0.0406
 1404BOLB   C3B33683  14.663  17.208  40.161 -0.0958 -0.0329 -0.1056
 1404BOLB   C4B33684  14.895  17.200  40.505 -0.3896  0.3205 -0.1641
 1404BOLB   NC233685  14.340  19.156  42.204 -0.2118  0.4795 -0.0076
 1404BOLB   PO233686  14.070  18.855  41.993 -0.1250 -0.0525  0.2037
 1404BOLB   GL333687  14.171  18.497  41.842 -0.0764  0.2107  0.1862
 1404BOLB   GL433688  13.960  18.301  41.937 -0.0366 -0.0294 -0.0470
 1404BOLB   C1C33689  14.369  18.218  41.587  0.0860  0.0861 -0.1840
 1404BOLB   C2C33690  14.607  18.046  41.217 -0.2994  0.1835  0.1096
 1404BOLB   C3C33691  14.502  17.736  40.983 -0.0629 -0.0828  0.0416
 1404BOLB   C4C33692  14.339  17.588  40.631 -0.1127  0.1704  0.1373
 1404BOLB   C1D33693  13.875  18.294  41.458 -0.0768 -0.0628 -0.0102
 1404BOLB   C2D33694  13.938  18.282  41.026 -0.3637 -0.1308  0.0923
 1404BOLB   C3D33695  14.110  18.055  40.718 -0.0835  0.1131  0.0690
 1404BOLB   C4D33696  14.174  18.335  40.290 -0.0297  0.3555 -0.0604
 1405BOLB   NC133697  21.849   7.064  30.486 -0.2513  0.2122 -0.3771
 1405BOLB   PO133698  22.371   7.172  30.499 -0.1847 -0.3045  0.0715
 1405BOLB   GL133699  22.701   6.866  30.753 -0.1240  0.1159  0.2950
 1405BOLB   GL233700  22.991   7.133  31.034  0.3959 -0.0519 -0.1357
 1405BOLB   C1A33701  23.116   6.622  30.602 -0.0896  0.1552 -0.3366
 1405BOLB   C2A33702  23.443   6.413  30.621 -0.0375 -0.0100 -0.2036
 1405BOLB   C3A33703  23.489   6.037  30.807  0.0790 -0.2344 -0.0149
 1405BOLB   C4A33704  23.819   5.800  30.946  0.0607 -0.0719 -0.0179
 1405BOLB   C1B33705  23.411   6.991  31.035  0.0381  0.0246  0.0389
 1405BOLB   C2B33706  23.725   6.675  31.125  0.0973 -0.1221 -0.1326
 1405BOLB   C3B33707  23.864   6.355  30.915 -0.1507  0.1462  0.2387
 1405BOLB   C4B33708  24.083   6.032  30.639 -0.2967 -0.0161  0.0209
 1405BOLB   NC233709  26.437   4.700  31.569  0.1243  0.1078  0.0949
 1405BOLB   PO233710  26.074   4.721  31.608  0.4045 -0.0449  0.3180
 1405BOLB   GL333711  25.674   5.008  31.728  0.4544  0.0074  0.1002
 1405BOLB   GL433712  25.591   5.239  31.575 -0.0149  0.0553 -0.2830
 1405BOLB   C1C33713  25.148   5.036  31.465 -0.3179  0.0834  0.2877
 1405BOLB   C2C33714  24.938   5.276  31.147  0.1003  0.2370 -0.0669
 1405BOLB   C3C33715  24.586   5.297  30.906 -0.0541  0.4675 -0.4316
 1405BOLB   C4C33716  24.180   5.595  30.978 -0.3380  0.1143 -0.1214
 1405BOLB   C1D33717  25.298   5.552  31.514  0.1905  0.0543  0.2666
 1405BOLB   C2D33718  25.013   5.822  31.304 -0.1630  0.2016 -0.4389
 1405BOLB   C3D33719  24.981   6.070  31.006 -0.0411 -0.0541  0.0065
 1405BOLB   C4D33720  24.678   6.288  30.830  0.0899  0.0080  0.0426
 1406BOLB   NC133721   9.938  19.732  33.081  0.1998 -0.1116  0.1609
 1406BOLB   PO133722  10.168  19.647  33.342 -0.4089  0.0804 -0.0807
 1406BOLB   GL133723   9.805  19.855  33.625  0.0703  0.0111 -0.0477
 1406BOLB   GL233724   9.549  19.916  33.417 -0.0643  0.0808 -0.2427
 1406BOLB   C1A33725   9.700  20.290  33.700 -0.1762  0.3404 -0.1513
 1406BOLB   C2A33726   9.513  20.612  33.941 -0.1535 -0.1339 -0.1791
 1406BOLB   C3A33727   9.352  20.984  34.190 -0.0815  0.0635  0.0424
 1406BOLB   C4A33728   9.055  21.203  34.441 -0.2900  0.1825 -0.4266
 1406BOLB   C1B33729   9.251  20.116  33.743 -0.0813  0.2895  0.0050
 1406BOLB   C2B33730   9.023  20.467  34.037  0.1282  0.1127 -0.0163
 1406BOLB   C3B33731   8.481  20.644  34.131 -0.1651 -0.0128 -0.1337
 1406BOLB   C4B33732   8.186  20.286  33.808 -0.3925  0.0688  0.0865
 1406BOLB   NC233733   7.686  22.386  35.451  0.2514 -0.1288  0.1178
 1406BOLB   PO233734   7.678  22.318  35.919 -0.1624 -0.0794  0.0351
 1406BOLB   GL333735   7.915  21.985  35.663 -0.3359 -0.0846  0.3244
 1406BOLB   GL433736   7.663  21.762  35.693  0.2177  0.2544  0.2464
 1406BOLB   C1C33737   8.191  21.690  35.554  0.2809 -0.1332 -0.3716
 1406BOLB   C2C33738   8.291  21.319  35.499 -0.0032  0.1353  0.3318
 1406BOLB   C3C33739   8.470  21.044  35.106 -0.2134  0.2623 -0.0861
 1406BOLB   C4C33740   8.783  20.973  34.851 -0.1459 -0.1564 -0.1554
 1406BOLB   C1D33741   7.658  21.431  35.322 -0.0191  0.3284 -0.5366
 1406BOLB   C2D33742   7.389  21.400  34.992  0.0749 -0.1028  0.0132
 1406BOLB   C3D33743   7.532  21.290  34.718 -0.2362  0.2215  0.2922
 1406BOLB   C4D33744   7.474  21.196  34.305 -0.0541 -0.0782 -0.1558
 1407BOLB   NC133745  10.446   8.861  36.010 -0.2620  0.2985  0.1074
 1407BOLB   PO133746  10.875   8.610  36.184 -0.0999 -0.2369 -0.3289
 1407BOLB   GL133747  10.631   8.492  36.531 -0.3080 -0.2401 -0.0639
 1407BOLB   GL233748  10.339   8.495  36.428 -0.2414 -0.0669 -0.0326
 1407BOLB   C1A33749  10.427   8.071  36.607 -0.1725  0.5340 -0.1303
 1407BOLB   C2A33750  10.228   7.884  36.810  0.1713 -0.0100 -0.1480
 1407BOLB   C3A33751  10.103   7.688  37.043  0.3200  0.0008  0.0662
 1407BOLB   C4A33752   9.991   7.548  37.536  0.3251 -0.0414 -0.0459
 1407BOLB   C1B33753  10.329   8.486  36.962 -0.0598 -0.2317  0.2013
 1407BOLB   C2B33754  10.399   8.521  37.419 -0.4044  0.0913  0.0512
 1407BOLB   C3B33755  10.286   8.658  37.812 -0.2713 -0.2390 -0.1211
 1407BOLB   C4B33756  10.250   8.799  38.248 -0.1864  0.1693 -0.0431
 1407BOLB   NC233757   8.055   7.164  38.753  0.0371 -0.1017  0.0840
 1407BOLB   PO233758   8.145   6.850  39.035 -0.0270 -0.0533 -0.3152
 1407BOLB   GL333759   8.504   6.986  38.776 -0.0104 -0.4154  0.1248
 1407BOLB   GL433760   8.572   7.336  38.894  0.0734  0.1443 -0.0581
 1407BOLB   C1C33761   8.766   7.231  38.355 -0.0812  0.2102  0.0017
 1407BOLB   C2C33762   9.025   7.261  37.997 -0.2644 -0.0452 -0.1446
 1407BOLB   C3C33763   9.286   7.415  37.752  0.0254  0.1388  0.2941
 1407BOLB   C4C33764   9.662   7.326  37.659 -0.4131 -0.0806  0.2457
 1407BOLB   C1D33765   8.490   7.691  38.615  0.1010  0.0599  0.2502
 1407BOLB   C2D33766   8.314   8.002  38.294  0.0339  0.0166 -0.0244
 1407BOLB   C3D33767   7.981   8.002  38.003 -0.0347  0.1692 -0.0463
 1407BOLB   C4D33768   7.794   8.074  37.703 -0.2118 -0.3516 -0.0363
 1408BOLB   NC133769  23.134  13.200  35.229 -0.3337 -0.0692  0.0837
 1408BOLB   PO133770  22.931  13.255  35.658  0.1471 -0.2207  0.0100
 1408BOLB   GL133771  23.428  13.189  35.593  0.4512 -0.2066 -0.0405
 1408BOLB   GL233772  23.361  13.436  35.813  0.0279  0.1844 -0.2437
 1408BOLB   C1A33773  23.696  13.110  35.778 -0.3842  0.1320  0.0664
 1408BOLB   C2A33774  23.969  13.007  36.011  0.1040  0.2606 -0.3201
 1408BOLB   C3A33775  24.340  13.226  36.182 -0.0296  0.0974 -0.1995
 1408BOLB   C4A33776  24.810  13.197  36.271 -0.0170  0.0090 -0.0909
 1408BOLB   C1B33777  23.835  13.568  35.775  0.0801  0.0849 -0.1063
 1408BOLB   C2B33778  24.225  13.454  35.644  0.0512 -0.1053  0.0149
 1408BOLB   C3B33779  24.587  13.456  35.827  0.0099 -0.0176  0.2194
 1408BOLB   C4B33780  25.079  13.466  35.663  0.0494 -0.0658  0.3664
 1408BOLB   NC233781  26.690  14.777  37.683 -0.0811 -0.2372 -0.1527
 1408BOLB   PO233782  26.556  14.397  37.541 -0.3176  0.1191 -0.2031
 1408BOLB   GL333783  26.326  14.226  37.223 -0.1849  0.0111  0.0236
 1408BOLB   GL433784  26.038  14.199  37.311 -0.0796  0.2692  0.1814
 1408BOLB   C1C33785  26.076  14.201  36.852  0.2340  0.0687 -0.3577
 1408BOLB   C2C33786  25.790  13.935  36.718  0.0500  0.2096 -0.3113
 1408BOLB   C3C33787  25.643  13.619  36.500  0.0321 -0.0435 -0.4298
 1408BOLB   C4C33788  25.284  13.412  36.278  0.0558  0.3680  0.0175
 1408BOLB   C1D33789  25.663  13.939  37.204 -0.0186 -0.1554 -0.3211
 1408BOLB   C2D33790  25.201  14.050  37.290  0.0595 -0.2193  0.1788
 1408BOLB   C3D33791  24.780  14.050  37.515 -0.1426  0.1751  0.0942
 1408BOLB   C4D33792  24.454  14.178  37.835  0.1015  0.2183  0.1261
 1409BOLB   NC133793  13.702   4.567  30.013 -0.2145  0.0607  0.2563
 1409BOLB   PO133794  13.837   4.770  30.348 -0.0021 -0.1983  0.1273
 1409BOLB   GL133795  13.820   4.332  30.587 -0.0523 -0.2347 -0.0601
 1409BOLB   GL233796  13.972   4.185  30.822 -0.2222 -0.2345 -0.1899
 1409BOLB   C1A33797  13.528   3.988  30.680  0.1100  0.0058  0.0068
 1409BOLB   C2A33798  13.227   3.629  30.534  0.0357  0.0693  0.0071
 1409BOLB   C3A33799  12.917   3.510  30.635  0.3757  0.1154  0.1566
 1409BOLB   C4A33800  12.574   3.255  30.504 -0.3578 -0.0852 -0.5637
 1409BOLB   C1B33801  13.968   3.817  30.888  0.0952 -0.2399  0.1376
 1409BOLB   C2B33802  13.634   3.491  30.910  0.0119 -0.1233 -0.0116
 1409BOLB   C3B33803  13.580   3.129  31.156  0.1894  0.2359 -0.0376
 1409BOLB   C4B33804  13.698   2.729  31.263 -0.0244 -0.3335 -0.0993
 1409BOLB   NC233805  12.758   0.925  30.478 -0.0025 -0.1070 -0.1796
 1409BOLB   PO233806  12.857   0.701  30.165  0.3800  0.1180  0.1881
 1409BOLB   GL333807  12.580   1.127  29.972  0.0482 -0.0329  0.2045
 1409BOLB   GL433808  12.541   1.233  29.647 -0.0878 -0.0098 -0.0720
 1409BOLB   C1C33809  12.617   1.640  30.065  0.0359 -0.3569 -0.1847
 1409BOLB   C2C33810  12.582   2.089  30.051 -0.0241  0.0357  0.1024
 1409BOLB   C3C33811  12.628   2.570  30.104  0.2136  0.0212 -0.1163
 1409BOLB   C4C33812  12.559   2.948  30.244 -0.0931  0.0382  0.1804
 1409BOLB   C1D33813  12.628   1.570  29.315  0.1119  0.0104 -0.1315
 1409BOLB   C2D33814  12.789   1.941  29.165 -0.1373 -0.2041 -0.1946
 1409BOLB   C3D33815  13.028   2.373  29.237  0.3256 -0.3060 -0.1225
 1409BOLB   C4D33816  13.220   2.744  29.426 -0.1174 -0.1465  0.2296
 1410BOLB   NC133817   3.248  10.995  32.512  0.0960 -0.2723 -0.0331
 1410BOLB   PO133818   3.557  11.153  32.261  0.1324  0.2858  0.2520
 1410BOLB   GL133819   3.938  11.043  32.210 -0.0892  0.0403  0.0142
 1410BOLB   GL233820   4.049  11.294  32.325 -0.2107  0.1064 -0.0942
 1410BOLB   C1A33821   4.137  10.629  32.117 -0.1922 -0.0717  0.2091
 1410BOLB   C2A33822   4.458  10.511  31.819  0.2103 -0.0447 -0.1028
 1410BOLB   C3A33823   4.757  10.613  31.637  0.0436 -0.3719 -0.0754
 1410BOLB   C4A33824   5.055  10.741  31.379  0.0152 -0.2773 -0.3034
 1410BOLB   C1B33825   4.443  11.544  32.223  0.1626  0.0329  0.0446
 1410BOLB   C2B33826   4.674  11.780  31.898  0.2375  0.1250 -0.1749
 1410BOLB   C3B33827   4.615  12.250  31.784 -0.3213  0.2587 -0.3011
 1410BOLB   C4B33828   4.429  12.646  31.720  0.2612 -0.3749  0.0192
 1410BOLB   NC233829   3.643  10.154  30.103  0.0400 -0.1320  0.4245
 1410BOLB   PO233830   3.383  10.504  30.215 -0.0826  0.0994 -0.0905
 1410BOLB   GL333831   3.696  10.734  30.256 -0.2458 -0.2956  0.2525
 1410BOLB   GL433832   3.848  10.556  30.396  0.1903  0.1264  0.1424
 1410BOLB   C1C33833   4.082  10.988  30.365 -0.0273 -0.1421  0.2656
 1410BOLB   C2C33834   4.323  11.168  30.672  0.2725 -0.1385  0.1241
 1410BOLB   C3C33835   4.760  11.218  30.875 -0.3133 -0.3846  0.1078
 1410BOLB   C4C33836   4.970  10.987  31.237 -0.0643 -0.0572 -0.2376
 1410BOLB   C1D33837   4.212  10.331  30.361 -0.0756 -0.0525 -0.2532
 1410BOLB   C2D33838   4.493   9.999  30.669 -0.1652  0.1376 -0.1343
 1410BOLB   C3D33839   4.950   9.755  30.710 -0.3524  0.1651 -0.1458
 1410BOLB   C4D33840   5.390   9.837  30.780 -0.0732 -0.2443 -0.0101
 1411BOLB   NC133841  11.161  15.943  37.466  0.1937 -0.1002 -0.0562
 1411BOLB   PO133842  11.135  15.593  37.377 -0.0710 -0.1895 -0.1785
 1411BOLB   GL133843  10.967  15.549  37.780 -0.2024 -0.0867  0.0680
 1411BOLB   GL233844  11.078  15.690  37.915 -0.4001 -0.3333  0.2576
 1411BOLB   C1A33845  10.475  15.801  37.943  0.1731  0.1186 -0.1343
 1411BOLB   C2A33846  10.088  15.997  38.122  0.2598 -0.2008  0.0366
 1411BOLB   C3A33847   9.801  16.346  38.139  0.2808 -0.1546  0.3434
 1411BOLB   C4A33848   9.636  16.650  38.125  0.3500 -0.0011 -0.0218
 1411BOLB   C1B33849  10.806  15.893  38.258  0.3949 -0.0374  0.2095
 1411BOLB   C2B33850  10.593  16.053  38.604  0.0463 -0.0220 -0.0301
 1411BOLB   C3B33851  10.570  16.324  38.916 -0.0988  0.3197  0.0585
 1411BOLB   C4B33852  10.783  16.498  39.321  0.0103  0.2432  0.0160
 1411BOLB   NC233853   7.254  17.316  39.290  0.0090  0.1705 -0.2957
 1411BOLB   PO233854   7.684  17.263  39.271 -0.0504  0.1282 -0.0134
 1411BOLB   GL333855   7.846  16.997  38.999 -0.3853  0.1026  0.4561
 1411BOLB   GL433856   7.694  16.857  38.697 -0.3346  0.0792 -0.0830
 1411BOLB   C1C33857   8.154  17.000  38.535  0.2024  0.1340  0.0559
 1411BOLB   C2C33858   8.532  17.015  38.290  0.0395  0.1563 -0.2243
 1411BOLB   C3C33859   9.008  17.016  38.212 -0.0344  0.2241  0.2651
 1411BOLB   C4C33860   9.421  16.920  38.351 -0.0134 -0.1910 -0.0991
 1411BOLB   C1D33861   7.598  16.725  38.151  0.1670  0.1207  0.0383
 1411BOLB   C2D33862   7.933  16.473  37.984  0.1234  0.0221  0.0420
 1411BOLB   C3D33863   8.170  16.243  37.687 -0.1913  0.1819 -0.1782
 1411BOLB   C4D33864   8.278  16.123  37.193 -0.2276  0.5209  0.2680
 1412BOLB   NC133865  21.978  19.629  38.994 -0.1572  0.4344  0.0694
 1412BOLB   PO133866  21.664  19.348  39.273  0.1698 -0.0255  0.1178
 1412BOLB   GL133867  21.332  19.191  39.044  0.1523  0.1544 -0.2260
 1412BOLB   GL233868  21.133  19.481  38.830  0.0946  0.1907  0.0548
 1412BOLB   C1A33869  21.074  18.945  38.847  0.0981  0.2554  0.0765
 1412BOLB   C2A33870  20.749  18.782  38.433  0.0084  0.0590 -0.1885
 1412BOLB   C3A33871  20.508  18.785  38.009  0.1285 -0.0412  0.1252
 1412BOLB   C4A33872  20.330  19.019  37.618  0.1112 -0.2217 -0.1251
 1412BOLB   C1B33873  20.855  19.333  38.536 -0.0001 -0.0607 -0.4058
 1412BOLB   C2B33874  20.582  19.321  38.185  0.0027 -0.1289  0.0455
 1412BOLB   C3B33875  20.258  19.350  38.079 -0.1286  0.0797  0.2118
 1412BOLB   C4B33876  19.906  19.531  38.246 -0.2066  0.0088 -0.0585
 1412BOLB   NC233877  21.275  21.391  37.183  0.3395  0.1118 -0.3738
 1412BOLB   PO233878  21.220  21.057  37.524 -0.1799  0.0331 -0.0774
 1412BOLB   GL333879  20.940  20.671  37.541 -0.0244  0.0349 -0.1414
 1412BOLB   GL433880  20.740  20.643  37.801  0.5641 -0.2364 -0.0531
 1412BOLB   C1C33881  21.121  20.254  37.466  0.0367 -0.1057 -0.0714
 1412BOLB   C2C33882  21.053  19.899  37.437  0.2907  0.1870 -0.2901
 1412BOLB   C3C33883  20.719  19.670  37.393 -0.0059  0.3273  0.3047
 1412BOLB   C4C33884  20.346  19.383  37.483 -0.2733 -0.0131  0.2944
 1412BOLB   C1D33885  20.665  20.233  37.633  0.2175  0.4833 -0.1580
 1412BOLB   C2D33886  20.271  20.071  37.401  0.4152  0.1580 -0.1690
 1412BOLB   C3D33887  20.047  19.776  37.188 -0.2309 -0.0438 -0.1387
 1412BOLB   C4D33888  19.633  19.642  37.210  0.2027 -0.1642 -0.0497
 1413BOLB   NC133889  12.716  20.019  25.179  0.1466 -0.0498 -0.1892
 1413BOLB   PO133890  12.163  20.098  25.084  0.0990 -0.0772  0.0571
 1413BOLB   GL133891  12.141  20.536  24.861 -0.1401  0.0477 -0.4294
 1413BOLB   GL233892  12.291  20.715  24.590 -0.0038 -0.0090 -0.0848
 1413BOLB   C1A33893  11.968  21.014  24.974  0.0752 -0.0805 -0.2079
 1413BOLB   C2A33894  11.839  21.490  25.085 -0.1214  0.1788  0.4533
 1413BOLB   C3A33895  11.674  21.920  25.083  0.0983 -0.2580 -0.0195
 1413BOLB   C4A33896  11.620  22.281  24.904 -0.0806 -0.3185 -0.0193
 1413BOLB   C1B33897  12.085  21.026  24.486  0.1267 -0.0237  0.1279
 1413BOLB   C2B33898  11.758  20.990  24.198 -0.0821 -0.1744  0.2659
 1413BOLB   C3B33899  11.492  20.979  23.892  0.0927  0.1192 -0.0758
 1413BOLB   C4B33900  11.335  20.771  23.435 -0.1018  0.1618 -0.1256
 1413BOLB   NC233901  10.513  24.206  23.579 -0.0747  0.3588 -0.1272
 1413BOLB   PO233902  10.829  24.062  23.865  0.2829 -0.1183  0.1902
 1413BOLB   GL333903  11.046  24.012  24.211 -0.1019  0.0673  0.0976
 1413BOLB   GL433904  10.926  24.033  24.465 -0.0917 -0.4217  0.3063
 1413BOLB   C1C33905  11.513  23.783  24.253 -0.1722 -0.3289  0.0321
 1413BOLB   C2C33906  11.677  23.342  24.262  0.0091  0.2285 -0.0785
 1413BOLB   C3C33907  11.626  22.943  24.467 -0.4987 -0.1236 -0.0747
 1413BOLB   C4C33908  11.641  22.680  24.776 -0.1324  0.0261  0.1184
 1413BOLB   C1D33909  11.127  23.513  24.477  0.2759 -0.1839  0.0521
 1413BOLB   C2D33910  11.345  23.263  24.719 -0.3021 -0.1125  0.2732
 1413BOLB   C3D33911  11.238  22.939  25.089  0.0173  0.1284  0.0300
 1413BOLB   C4D33912  11.280  22.911  25.549 -0.2042  0.0193 -0.1937
 1414BOLB   NC133913  11.577   7.354  24.684  0.1973 -0.2020  0.3045
 1414BOLB   PO133914  11.591   6.938  24.764  0.0589 -0.1578  0.0819
 1414BOLB   GL133915  11.398   6.646  24.503 -0.1641 -0.2429 -0.0659
 1414BOLB   GL233916  11.578   6.582  24.198 -0.1449 -0.2438 -0.0538
 1414BOLB   C1A33917  10.997   6.532  24.313  0.0154  0.2114 -0.1414
 1414BOLB   C2A33918  10.758   6.362  24.088  0.0907 -0.1573  0.3179
 1414BOLB   C3A33919  10.742   5.974  23.854  0.1346  0.1573  0.0878
 1414BOLB   C4A33920  10.549   5.610  23.901  0.1229  0.3801  0.1096
 1414BOLB   C1B33921  11.327   6.335  23.987  0.0988 -0.2779  0.1894
 1414BOLB   C2B33922  11.216   6.081  23.603  0.0572  0.0176  0.1350
 1414BOLB   C3B33923  11.038   6.014  23.214  0.3077 -0.5631 -0.2249
 1414BOLB   C4B33924  10.874   5.821  22.762  0.0683  0.1722 -0.2992
 1414BOLB   NC233925   8.808   4.610  22.684 -0.3022  0.1855  0.0543
 1414BOLB   PO233926   9.111   4.453  22.685  0.2515  0.1591 -0.1464
 1414BOLB   GL333927   9.394   4.586  22.868 -0.0967 -0.2523 -0.0310
 1414BOLB   GL433928   9.681   4.401  22.916  0.2400  0.0346  0.2474
 1414BOLB   C1C33929   9.540   4.761  23.249  0.0628  0.0427  0.0004
 1414BOLB   C2C33930   9.754   5.005  23.517  0.0555 -0.5076 -0.0862
 1414BOLB   C3C33931  10.127   5.202  23.558 -0.3496 -0.0812  0.1111
 1414BOLB   C4C33932  10.248   5.584  23.605 -0.1354 -0.1030 -0.0461
 1414BOLB   C1D33933   9.797   4.880  22.847 -0.1767 -0.0042 -0.0679
 1414BOLB   C2D33934   9.705   5.229  23.056  0.0893 -0.0566  0.0163
 1414BOLB   C3D33935   9.710   5.563  23.407  0.0563  0.0501 -0.2284
 1414BOLB   C4D33936   9.874   5.985  23.543  0.1953 -0.2670 -0.0833
 1415BOLB   NC133937  14.549  20.953  26.020  0.4215  0.0992  0.0830
 1415BOLB   PO133938  14.178  20.674  26.104 -0.1952  0.0105 -0.0054
 1415BOLB   GL133939  14.108  21.069  25.801  0.0793 -0.0825  0.0185
 1415BOLB   GL233940  14.199  21.434  25.815 -0.0981 -0.2487  0.0114
 1415BOLB   C1A33941  14.129  21.286  25.373 -0.2440  0.0470 -0.2079
 1415BOLB   C2A33942  14.094  21.640  25.050 -0.2014  0.3072  0.4368
 1415BOLB   C3A33943  14.280  21.846  24.707  0.2430 -0.2266 -0.0736
 1415BOLB   C4A33944  14.348  21.846  24.209 -0.1296 -0.2636 -0.2173
 1415BOLB   C1B33945  14.199  21.825  25.500  0.1147  0.0651 -0.2436
 1415BOLB   C2B33946  14.178  22.199  25.098  0.5858  0.3329 -0.1559
 1415BOLB   C3B33947  14.455  22.560  25.070  0.5770  0.0610  0.0137
 1415BOLB   C4B33948  14.705  22.845  25.220 -0.3278  0.0782  0.0720
 1415BOLB   NC233949  14.498  23.640  22.555 -0.0324 -0.0169  0.0820
 1415BOLB   PO233950  14.341  23.804  22.878 -0.4623  0.2741 -0.0309
 1415BOLB   GL333951  14.576  23.451  22.997  0.1492 -0.0188 -0.0570
 1415BOLB   GL433952  14.859  23.293  22.810 -0.0875 -0.3022 -0.1396
 1415BOLB   C1C33953  14.454  23.011  22.949  0.0284  0.0352  0.1896
 1415BOLB   C2C33954  14.575  22.581  23.124 -0.4144 -0.1082  0.0702
 1415BOLB   C3C33955  14.546  22.260  23.392  0.0269  0.0516 -0.2774
 1415BOLB   C4C33956  14.314  22.072  23.737  0.0749  0.5519 -0.1435
 1415BOLB   C1D33957  15.117  22.920  22.858  0.0745 -0.0345  0.1033
 1415BOLB   C2D33958  15.277  22.543  22.774 -0.3922 -0.0133  0.1939
 1415BOLB   C3D33959  15.337  22.182  22.994  0.1948 -0.0174 -0.2521
 1415BOLB   C4D33960  15.369  21.891  23.275 -0.0093  0.2865 -0.1219
 1416BOLB   NC133961   8.955  15.956  25.817  0.0960 -0.5285  0.1284
 1416BOLB   PO133962   8.563  15.933  26.135  0.1129 -0.1593 -0.2774
 1416BOLB   GL133963   8.219  16.080  25.971  0.1687 -0.1916  0.0572
 1416BOLB   GL233964   8.112  16.288  25.779  0.1487 -0.1082  0.2801
 1416BOLB   C1A33965   7.873  15.849  25.881  0.3684  0.0553 -0.2070
 1416BOLB   C2A33966   7.756  15.406  25.831  0.1920  0.1057  0.3646
 1416BOLB   C3A33967   7.406  15.363  25.576 -0.1413  0.0128 -0.2389
 1416BOLB   C4A33968   7.039  15.517  25.440 -0.2024  0.1575 -0.3158
 1416BOLB   C1B33969   7.734  16.339  25.571  0.0288 -0.1842  0.0251
 1416BOLB   C2B33970   7.383  16.541  25.321  0.3650 -0.2895  0.0886
 1416BOLB   C3B33971   7.345  16.689  24.859  0.1015  0.1980 -0.0356
 1416BOLB   C4B33972   7.076  16.595  24.407 -0.1596  0.2512 -0.0307
 1416BOLB   NC233973   5.199  15.286  24.228  0.1659  0.0205 -0.0321
 1416BOLB   PO233974   4.970  15.673  24.447 -0.2147 -0.0669 -0.3160
 1416BOLB   GL333975   5.299  15.652  24.598  0.1575  0.1062  0.1733
 1416BOLB   GL433976   5.229  15.332  24.823 -0.0262  0.1610 -0.3266
 1416BOLB   C1C33977   5.684  15.687  24.732  0.0421  0.0942  0.1813
 1416BOLB   C2C33978   6.120  15.774  24.712 -0.2455 -0.0796  0.1410
 1416BOLB   C3C33979   6.485  15.624  24.872 -0.0178  0.1338  0.1139
 1416BOLB   C4C33980   6.787  15.475  25.180  0.1072 -0.3945  0.0174
 1416BOLB   C1D33981   5.339  15.367  25.202  0.1727  0.1625 -0.0556
 1416BOLB   C2D33982   5.418  15.504  25.650 -0.2122  0.0099 -0.3252
 1416BOLB   C3D33983   5.571  15.525  26.068  0.0776 -0.0421  0.4733
 1416BOLB   C4D33984   5.876  15.573  26.361  0.0307  0.3771  0.0752
 1417BOLB   NC133985  12.248   5.796  34.825 -0.1540 -0.2067 -0.0377
 1417BOLB   PO133986  12.685   5.635  34.739  0.0769  0.3401  0.2459
 1417BOLB   GL133987  12.518   5.305  34.826  0.0791 -0.3471 -0.5992
 1417BOLB   GL233988  12.471   5.118  34.556 -0.0542  0.3368  0.0644
 1417BOLB   C1A33989  12.559   4.945  35.061  0.1164 -0.1978  0.0054
 1417BOLB   C2A33990  12.351   4.969  35.445  0.1496  0.1511 -0.2353
 1417BOLB   C3A33991  12.297   4.595  35.773  0.1790 -0.0756  0.0326
 1417BOLB   C4A33992  12.106   4.409  36.283 -0.2419  0.0496 -0.0255
 1417BOLB   C1B33993  12.585   4.651  34.597  0.1170 -0.0804 -0.0764
 1417BOLB   C2B33994  12.322   4.325  34.714  0.3897  0.0980 -0.0348
 1417BOLB   C3B33995  12.105   3.926  34.639  0.4420  0.2288  0.2142
 1417BOLB   C4B33996  11.822   3.538  34.800 -0.0366  0.2865 -0.3207
 1417BOLB   NC233997  11.924   2.770  37.816 -0.0137 -0.1511 -0.1231
 1417BOLB   PO233998  11.634   2.622  37.404 -0.1821  0.0104 -0.0080
 1417BOLB   GL333999  11.945   2.941  37.349  0.2377  0.4354  0.4175
 1417BOLB   GL434000  12.199   2.956  37.154 -0.0500  0.0948 -0.1775
 1417BOLB   C1C34001  12.219   3.402  37.486 -0.4173  0.2732 -0.2524
 1417BOLB   C2C34002  12.353   3.638  37.238 -0.0212 -0.0298  0.0298
 1417BOLB   C3C34003  12.369   3.956  36.994 -0.1518  0.0071 -0.1267
 1417BOLB   C4C34004  12.284   4.291  36.686 -0.3034  0.0894  0.1046
 1417BOLB   C1D34005  12.107   3.259  36.990  0.0139  0.1234  0.0002
 1417BOLB   C2D34006  12.203   3.592  36.718 -0.1528  0.1461  0.0883
 1417BOLB   C3D34007  12.440   3.870  36.465  0.0939 -0.0153  0.0893
 1417BOLB   C4D34008  12.566   4.186  36.225 -0.3125  0.1009  0.0164
 1418BOLB   NC134009  15.480  18.747  36.837 -0.0801  0.2535 -0.0779
 1418BOLB   PO134010  15.379  19.189  36.650  0.0993 -0.0603  0.0276
 1418BOLB   GL134011  15.599  19.271  36.961 -0.1419 -0.0985  0.1079
 1418BOLB   GL234012  15.679  19.583  36.761  0.0226  0.2204 -0.0583
 1418BOLB   C1A34013  15.858  19.654  37.241 -0.1561  0.2144 -0.0375
 1418BOLB   C2A34014  16.024  19.910  37.485 -0.1727  0.1458 -0.1997
 1418BOLB   C3A34015  16.081  20.398  37.652 -0.1678  0.1568  0.3413
 1418BOLB   C4A34016  16.313  20.745  37.625 -0.0832  0.0975  0.0987
 1418BOLB   C1B34017  16.096  19.798  36.840 -0.2908 -0.2551  0.1652
 1418BOLB   C2B34018  16.474  20.060  36.986  0.4031 -0.0111 -0.2219
 1418BOLB   C3B34019  16.483  20.483  37.256  0.1389  0.2118  0.1984
 1418BOLB   C4B34020  16.871  20.650  37.506 -0.3477 -0.0108 -0.1165
 1418BOLB   NC234021  16.986  21.836  39.152  0.2666 -0.0608  0.1922
 1418BOLB   PO234022  17.112  22.285  38.993  0.0301 -0.2477  0.1711
 1418BOLB   GL334023  16.933  22.073  38.566 -0.0471  0.0642  0.0244
 1418BOLB   GL434024  17.049  22.214  38.266 -0.0351 -0.2041 -0.0910
 1418BOLB   C1C34025  16.762  21.817  38.334 -0.1338 -0.3249 -0.1920
 1418BOLB   C2C34026  16.472  21.574  38.046 -0.2740 -0.2481 -0.0819
 1418BOLB   C3C34027  16.599  21.371  37.782 -0.2398  0.2341 -0.2186
 1418BOLB   C4C34028  16.562  21.033  37.534  0.0355 -0.0261 -0.1319
 1418BOLB   C1D34029  16.620  22.441  38.152  0.0232  0.3041 -0.3595
 1418BOLB   C2D34030  16.437  22.197  38.458 -0.3326  0.1261 -0.0216
 1418BOLB   C3D34031  16.423  21.785  38.671 -0.0365 -0.1667 -0.0276
 1418BOLB   C4D34032  16.006  21.562  38.718  0.2264 -0.0069 -0.1331
 1419BOLB   NC134033   9.484  18.279  26.850 -0.0031 -0.0150  0.0844
 1419BOLB   PO134034   9.297  17.902  26.772 -0.1472  0.1230 -0.1124
 1419BOLB   GL134035   8.960  18.081  26.652 -0.1977  0.0630 -0.0737
 1419BOLB   GL234036   9.020  18.404  26.481 -0.0824  0.0496  0.3853
 1419BOLB   C1A34037   8.563  18.154  26.412  0.0288  0.1413  0.0720
 1419BOLB   C2A34038   8.242  18.347  26.284 -0.0928 -0.0868 -0.3273
 1419BOLB   C3A34039   7.961  18.354  26.043  0.1595 -0.0432 -0.3118
 1419BOLB   C4A34040   7.622  18.592  25.979  0.0985 -0.1733 -0.0394
 1419BOLB   C1B34041   8.696  18.608  26.475  0.0138  0.0515  0.2296
 1419BOLB   C2B34042   8.359  18.898  26.581  0.3485 -0.1263 -0.0171
 1419BOLB   C3B34043   7.969  19.027  26.775 -0.1668  0.1792 -0.1403
 1419BOLB   C4B34044   7.630  19.275  26.928 -0.0188 -0.0122 -0.0609
 1419BOLB   NC234045   6.463  20.484  23.958  0.1444  0.1062 -0.1966
 1419BOLB   PO234046   6.321  20.219  24.434  0.0887  0.3031  0.0429
 1419BOLB   GL334047   6.712  19.962  24.653 -0.4630 -0.0482  0.2711
 1419BOLB   GL434048   6.756  19.661  24.496 -0.1751  0.2478  0.0026
 1419BOLB   C1C34049   6.782  19.599  25.075 -0.1703  0.0289  0.0035
 1419BOLB   C2C34050   6.771  19.466  25.589 -0.3079 -0.0934  0.1302
 1419BOLB   C3C34051   7.137  19.218  25.769  0.0186 -0.0383 -0.1878
 1419BOLB   C4C34052   7.371  18.966  26.013 -0.1264 -0.2158  0.0223
 1419BOLB   C1D34053   7.111  19.432  24.395  0.0439  0.2689 -0.0547
 1419BOLB   C2D34054   7.609  19.477  24.589 -0.3186 -0.0258 -0.3888
 1419BOLB   C3D34055   8.003  19.536  24.529 -0.3347 -0.0502  0.0309
 1419BOLB   C4D34056   8.354  19.338  24.362 -0.2796  0.2849 -0.0123
 1420BOLB   NC134057  22.987   9.047  26.630 -0.0846  0.1293 -0.0252
 1420BOLB   PO134058  22.872   8.578  26.497 -0.2048  0.0489  0.1152
 1420BOLB   GL134059  23.217   8.666  26.209 -0.0732  0.1189 -0.2907
 1420BOLB   GL234060  23.413   8.911  26.385  0.0871 -0.0083 -0.2137
 1420BOLB   C1A34061  23.444   8.453  25.969  0.1385 -0.1627  0.1135
 1420BOLB   C2A34062  23.844   8.370  25.921  0.1421 -0.2503  0.0291
 1420BOLB   C3A34063  24.132   8.207  25.646 -0.1346 -0.1025  0.1418
 1420BOLB   C4A34064  24.388   7.964  25.696  0.4511  0.0026 -0.1112
 1420BOLB   C1B34065  23.792   8.846  26.172 -0.0576 -0.2473  0.2007
 1420BOLB   C2B34066  24.146   9.034  25.952  0.1310  0.0652  0.2469
 1420BOLB   C3B34067  24.436   8.934  25.654  0.1601 -0.1450 -0.1099
 1420BOLB   C4B34068  24.971   8.798  25.641 -0.2804  0.2498 -0.0191
 1420BOLB   NC234069  26.867   7.929  25.414  0.2346  0.0571 -0.1388
 1420BOLB   PO234070  26.742   7.558  25.140  0.0169 -0.0803 -0.0385
 1420BOLB   GL334071  26.377   7.585  25.405  0.1041  0.1432 -0.1449
 1420BOLB   GL434072  26.333   7.391  25.700 -0.3770  0.4043 -0.0201
 1420BOLB   C1C34073  25.843   7.594  25.300 -0.0591 -0.0726 -0.2095
 1420BOLB   C2C34074  25.508   7.891  25.545  0.1995  0.0932  0.1963
 1420BOLB   C3C34075  25.067   7.904  25.555  0.0709  0.0659  0.1379
 1420BOLB   C4C34076  24.696   7.851  25.728 -0.0655  0.0962 -0.1526
 1420BOLB   C1D34077  26.097   7.810  25.807  0.0264 -0.1343  0.2661
 1420BOLB   C2D34078  25.876   8.093  25.852 -0.1182  0.0151  0.0610
 1420BOLB   C3D34079  25.467   8.248  25.940 -0.5010  0.0817  0.1149
 1420BOLB   C4D34080  25.002   8.338  25.937  0.0512  0.2834 -0.1081
 1421BOLB   NC134081  13.008   4.742  30.970 -0.0056 -0.0514  0.0086
 1421BOLB   PO134082  13.240   4.829  31.289  0.2098  0.2512  0.2654
 1421BOLB   GL134083  12.950   4.521  31.535 -0.0386 -0.1439 -0.2507
 1421BOLB   GL234084  12.797   4.758  31.813 -0.2424  0.1984 -0.1499
 1421BOLB   C1A34085  12.838   4.105  31.727 -0.2679  0.1498  0.0173
 1421BOLB   C2A34086  12.696   3.742  31.829 -0.1606 -0.0129  0.2647
 1421BOLB   C3A34087  12.549   3.379  32.080 -0.2193  0.1706  0.0272
 1421BOLB   C4A34088  12.286   3.014  32.232  0.2947 -0.2575 -0.0648
 1421BOLB   C1B34089  12.480   4.519  31.650 -0.1639  0.2613  0.1656
 1421BOLB   C2B34090  12.310   4.194  31.528  0.3607 -0.1099 -0.3382
 1421BOLB   C3B34091  12.144   3.811  31.562  0.1078 -0.2029 -0.1816
 1421BOLB   C4B34092  12.192   3.450  31.286  0.1799  0.2320  0.1522
 1421BOLB   NC234093  12.275   0.892  32.826 -0.4205  0.2052 -0.1696
 1421BOLB   PO234094  11.865   0.816  32.613  0.1067 -0.2439 -0.1049
 1421BOLB   GL334095  11.891   1.160  32.390  0.1216  0.2237  0.0746
 1421BOLB   GL434096  11.734   1.418  32.433 -0.1512  0.3023 -0.6364
 1421BOLB   C1C34097  12.180   1.452  32.166 -0.0218  0.2013 -0.0993
 1421BOLB   C2C34098  12.500   1.768  32.058 -0.2167  0.0238  0.2574
 1421BOLB   C3C34099  12.533   2.117  32.166  0.1951 -0.2254 -0.1107
 1421BOLB   C4C34100  12.439   2.589  32.209 -0.1378 -0.4175 -0.2407
 1421BOLB   C1D34101  11.664   1.802  32.460 -0.1917  0.1213  0.1354
 1421BOLB   C2D34102  11.466   2.192  32.205  0.0667  0.0864  0.3942
 1421BOLB   C3D34103  11.300   2.610  32.144 -0.0363  0.0325  0.0253
 1421BOLB   C4D34104  11.558   3.069  32.133  0.2034  0.2737  0.2340
 1422BOLB   NC134105  22.754  15.011  35.371  0.0725 -0.1280  0.3347
 1422BOLB   PO134106  22.780  15.229  35.217  0.0517  0.1411 -0.5892
 1422BOLB   GL134107  22.963  15.693  35.227  0.1616  0.3779 -0.0580
 1422BOLB   GL234108  22.714  15.784  35.508 -0.0786 -0.2256  0.1116
 1422BOLB   C1A34109  23.333  15.594  35.129 -0.0106  0.0616 -0.0670
 1422BOLB   C2A34110  23.675  15.456  34.890 -0.2879 -0.3090  0.1537
 1422BOLB   C3A34111  24.123  15.314  34.733 -0.1452  0.1432 -0.2501
 1422BOLB   C4A34112  24.632  15.341  34.667 -0.0109  0.1289 -0.2405
 1422BOLB   C1B34113  23.158  15.952  35.735  0.2411  0.1467 -0.0521
 1422BOLB   C2B34114  23.468  15.912  35.959 -0.1113  0.0440  0.0561
 1422BOLB   C3B34115  23.835  15.730  36.170  0.0602  0.2193  0.3006
 1422BOLB   C4B34116  24.189  15.813  36.364  0.1759  0.2194 -0.1490
 1422BOLB   NC234117  26.112  15.476  36.622 -0.0765 -0.2552  0.2345
 1422BOLB   PO234118  26.039  15.117  36.943  0.1413  0.2661  0.0071
 1422BOLB   GL334119  25.692  15.176  36.671  0.1953 -0.2333  0.1665
 1422BOLB   GL434120  25.566  15.476  36.637 -0.0370  0.1796  0.1546
 1422BOLB   C1C34121  25.495  15.177  36.187 -0.0299  0.0768  0.0411
 1422BOLB   C2C34122  25.517  15.318  35.724  0.1390  0.0660 -0.2376
 1422BOLB   C3C34123  25.270  15.226  35.307 -0.0121 -0.1384  0.1766
 1422BOLB   C4C34124  24.962  15.225  34.967 -0.1545 -0.1769 -0.0662
 1422BOLB   C1D34125  25.190  15.199  36.645 -0.0255 -0.2187 -0.1545
 1422BOLB   C2D34126  24.791  15.271  36.655 -0.0007  0.0144  0.0978
 1422BOLB   C3D34127  24.373  15.351  36.598  0.2703 -0.0984  0.2202
 1422BOLB   C4D34128  24.013  15.172  36.625  0.1355  0.1005  0.0124
 1423BOLB   NC134129  17.576   4.461  27.830 -0.0004  0.3477  0.1913
 1423BOLB   PO134130  17.792   4.137  27.922  0.1847 -0.2209 -0.1649
 1423BOLB   GL134131  17.903   3.707  27.904  0.1417  0.2352 -0.3490
 1423BOLB   GL234132  18.138   3.537  28.078  0.0198  0.0300 -0.0350
 1423BOLB   C1A34133  17.656   3.326  27.620 -0.0569 -0.0550  0.1038
 1423BOLB   C2A34134  17.530   3.052  27.293 -0.0981 -0.4127  0.0938
 1423BOLB   C3A34135  17.447   2.641  27.173 -0.2259  0.0158  0.3763
 1423BOLB   C4A34136  17.137   2.352  27.174  0.4265 -0.0761 -0.1297
 1423BOLB   C1B34137  18.046   3.208  27.866 -0.2194 -0.0325 -0.1203
 1423BOLB   C2B34138  18.030   2.784  27.817  0.2121  0.0829 -0.1426
 1423BOLB   C3B34139  17.709   2.559  27.567 -0.1599  0.0339  0.1169
 1423BOLB   C4B34140  17.627   2.175  27.353 -0.1081  0.0216 -0.0799
 1423BOLB   NC234141  17.027  27.046  26.734 -0.2778  0.4665 -0.0693
 1423BOLB   PO234142  17.170  26.865  27.257 -0.2347 -0.1643  0.0561
 1423BOLB   GL334143  17.280   0.198  27.218  0.1183 -0.2771  0.0745
 1423BOLB   GL434144  17.233   0.457  27.487  0.1291 -0.0710  0.1519
 1423BOLB   C1C34145  17.221   0.552  26.983  0.0926 -0.0195  0.0744
 1423BOLB   C2C34146  17.140   1.050  26.912  0.2766  0.0082  0.3750
 1423BOLB   C3C34147  17.143   1.510  27.040 -0.0438  0.2590 -0.0583
 1423BOLB   C4C34148  17.205   1.951  27.125 -0.1376  0.0683  0.2504
 1423BOLB   C1D34149  17.556   0.879  27.629 -0.0108 -0.2713  0.1228
 1423BOLB   C2D34150  17.704   1.292  27.782  0.0833  0.1462 -0.1997
 1423BOLB   C3D34151  17.479   1.589  28.063 -0.0850 -0.0930  0.1507
 1423BOLB   C4D34152  17.082   1.712  28.041 -0.1372 -0.0118  0.2437
 1424BOLB   NC134153  15.656   4.181  27.210  0.2012 -0.0005 -0.1859
 1424BOLB   PO134154  16.118   4.250  27.338 -0.0843  0.3719  0.0400
 1424BOLB   GL134155  16.270   3.850  27.270  0.0182  0.3407 -0.0519
 1424BOLB   GL234156  15.937   3.575  27.297 -0.2493 -0.1937 -0.0614
 1424BOLB   C1A34157  16.536   3.518  27.218 -0.0378 -0.0453 -0.0754
 1424BOLB   C2A34158  16.501   3.101  27.014 -0.1174 -0.0352 -0.1315
 1424BOLB   C3A34159  16.103   2.948  26.767 -0.1115  0.2365 -0.2539
 1424BOLB   C4A34160  15.750   2.768  26.544  0.2368 -0.2879  0.0355
 1424BOLB   C1B34161  15.961   3.211  27.170  0.3086  0.2254 -0.1998
 1424BOLB   C2B34162  15.709   2.881  27.189 -0.0434 -0.1702 -0.0604
 1424BOLB   C3B34163  15.922   2.487  27.098 -0.3661  0.1666  0.0246
 1424BOLB   C4B34164  15.857   2.090  27.162  0.3170  0.2051 -0.0171
 1424BOLB   NC234165  15.826  26.896  26.291 -0.0242  0.1668 -0.0559
 1424BOLB   PO234166  15.546   0.113  26.599 -0.1637 -0.1776 -0.0120
 1424BOLB   GL334167  15.601   0.683  26.547  0.1094 -0.0988 -0.0794
 1424BOLB   GL434168  15.408   0.811  26.820  0.1818 -0.3435 -0.0167
 1424BOLB   C1C34169  15.804   1.009  26.505 -0.1411  0.1907  0.0111
 1424BOLB   C2C34170  15.706   1.389  26.662 -0.2857 -0.1166  0.1643
 1424BOLB   C3C34171  15.594   1.851  26.734 -0.0913 -0.0007 -0.0378
 1424BOLB   C4C34172  15.580   2.271  26.687 -0.2860  0.0526  0.0257
 1424BOLB   C1D34173  15.391   0.823  27.253 -0.0090  0.1278 -0.1940
 1424BOLB   C2D34174  15.516   1.238  27.534 -0.3063  0.0773 -0.0413
 1424BOLB   C3D34175  15.777   1.508  27.555  0.0839  0.0592  0.0657
 1424BOLB   C4D34176  15.969   1.903  27.668 -0.3246 -0.0846 -0.5252
 1425BOLB   NC134177  21.020  22.284  25.145  0.0067  0.0838  0.1381
 1425BOLB   PO134178  20.941  21.998  24.882 -0.0453  0.0087 -0.0001
 1425BOLB   GL134179  20.719  21.584  24.762  0.0414 -0.0734 -0.1119
 1425BOLB   GL234180  20.838  21.323  24.933  0.0028 -0.1356 -0.0662
 1425BOLB   C1A34181  20.337  21.287  24.627  0.0460 -0.0092  0.0899
 1425BOLB   C2A34182  20.014  21.135  24.689  0.2541 -0.2519 -0.0607
 1425BOLB   C3A34183  19.732  20.842  24.597 -0.1960 -0.1181 -0.3160
 1425BOLB   C4A34184  19.466  21.063  24.354  0.2221 -0.3580  0.1325
 1425BOLB   C1B34185  20.912  20.918  25.135  0.1301  0.0295 -0.1098
 1425BOLB   C2B34186  20.807  20.518  25.052 -0.3152  0.1790 -0.0963
 1425BOLB   C3B34187  20.608  20.293  24.959  0.1254  0.2027 -0.0149
 1425BOLB   C4B34188  20.629  19.852  24.971  0.0122  0.2320 -0.0701
 1425BOLB   NC234189  20.199  23.438  25.427  0.3543  0.1019  0.2032
 1425BOLB   PO234190  20.275  23.230  25.111 -0.2377  0.0049 -0.1288
 1425BOLB   GL334191  19.941  22.857  25.225 -0.1556 -0.2982  0.0233
 1425BOLB   GL434192  19.615  22.783  25.393 -0.0649  0.0373  0.0593
 1425BOLB   C1C34193  19.773  22.518  24.986  0.1107 -0.0731 -0.0626
 1425BOLB   C2C34194  19.578  22.323  24.633 -0.0264  0.0421  0.2846
 1425BOLB   C3C34195  19.331  21.996  24.527 -0.0550  0.0187 -0.2563
 1425BOLB   C4C34196  19.286  21.573  24.309 -0.1365 -0.0883 -0.0737
 1425BOLB   C1D34197  19.580  22.242  25.348  0.1608 -0.2253 -0.1127
 1425BOLB   C2D34198  19.269  21.810  25.431  0.0259 -0.0911  0.1239
 1425BOLB   C3D34199  19.050  21.577  25.782 -0.0859  0.1050 -0.1305
 1425BOLB   C4D34200  19.131  21.169  25.571 -0.1409 -0.1938 -0.0232
 1426BOLB   NC134201  19.007   7.115  36.982  0.3312  0.2138  0.1586
 1426BOLB   PO134202  19.044   6.672  36.681  0.1028 -0.0453  0.0426
 1426BOLB   GL134203  19.224   6.312  37.020 -0.0995 -0.2467  0.0753
 1426BOLB   GL234204  19.516   6.351  36.885 -0.2656  0.1170  0.0616
 1426BOLB   C1A34205  19.244   5.886  37.163  0.0408  0.0440  0.0180
 1426BOLB   C2A34206  19.214   5.419  37.036 -0.1249  0.2350 -0.2216
 1426BOLB   C3A34207  18.995   4.946  36.906 -0.2641  0.0197  0.1435
 1426BOLB   C4A34208  18.679   4.795  37.107 -0.0865  0.3821 -0.2053
 1426BOLB   C1B34209  19.678   6.124  37.229 -0.1621 -0.0720 -0.0933
 1426BOLB   C2B34210  19.666   5.674  37.137 -0.0922  0.4064 -0.4044
 1426BOLB   C3B34211  19.816   5.266  36.855 -0.0677 -0.3839  0.0015
 1426BOLB   C4B34212  20.029   5.087  36.556  0.4096  0.2392  0.0645
 1426BOLB   NC234213  18.721   3.146  38.299  0.3141 -0.5992 -0.4441
 1426BOLB   PO234214  19.191   3.130  38.457  0.0710 -0.0548 -0.2140
 1426BOLB   GL334215  19.049   3.577  38.501 -0.2377  0.0648 -0.0286
 1426BOLB   GL434216  18.704   3.584  38.565 -0.0193 -0.4445  0.2137
 1426BOLB   C1C34217  18.976   4.030  38.524  0.1147 -0.0155 -0.0173
 1426BOLB   C2C34218  18.777   4.284  38.241  0.1733  0.2730 -0.0274
 1426BOLB   C3C34219  18.721   4.664  37.929  0.1318 -0.0684  0.1389
 1426BOLB   C4C34220  18.573   4.838  37.490  0.0645 -0.1401 -0.0171
 1426BOLB   C1D34221  18.758   3.756  38.108  0.4445  0.0439  0.0768
 1426BOLB   C2D34222  18.790   3.939  37.623  0.2500 -0.1293 -0.1774
 1426BOLB   C3D34223  18.663   4.328  37.436 -0.2403 -0.0160  0.1513
 1426BOLB   C4D34224  18.284   4.532  37.216 -0.2034 -0.0117  0.0199
 1427BOLB   NC134225  21.267   8.650  36.946 -0.2701 -0.3376 -0.0798
 1427BOLB   PO134226  21.014   8.536  37.274  0.2589  0.1166  0.0628
 1427BOLB   GL134227  21.199   8.127  37.445  0.4551 -0.0722  0.1858
 1427BOLB   GL234228  21.438   8.203  37.279  0.0156  0.1145 -0.1908
 1427BOLB   C1A34229  21.305   7.752  37.586 -0.4653 -0.2021  0.0589
 1427BOLB   C2A34230  21.207   7.400  37.951 -0.2077  0.2028 -0.1144
 1427BOLB   C3A34231  21.363   6.982  37.943  0.5087  0.0381 -0.1660
 1427BOLB   C4A34232  21.594   6.689  38.089 -0.2582 -0.2439  0.0211
 1427BOLB   C1B34233  21.651   8.351  37.638  0.1794 -0.0275  0.2743
 1427BOLB   C2B34234  22.019   8.208  37.993  0.1200 -0.3489 -0.2913
 1427BOLB   C3B34235  22.350   8.460  38.065 -0.2200 -0.1835  0.0394
 1427BOLB   C4B34236  22.527   8.487  38.448 -0.0944 -0.0931 -0.3752
 1427BOLB   NC234237  23.408   5.321  38.316 -0.1522  0.4326 -0.1286
 1427BOLB   PO234238  23.855   5.397  38.283 -0.0010 -0.0364  0.3482
 1427BOLB   GL334239  23.548   5.791  38.121  0.0097 -0.1682 -0.1765
 1427BOLB   GL434240  23.509   6.036  37.942 -0.1315  0.0432  0.1050
 1427BOLB   C1C34241  23.226   6.067  38.306 -0.0572  0.5421  0.0333
 1427BOLB   C2C34242  22.904   6.318  38.518 -0.3480  0.1582  0.3906
 1427BOLB   C3C34243  22.435   6.285  38.442 -0.1731  0.2782  0.0605
 1427BOLB   C4C34244  21.990   6.346  38.252 -0.0596 -0.0805 -0.0474
 1427BOLB   C1D34245  23.173   6.235  37.715 -0.0919 -0.2040 -0.3241
 1427BOLB   C2D34246  22.886   6.419  37.511  0.4220 -0.0303 -0.0500
 1427BOLB   C3D34247  22.707   6.733  37.319 -0.0167 -0.3669  0.4151
 1427BOLB   C4D34248  22.328   6.897  37.379 -0.1544 -0.2889  0.0705
 1428BOLB   NC134249   7.913  14.657  30.821  0.0267  0.0197  0.0513
 1428BOLB   PO134250   7.556  14.328  31.102 -0.0593  0.0764 -0.1958
 1428BOLB   GL134251   7.148  14.067  30.847 -0.1961  0.0561 -0.0986
 1428BOLB   GL234252   6.985  13.894  31.021  0.1787  0.0579  0.1229
 1428BOLB   C1A34253   6.677  14.019  30.689  0.3792 -0.0285  0.3829
 1428BOLB   C2A34254   6.167  13.988  30.398  0.2429  0.2849 -0.0213
 1428BOLB   C3A34255   5.790  14.083  30.159  0.0652  0.0839 -0.3508
 1428BOLB   C4A34256   5.556  14.223  29.757  0.1932 -0.1409  0.3030
 1428BOLB   C1B34257   6.671  13.641  31.004  0.0040  0.0657 -0.3043
 1428BOLB   C2B34258   6.334  13.360  31.122  0.2946 -0.0616 -0.0301
 1428BOLB   C3B34259   6.084  13.112  30.799  0.1823  0.1180 -0.0403
 1428BOLB   C4B34260   6.039  12.931  30.311 -0.2758 -0.0421  0.1480
 1428BOLB   NC234261   3.574  14.660  28.175  0.0565 -0.2430 -0.1185
 1428BOLB   PO234262   3.813  14.808  28.482  0.2661 -0.1968  0.1143
 1428BOLB   GL334263   4.138  14.586  28.535 -0.0280 -0.0918 -0.0314
 1428BOLB   GL434264   4.268  14.889  28.665  0.2282 -0.0395  0.0144
 1428BOLB   C1C34265   4.533  14.405  28.713 -0.0400  0.2390  0.2517
 1428BOLB   C2C34266   4.922  14.437  28.770  0.1216  0.0024  0.2310
 1428BOLB   C3C34267   5.159  14.184  28.865 -0.0323  0.2311  0.3759
 1428BOLB   C4C34268   5.430  14.148  29.219  0.4097  0.0195 -0.0117
 1428BOLB   C1D34269   4.631  14.861  28.461 -0.1565 -0.2054 -0.0186
 1428BOLB   C2D34270   5.032  14.931  28.620 -0.1933  0.1542  0.1183
 1428BOLB   C3D34271   5.538  14.825  28.810 -0.0283 -0.0010 -0.2587
 1428BOLB   C4D34272   5.941  14.820  29.096 -0.0416 -0.0795  0.2046
 1429BOLB   NC134273   8.049  14.282  32.685 -0.2608 -0.3379  0.0179
 1429BOLB   PO134274   7.634  14.334  32.659 -0.1291  0.3907  0.3304
 1429BOLB   GL134275   7.292  14.143  32.773  0.1164 -0.2085  0.0599
 1429BOLB   GL234276   7.172  14.505  32.803  0.0775 -0.0171 -0.1554
 1429BOLB   C1A34277   7.027  13.936  32.604 -0.0135 -0.0999 -0.1356
 1429BOLB   C2A34278   6.585  13.990  32.465 -0.0767  0.1505  0.3755
 1429BOLB   C3A34279   6.088  14.180  32.512  0.3133  0.1884 -0.0233
 1429BOLB   C4A34280   5.631  14.314  32.371  0.1908  0.1310 -0.1425
 1429BOLB   C1B34281   6.769  14.399  32.654  0.0749  0.1948  0.4884
 1429BOLB   C2B34282   6.366  14.578  32.660 -0.0693 -0.1572  0.0187
 1429BOLB   C3B34283   5.802  14.717  32.640  0.2329 -0.0884  0.1941
 1429BOLB   C4B34284   5.356  14.896  32.711 -0.0494  0.0482  0.2723
 1429BOLB   NC234285   3.069  14.876  32.903  0.0383  0.1237  0.2638
 1429BOLB   PO234286   3.468  14.798  32.677  0.0294 -0.0457 -0.0915
 1429BOLB   GL334287   3.755  15.103  32.525  0.1066  0.2157 -0.1394
 1429BOLB   GL434288   3.818  15.342  32.252 -0.0116  0.1686 -0.2341
 1429BOLB   C1C34289   4.206  14.991  32.342 -0.2375  0.4648 -0.0891
 1429BOLB   C2C34290   4.603  14.747  32.054  0.2144  0.0672 -0.2836
 1429BOLB   C3C34291   4.891  14.459  32.104 -0.1809  0.0882 -0.0474
 1429BOLB   C4C34292   5.211  14.376  32.345  0.1222  0.0673  0.0166
 1429BOLB   C1D34293   4.129  15.522  32.496  0.0318 -0.0036  0.2651
 1429BOLB   C2D34294   4.546  15.834  32.451  0.1678  0.0712 -0.0102
 1429BOLB   C3D34295   4.870  15.928  32.140 -0.1665  0.2560 -0.0863
 1429BOLB   C4D34296   5.227  15.761  31.920  0.0884  0.1137 -0.1102
 1430BOLB   NC134297   7.696  13.696  30.298  0.1604 -0.0510 -0.0687
 1430BOLB   PO134298   7.332  13.674  30.582  0.0357 -0.3104 -0.3695
 1430BOLB   GL134299   6.943  13.612  30.610  0.1611 -0.1456  0.0491
 1430BOLB   GL234300   6.958  13.285  30.369  0.1938 -0.2216 -0.0833
 1430BOLB   C1A34301   6.474  13.455  30.569  0.0702 -0.1197 -0.0459
 1430BOLB   C2A34302   6.200  13.355  30.155  0.0001  0.0003 -0.2356
 1430BOLB   C3A34303   5.948  13.331  29.805  0.0142  0.0021  0.1306
 1430BOLB   C4A34304   5.765  13.328  29.423  0.0641 -0.1542  0.2081
 1430BOLB   C1B34305   6.641  12.989  30.314  0.1259  0.0328  0.1544
 1430BOLB   C2B34306   6.478  12.615  30.318  0.0407 -0.0272  0.0622
 1430BOLB   C3B34307   6.434  12.264  30.433  0.2772 -0.2786  0.2354
 1430BOLB   C4B34308   6.174  11.970  30.507  0.2733 -0.1385 -0.2609
 1430BOLB   NC234309   3.345  13.670  28.435 -0.1666  0.2810  0.2084
 1430BOLB   PO234310   3.642  13.381  28.454  0.0721 -0.0964 -0.3504
 1430BOLB   GL334311   4.123  13.228  28.413 -0.0740  0.1514 -0.0945
 1430BOLB   GL434312   4.222  12.867  28.310 -0.0965  0.0297 -0.3113
 1430BOLB   C1C34313   4.515  12.972  28.682  0.0212 -0.3712  0.0922
 1430BOLB   C2C34314   4.698  13.109  29.049  0.2273 -0.2034  0.0097
 1430BOLB   C3C34315   5.019  13.383  29.158  0.1219  0.0212  0.0237
 1430BOLB   C4C34316   5.446  13.361  29.107 -0.1008 -0.1539 -0.4582
 1430BOLB   C1D34317   4.360  12.419  28.277 -0.2163 -0.0060 -0.1875
 1430BOLB   C2D34318   4.587  12.008  28.121 -0.3563  0.0352 -0.1212
 1430BOLB   C3D34319   4.890  11.624  28.165  0.0011  0.0051 -0.0277
 1430BOLB   C4D34320   5.142  11.532  28.468 -0.2447 -0.0115  0.1465
 1431BOLB   NC134321  12.901  10.154  38.912 -0.0102 -0.1202  0.0850
 1431BOLB   PO134322  12.577   9.932  38.632  0.0046 -0.2834 -0.2994
 1431BOLB   GL134323  12.393   9.505  38.780  0.1925  0.2022 -0.0373
 1431BOLB   GL234324  12.154   9.256  38.670  0.2200 -0.1715  0.0599
 1431BOLB   C1A34325  12.302   9.363  39.153 -0.2221  0.0289  0.0590
 1431BOLB   C2A34326  12.433   9.226  39.572  0.0512  0.2011 -0.1355
 1431BOLB   C3A34327  12.651   8.901  39.635  0.2409 -0.0615 -0.1543
 1431BOLB   C4A34328  12.615   8.433  39.514 -0.2068  0.0932 -0.2528
 1431BOLB   C1B34329  11.985   8.966  38.855  0.4016  0.0401 -0.0192
 1431BOLB   C2B34330  11.823   8.460  38.981 -0.4534  0.0822 -0.0818
 1431BOLB   C3B34331  11.644   8.055  39.087  0.1134 -0.1020  0.0112
 1431BOLB   C4B34332  11.563   7.582  39.081  0.2961 -0.0700  0.1596
 1431BOLB   NC234333  10.565   6.680  40.882  0.0787  0.0129 -0.1888
 1431BOLB   PO234334  10.997   6.706  40.831  0.0881  0.3003  0.4368
 1431BOLB   GL334335  11.275   6.987  40.608 -0.2944 -0.3040 -0.3586
 1431BOLB   GL434336  11.104   7.065  40.384 -0.1164 -0.3106 -0.1397
 1431BOLB   C1C34337  11.492   7.443  40.497  0.0145 -0.3941  0.1587
 1431BOLB   C2C34338  11.926   7.706  40.313 -0.0178  0.0438  0.2668
 1431BOLB   C3C34339  12.357   7.752  39.983 -0.5145  0.1240 -0.0048
 1431BOLB   C4C34340  12.458   8.035  39.700 -0.0706 -0.4160 -0.0206
 1431BOLB   C1D34341  11.178   7.025  39.887  0.1935 -0.0133  0.1699
 1431BOLB   C2D34342  11.492   7.111  39.641 -0.1599 -0.0152  0.2938
 1431BOLB   C3D34343  11.845   7.292  39.359 -0.1002 -0.1114  0.1252
 1431BOLB   C4D34344  12.061   7.338  38.909  0.1584 -0.3816 -0.0554
 1432BOLB   NC134345  16.175  20.543  26.583 -0.1241  0.1879 -0.0723
 1432BOLB   PO134346  16.506  20.493  26.323  0.0962  0.0036  0.0765
 1432BOLB   GL134347  16.853  20.729  26.243 -0.2898 -0.1186 -0.0190
 1432BOLB   GL234348  16.962  20.903  26.441  0.0638 -0.0814  0.3710
 1432BOLB   C1A34349  17.106  21.026  26.035  0.3774  0.2195 -0.0404
 1432BOLB   C2A34350  17.020  21.412  26.074  0.1394  0.0655 -0.1120
 1432BOLB   C3A34351  17.127  21.761  26.103 -0.0732 -0.0308 -0.1636
 1432BOLB   C4A34352  17.505  21.913  26.406 -0.0947  0.2127  0.0026
 1432BOLB   C1B34353  17.241  21.274  26.499 -0.0078 -0.0807 -0.0494
 1432BOLB   C2B34354  17.063  21.670  26.577  0.1081  0.0479 -0.3159
 1432BOLB   C3B34355  16.954  22.123  26.520  0.0897  0.0367  0.0167
 1432BOLB   C4B34356  16.834  22.522  26.489  0.1700 -0.2508 -0.2274
 1432BOLB   NC234357  18.376  24.320  25.456 -0.2763 -0.0870  0.2263
 1432BOLB   PO234358  18.130  24.402  25.892 -0.1100 -0.2593 -0.0889
 1432BOLB   GL334359  18.174  23.912  25.875  0.0296 -0.1730  0.1020
 1432BOLB   GL434360  18.315  23.805  25.719  0.1564  0.2483 -0.1681
 1432BOLB   C1C34361  18.344  23.497  26.066 -0.2156  0.0649 -0.3754
 1432BOLB   C2C34362  18.236  23.021  26.256 -0.0240  0.1095 -0.2596
 1432BOLB   C3C34363  18.057  22.532  26.372 -0.0207  0.1758  0.1135
 1432BOLB   C4C34364  17.937  22.153  26.288 -0.0906 -0.1141 -0.3481
 1432BOLB   C1D34365  17.764  23.919  25.524 -0.0607  0.4104 -0.1999
 1432BOLB   C2D34366  17.330  23.697  25.417 -0.3586  0.2568 -0.0533
 1432BOLB   C3D34367  16.976  23.793  25.553 -0.2039  0.1476  0.2131
 1432BOLB   C4D34368  16.588  23.635  25.702  0.0215  0.1626 -0.1558
 1433BOLB   NC134369  11.352  18.986  24.862  0.0106  0.2108  0.0955
 1433BOLB   PO134370  11.061  18.908  25.199  0.1999  0.1088 -0.1696
 1433BOLB   GL134371  10.948  19.334  25.005 -0.0426  0.1408 -0.0046
 1433BOLB   GL234372  10.851  19.570  25.297 -0.2761  0.1034 -0.1397
 1433BOLB   C1A34373  10.640  19.485  24.613  0.2127 -0.0345 -0.1037
 1433BOLB   C2A34374  10.482  19.809  24.309  0.1928 -0.1770  0.1130
 1433BOLB   C3A34375  10.121  19.884  24.179 -0.0705 -0.0570  0.0158
 1433BOLB   C4A34376   9.894  20.218  24.004 -0.0711 -0.1239  0.1599
 1433BOLB   C1B34377  10.854  19.841  24.899  0.3136 -0.2780 -0.0183
 1433BOLB   C2B34378  10.811  20.177  24.562 -0.1364  0.4033 -0.1344
 1433BOLB   C3B34379  10.999  20.390  24.361  0.0474 -0.1472  0.0682
 1433BOLB   C4B34380  11.292  20.773  24.291  0.1752  0.2499 -0.1775
 1433BOLB   NC234381   8.264  21.327  22.398  0.1539 -0.1393 -0.0745
 1433BOLB   PO234382   8.529  21.525  22.688 -0.0752 -0.1359  0.0282
 1433BOLB   GL334383   8.935  21.438  22.848 -0.2127  0.2235 -0.1413
 1433BOLB   GL434384   8.817  21.385  23.120 -0.3826 -0.1112  0.0711
 1433BOLB   C1C34385   9.277  21.222  23.031 -0.0293  0.3122 -0.3375
 1433BOLB   C2C34386   9.600  20.956  23.271  0.0260  0.2070  0.0374
 1433BOLB   C3C34387   9.782  21.005  23.619  0.0643  0.1400  0.1739
 1433BOLB   C4C34388  10.000  20.685  23.787 -0.1106  0.4382 -0.0263
 1433BOLB   C1D34389   8.842  20.884  23.103  0.2084  0.0607  0.2324
 1433BOLB   C2D34390   8.937  20.518  22.926 -0.0168 -0.1950  0.2732
 1433BOLB   C3D34391   9.269  20.250  22.708 -0.0424  0.1183  0.1548
 1433BOLB   C4D34392   9.325  19.861  22.678 -0.0724 -0.2414  0.1968
 1434BOLB   NC134393  10.267   6.971  31.492 -0.0437  0.1465 -0.0690
 1434BOLB   PO134394   9.931   6.694  31.583 -0.1385 -0.0489  0.2672
 1434BOLB   GL134395   9.564   6.642  31.394 -0.2346  0.2287  0.0395
 1434BOLB   GL234396   9.532   6.816  31.134 -0.3519  0.3731  0.0403
 1434BOLB   C1A34397   9.371   6.267  31.445 -0.0026  0.0582 -0.1939
 1434BOLB   C2A34398   9.369   5.808  31.484  0.1486  0.0688  0.1256
 1434BOLB   C3A34399   9.331   5.369  31.268 -0.1131 -0.3673 -0.0193
 1434BOLB   C4A34400   8.914   5.284  31.187 -0.1794 -0.0243 -0.2879
 1434BOLB   C1B34401   9.084   6.715  31.071  0.0803  0.3249  0.0760
 1434BOLB   C2B34402   8.905   6.412  31.341  0.0726 -0.2135  0.3478
 1434BOLB   C3B34403   8.850   6.126  31.389 -0.2058  0.1929  0.1197
 1434BOLB   C4B34404   8.842   5.660  31.587  0.2427  0.2206 -0.1412
 1434BOLB   NC234405   7.025   3.688  30.538  0.3143  0.1644  0.0106
 1434BOLB   PO234406   7.400   3.564  30.447 -0.2275 -0.1350  0.0337
 1434BOLB   GL334407   7.632   3.903  30.321  0.0522 -0.3268  0.0247
 1434BOLB   GL434408   7.535   4.357  30.406  0.0538  0.1689  0.2626
 1434BOLB   C1C34409   8.173   4.080  30.479 -0.0074  0.2010  0.0248
 1434BOLB   C2C34410   8.305   4.355  30.799  0.0183  0.0179  0.0583
 1434BOLB   C3C34411   8.348   4.629  31.014  0.0059  0.0497 -0.1084
 1434BOLB   C4C34412   8.577   4.997  31.117 -0.2690  0.0801 -0.2861
 1434BOLB   C1D34413   7.814   4.525  30.659 -0.0056 -0.0626 -0.2759
 1434BOLB   C2D34414   7.805   4.449  31.051  0.1693 -0.0770 -0.3323
 1434BOLB   C3D34415   7.954   4.404  31.421 -0.0045 -0.2077  0.2275
 1434BOLB   C4D34416   8.264   4.173  31.542 -0.2130  0.3804  0.3470
 1435BOLB   NC134417  11.621  18.597  18.029  0.0274  0.2615 -0.1843
 1435BOLB   PO134418  11.611  18.927  18.294  0.2902 -0.1032  0.0021
 1435BOLB   GL134419  11.760  18.602  18.593  0.2254 -0.2260 -0.1759
 1435BOLB   GL234420  12.041  18.680  18.706 -0.0693  0.0221 -0.1600
 1435BOLB   C1A34421  11.603  18.220  18.857 -0.2732  0.0672  0.3149
 1435BOLB   C2A34422  11.710  18.023  19.187  0.0465 -0.3878  0.3000
 1435BOLB   C3A34423  12.113  17.792  19.233 -0.0493  0.1070 -0.3572
 1435BOLB   C4A34424  12.433  17.464  19.177 -0.0451  0.1831  0.0221
 1435BOLB   C1B34425  12.126  18.223  18.925  0.5399  0.1681 -0.0273
 1435BOLB   C2B34426  12.282  17.716  18.810  0.1456 -0.1343 -0.1262
 1435BOLB   C3B34427  12.423  17.348  18.579  0.0304  0.1994 -0.2320
 1435BOLB   C4B34428  12.391  16.987  18.764 -0.1689 -0.2507  0.0301
 1435BOLB   NC234429  11.877  16.772  17.370 -0.1672  0.1100 -0.0070
 1435BOLB   PO234430  12.341  16.868  17.211  0.0763  0.1406  0.0795
 1435BOLB   GL334431  12.627  17.091  17.402  0.1356 -0.1567  0.0381
 1435BOLB   GL434432  12.476  17.049  17.662 -0.2242  0.1826  0.0583
 1435BOLB   C1C34433  12.872  17.238  17.799 -0.3095  0.1186  0.0358
 1435BOLB   C2C34434  12.872  17.225  18.255 -0.2053  0.0771  0.0988
 1435BOLB   C3C34435  12.976  17.073  18.584  0.0374 -0.2051 -0.2263
 1435BOLB   C4C34436  12.741  17.270  18.999 -0.0338  0.0384  0.0055
 1435BOLB   C1D34437  12.491  16.638  17.864  0.1254 -0.2232 -0.0028
 1435BOLB   C2D34438  12.739  16.256  17.963 -0.2013 -0.2592 -0.1359
 1435BOLB   C3D34439  13.003  16.113  18.187 -0.2234 -0.0070  0.0207
 1435BOLB   C4D34440  12.980  15.694  18.440 -0.0219 -0.1086  0.1067
 1436BOLB   NC134441  17.680   6.038  36.310 -0.2142 -0.1494  0.0553
 1436BOLB   PO134442  17.462   5.952  35.984  0.2155  0.0623 -0.1557
 1436BOLB   GL134443  17.587   5.543  36.173 -0.0797  0.0733  0.0683
 1436BOLB   GL234444  17.374   5.641  36.399 -0.0874  0.2204  0.2908
 1436BOLB   C1A34445  17.908   5.466  36.437  0.3832 -0.0427 -0.2894
 1436BOLB   C2A34446  18.100   5.324  36.817 -0.1097  0.3485 -0.1804
 1436BOLB   C3A34447  18.276   5.089  37.056  0.2407  0.2949 -0.1740
 1436BOLB   C4A34448  18.098   4.902  37.542 -0.0281 -0.1643 -0.0451
 1436BOLB   C1B34449  17.328   5.153  36.292  0.4516 -0.1243 -0.1997
 1436BOLB   C2B34450  17.256   4.675  36.150  0.1403  0.0179 -0.3852
 1436BOLB   C3B34451  17.391   4.276  36.214 -0.0512  0.0014  0.0370
 1436BOLB   C4B34452  17.187   3.871  36.272 -0.0931  0.0746  0.0979
 1436BOLB   NC234453  17.578   2.800  39.496  0.3334 -0.0335  0.1235
 1436BOLB   PO234454  17.573   2.918  39.073  0.3801 -0.2576  0.1935
 1436BOLB   GL334455  17.596   3.309  38.811 -0.3124  0.3170  0.1002
 1436BOLB   GL434456  17.646   3.188  38.505  0.0382  0.0517  0.1097
 1436BOLB   C1C34457  17.591   3.781  38.545  0.1326 -0.1565  0.2678
 1436BOLB   C2C34458  17.420   4.121  38.285  0.1612  0.1551 -0.1544
 1436BOLB   C3C34459  17.644   4.541  38.135  0.0300  0.0548  0.1458
 1436BOLB   C4C34460  17.702   4.705  37.745  0.2079  0.3699  0.4494
 1436BOLB   C1D34461  17.733   3.274  38.039 -0.0542 -0.1620  0.3152
 1436BOLB   C2D34462  17.856   3.565  37.697 -0.1242 -0.2175  0.3187
 1436BOLB   C3D34463  17.931   3.906  37.437  0.1066 -0.2887  0.0456
 1436BOLB   C4D34464  18.378   3.957  37.356  0.1850  0.1489  0.1594
 1437BOLB   NC134465  19.539  17.183  16.274  0.1489  0.3030 -0.2995
 1437BOLB   PO134466  19.209  17.228  15.942  0.1007  0.0750 -0.2822
 1437BOLB   GL134467  18.993  17.170  16.354  0.2288 -0.0349  0.0636
 1437BOLB   GL234468  19.070  16.988  16.716 -0.0317  0.1047  0.0056
 1437BOLB   C1A34469  18.650  17.309  16.747  0.0267 -0.2355  0.2886
 1437BOLB   C2A34470  18.256  17.330  16.926  0.0774  0.2337 -0.0885
 1437BOLB   C3A34471  18.028  17.283  17.266 -0.0216 -0.0954  0.0612
 1437BOLB   C4A34472  17.919  17.635  17.465 -0.1464  0.2157  0.0917
 1437BOLB   C1B34473  19.086  16.665  16.988  0.0871  0.0107  0.3166
 1437BOLB   C2B34474  19.163  16.365  17.302 -0.2400  0.0330 -0.0927
 1437BOLB   C3B34475  19.115  16.483  17.726  0.1692 -0.0652  0.1795
 1437BOLB   C4B34476  19.046  16.618  18.129 -0.1734  0.3042 -0.3076
 1437BOLB   NC234477  19.263  19.155  17.172 -0.3581 -0.2035 -0.0321
 1437BOLB   PO234478  18.988  18.917  16.928 -0.0950  0.0210 -0.5148
 1437BOLB   GL334479  18.863  18.862  17.361 -0.1806 -0.0794  0.0671
 1437BOLB   GL434480  19.166  18.942  17.641 -0.0183  0.0229 -0.1157
 1437BOLB   C1C34481  18.419  19.033  17.523 -0.1145  0.0364  0.2052
 1437BOLB   C2C34482  18.069  18.821  17.483 -0.2814  0.2483 -0.1176
 1437BOLB   C3C34483  17.911  18.487  17.534 -0.3411 -0.4328  0.2373
 1437BOLB   C4C34484  17.729  18.052  17.458  0.1542  0.1122  0.4227
 1437BOLB   C1D34485  18.896  18.897  17.888 -0.1328  0.0703  0.0875
 1437BOLB   C2D34486  18.763  18.645  18.282 -0.1080  0.2155  0.0369
 1437BOLB   C3D34487  18.400  18.364  18.486 -0.0241 -0.3564 -0.2427
 1437BOLB   C4D34488  18.053  18.227  18.823 -0.0775  0.3509  0.2606
 1438BOLB   NC134489  23.232  14.308  17.379 -0.1224  0.4210 -0.0227
 1438BOLB   PO134490  23.637  14.596  17.589  0.2441 -0.1094  0.0062
 1438BOLB   GL134491  23.279  14.681  17.851  0.2060 -0.0084  0.1740
 1438BOLB   GL234492  23.078  14.711  17.664 -0.3112 -0.0857  0.2648
 1438BOLB   C1A34493  23.015  14.509  18.156 -0.0357  0.0909  0.0085
 1438BOLB   C2A34494  22.687  14.251  18.303 -0.2752  0.2857  0.2678
 1438BOLB   C3A34495  22.437  14.322  18.704 -0.1535  0.0032  0.0132
 1438BOLB   C4A34496  22.402  13.975  18.918 -0.1075  0.2052 -0.0995
 1438BOLB   C1B34497  22.810  14.916  17.953 -0.0173  0.1761 -0.1739
 1438BOLB   C2B34498  22.793  14.860  18.419 -0.0969 -0.0275 -0.4475
 1438BOLB   C3B34499  22.519  14.804  18.803 -0.2750 -0.0587 -0.5376
 1438BOLB   C4B34500  22.393  14.738  19.252 -0.2314  0.1496 -0.1552
 1438BOLB   NC234501  23.380  14.159  16.940 -0.1200 -0.1600  0.1172
 1438BOLB   PO234502  23.523  13.820  17.300 -0.0296 -0.0649  0.2304
 1438BOLB   GL334503  23.474  13.784  17.684 -0.1242  0.3095 -0.1624
 1438BOLB   GL434504  23.633  14.083  17.760  0.3506 -0.1057 -0.1441
 1438BOLB   C1C34505  23.307  13.656  18.112 -0.1661 -0.1091  0.0074
 1438BOLB   C2C34506  23.130  13.449  18.548  0.4508  0.2004  0.3020
 1438BOLB   C3C34507  22.913  13.391  18.959  0.2386  0.1121 -0.1051
 1438BOLB   C4C34508  22.522  13.560  19.058  0.0162  0.0037  0.1305
 1438BOLB   C1D34509  23.283  14.145  17.989 -0.3720  0.2530 -0.2238
 1438BOLB   C2D34510  22.967  13.948  17.924 -0.0283 -0.2406  0.1413
 1438BOLB   C3D34511  22.761  13.642  18.141  0.2359  0.0520 -0.1243
 1438BOLB   C4D34512  22.486  13.797  18.522  0.2354  0.0179  0.0056
 1439BOLB   NC134513  15.408  10.391  19.607  0.1604  0.2271 -0.1237
 1439BOLB   PO134514  15.330  10.551  19.940  0.1082  0.1118  0.0409
 1439BOLB   GL134515  14.991  10.635  19.520 -0.3933  0.2059 -0.3683
 1439BOLB   GL234516  15.052  10.425  19.293  0.3427 -0.3203 -0.3854
 1439BOLB   C1A34517  14.574  10.486  19.379  0.1059 -0.4393  0.2697
 1439BOLB   C2A34518  14.147  10.491  19.244 -0.0638 -0.0486  0.1327
 1439BOLB   C3A34519  13.750  10.256  19.048 -0.0270  0.5712  0.3801
 1439BOLB   C4A34520  13.314  10.103  18.915  0.2099 -0.0128 -0.1674
 1439BOLB   C1B34521  15.153  10.043  18.937  0.0263 -0.1620 -0.0284
 1439BOLB   C2B34522  15.080   9.948  18.568  0.1939 -0.0859 -0.2874
 1439BOLB   C3B34523  14.882   9.836  18.254  0.0231  0.1750  0.2441
 1439BOLB   C4B34524  14.591   9.515  18.226 -0.1309 -0.0499  0.1045
 1439BOLB   NC234525  12.502   9.924  17.129 -0.0065 -0.3384  0.2639
 1439BOLB   PO234526  12.626   9.665  16.962 -0.2509  0.2965  0.4359
 1439BOLB   GL334527  13.058   9.602  17.264 -0.2224 -0.4391  0.1606
 1439BOLB   GL434528  13.364   9.606  16.979 -0.0910 -0.1444 -0.0146
 1439BOLB   C1C34529  13.051   9.375  17.559  0.0265  0.0440  0.1783
 1439BOLB   C2C34530  13.088   9.246  18.104  0.2890  0.1330  0.3075
 1439BOLB   C3C34531  12.904   9.565  18.461  0.1527 -0.1459 -0.1300
 1439BOLB   C4C34532  13.055   9.817  18.863 -0.2356  0.0934  0.0510
 1439BOLB   C1D34533  13.668   9.652  17.308 -0.1806 -0.2413 -0.0714
 1439BOLB   C2D34534  13.888   9.644  17.653 -0.2055 -0.2271  0.0563
 1439BOLB   C3D34535  14.099   9.579  18.066  0.0046 -0.2818 -0.0666
 1439BOLB   C4D34536  14.193   9.873  18.322 -0.0819 -0.0388  0.0077
 1440BOLB   NC134537  13.786  21.004  26.569  0.2353  0.2864  0.0261
 1440BOLB   PO134538  13.346  21.092  26.808 -0.0121 -0.1038  0.1752
 1440BOLB   GL134539  13.188  21.503  26.829 -0.1556 -0.0257  0.0836
 1440BOLB   GL234540  12.940  21.481  26.573  0.0451  0.0192  0.3192
 1440BOLB   C1A34541  13.143  21.925  26.661 -0.0600 -0.2288 -0.2821
 1440BOLB   C2A34542  12.902  22.330  26.576  0.3082 -0.2079  0.0989
 1440BOLB   C3A34543  12.631  22.604  26.409 -0.0588 -0.1927 -0.0282
 1440BOLB   C4A34544  12.426  22.649  25.999  0.1554  0.0096 -0.0900
 1440BOLB   C1B34545  12.665  21.862  26.479 -0.3217  0.0101 -0.1606
 1440BOLB   C2B34546  12.390  22.084  26.181 -0.0982 -0.0354  0.2504
 1440BOLB   C3B34547  12.113  22.272  26.013 -0.2321 -0.3753 -0.0462
 1440BOLB   C4B34548  11.927  22.260  25.616  0.3680 -0.0740 -0.1059
 1440BOLB   NC234549  11.495  24.794  24.230  0.1413  0.2342  0.1073
 1440BOLB   PO234550  11.454  24.503  24.566 -0.1792 -0.2419  0.1615
 1440BOLB   GL334551  11.352  24.010  24.755 -0.0424 -0.0097  0.0249
 1440BOLB   GL434552  11.174  24.018  25.064  0.0938 -0.1020  0.0887
 1440BOLB   C1C34553  11.678  23.626  24.758 -0.2016 -0.2072 -0.0191
 1440BOLB   C2C34554  11.803  23.201  24.982 -0.0663 -0.0993  0.1577
 1440BOLB   C3C34555  12.131  22.997  25.295 -0.0837 -0.0360 -0.0597
 1440BOLB   C4C34556  12.144  22.809  25.658 -0.0482  0.0136  0.1944
 1440BOLB   C1D34557  11.217  23.887  25.466  0.2735 -0.2933 -0.1174
 1440BOLB   C2D34558  11.330  23.440  25.713 -0.0562  0.3293 -0.1569
 1440BOLB   C3D34559  11.731  23.172  25.537 -0.1309  0.0721 -0.0368
 1440BOLB   C4D34560  11.677  22.742  25.336  0.1180 -0.1407 -0.1410
 1441BOLB   NC134561  17.037   5.602  24.221 -0.2468  0.0248 -0.0055
 1441BOLB   PO134562  17.355   5.349  23.928  0.1377 -0.0924  0.2696
 1441BOLB   GL134563  17.518   5.022  23.924 -0.1935  0.1967 -0.1276
 1441BOLB   GL234564  17.676   4.933  24.241  0.1016 -0.0794  0.2641
 1441BOLB   C1A34565  17.455   4.724  23.649 -0.1289  0.0061 -0.3310
 1441BOLB   C2A34566  17.702   4.436  23.426 -0.0466 -0.1881 -0.0969
 1441BOLB   C3A34567  17.850   4.009  23.293  0.1369 -0.0287 -0.1053
 1441BOLB   C4A34568  17.892   3.582  23.027  0.2780  0.1413 -0.0742
 1441BOLB   C1B34569  18.186   4.875  24.266 -0.0310 -0.0531  0.3061
 1441BOLB   C2B34570  18.662   4.772  24.294  0.3215  0.0238  0.0488
 1441BOLB   C3B34571  18.955   4.564  24.505  0.1663 -0.2452 -0.0178
 1441BOLB   C4B34572  19.070   4.113  24.480 -0.0779  0.0865 -0.1365
 1441BOLB   NC234573  16.701   1.289  22.493  0.0533  0.1687 -0.3268
 1441BOLB   PO234574  16.758   1.696  22.659  0.0441 -0.0989 -0.2579
 1441BOLB   GL334575  17.003   2.036  22.735 -0.0045 -0.2925 -0.4137
 1441BOLB   GL434576  17.209   2.116  23.001 -0.2181  0.0067 -0.0608
 1441BOLB   C1C34577  17.004   2.428  22.600  0.0542 -0.0765 -0.2104
 1441BOLB   C2C34578  17.169   2.775  22.702  0.1905 -0.4147  0.1335
 1441BOLB   C3C34579  17.601   2.893  22.610 -0.1905 -0.1536  0.1657
 1441BOLB   C4C34580  17.856   3.208  22.783 -0.0761  0.2543  0.4702
 1441BOLB   C1D34581  17.025   2.455  23.065  0.3165 -0.0122 -0.1337
 1441BOLB   C2D34582  17.072   2.899  23.276  0.1046  0.2276  0.1044
 1441BOLB   C3D34583  17.269   3.198  23.479 -0.1347 -0.0093 -0.0678
 1441BOLB   C4D34584  17.646   3.524  23.434  0.2721  0.0027  0.0991
 1442BOLB   NC134585  12.105   5.145  32.061  0.3795 -0.0061  0.2941
 1442BOLB   PO134586  12.551   5.252  31.817 -0.0280 -0.1217  0.2423
 1442BOLB   GL134587  12.278   4.966  31.614 -0.2029  0.1361 -0.0181
 1442BOLB   GL234588  12.200   4.983  31.269  0.2353 -0.0006  0.1167
 1442BOLB   C1A34589  12.016   4.594  31.690  0.3645 -0.1471  0.1756
 1442BOLB   C2A34590  11.838   4.140  31.783 -0.0123 -0.1421  0.1584
 1442BOLB   C3A34591  11.742   3.725  31.899 -0.1220 -0.0639  0.2515
 1442BOLB   C4A34592  11.405   3.544  32.031 -0.3269  0.0219 -0.3184
 1442BOLB   C1B34593  11.941   4.624  31.180 -0.0191  0.0669 -0.3085
 1442BOLB   C2B34594  11.784   4.207  31.260 -0.0168 -0.0814  0.0830
 1442BOLB   C3B34595  11.651   3.841  31.342  0.0417 -0.1818  0.1555
 1442BOLB   C4B34596  11.452   3.471  31.532 -0.1576  0.0488 -0.0879
 1442BOLB   NC234597   9.913   1.850  32.515 -0.5092 -0.1338  0.2586
 1442BOLB   PO234598  10.139   1.629  32.123  0.1235  0.3915  0.1580
 1442BOLB   GL334599  10.355   1.927  32.264  0.0425  0.1287  0.2956
 1442BOLB   GL434600  10.657   1.953  32.144 -0.1505 -0.1175  0.3143
 1442BOLB   C1C34601  10.482   2.340  32.356  0.1318 -0.3664 -0.2895
 1442BOLB   C2C34602  10.667   2.705  32.156 -0.1639 -0.0426  0.5129
 1442BOLB   C3C34603  10.862   3.032  32.162  0.1908  0.2744 -0.1553
 1442BOLB   C4C34604  11.065   3.423  32.263  0.0590 -0.1594  0.1802
 1442BOLB   C1D34605  10.930   2.153  32.163  0.1268 -0.2212 -0.2007
 1442BOLB   C2D34606  10.992   2.471  32.485 -0.0359  0.0509 -0.0180
 1442BOLB   C3D34607  10.971   2.718  32.911 -0.1049  0.1607  0.3668
 1442BOLB   C4D34608  11.174   2.831  33.466  0.0148 -0.0490 -0.1741
 1443BOLB   NC134609  12.332  11.521  21.165 -0.3775 -0.3493 -0.0485
 1443BOLB   PO134610  11.872  11.469  21.464  0.0051 -0.3656 -0.2593
 1443BOLB   GL134611  11.452  11.427  21.284  0.0732  0.2185 -0.1810
 1443BOLB   GL234612  11.391  11.152  21.305 -0.1894  0.2789  0.0882
 1443BOLB   C1A34613  11.065  11.411  21.055  0.1953  0.2165  0.0375
 1443BOLB   C2A34614  10.702  11.354  20.856  0.1728  0.3179  0.2048
 1443BOLB   C3A34615  10.299  11.287  20.864 -0.2410 -0.1690  0.0849
 1443BOLB   C4A34616   9.951  11.532  20.841  0.1089 -0.0000  0.1269
 1443BOLB   C1B34617  11.226  10.812  20.993 -0.0362 -0.2295  0.4131
 1443BOLB   C2B34618  11.304  10.761  20.577 -0.2461  0.1288  0.0393
 1443BOLB   C3B34619  11.548  10.944  20.258 -0.0534  0.2438  0.1529
 1443BOLB   C4B34620  11.375  11.291  20.018  0.0353 -0.0117 -0.0122
 1443BOLB   NC234621   9.288  10.462  18.163 -0.0565 -0.2789 -0.1234
 1443BOLB   PO234622   9.369  10.474  18.671 -0.0185  0.1479  0.1553
 1443BOLB   GL334623   9.604  10.495  19.064 -0.1484  0.1657  0.2703
 1443BOLB   GL434624   9.647  10.278  19.224  0.2789 -0.1992 -0.0550
 1443BOLB   C1C34625   9.626  10.700  19.505  0.0841  0.1730 -0.0808
 1443BOLB   C2C34626   9.787  10.962  19.819 -0.1644 -0.1486 -0.0618
 1443BOLB   C3C34627   9.710  11.283  20.017 -0.1869 -0.0846 -0.0774
 1443BOLB   C4C34628   9.738  11.397  20.485  0.2260 -0.2071 -0.2151
 1443BOLB   C1D34629   9.586  10.178  19.678  0.2325 -0.0019 -0.0394
 1443BOLB   C2D34630   9.545  10.172  20.087 -0.0587  0.2383  0.0550
 1443BOLB   C3D34631   9.791  10.402  20.401  0.0642  0.1408  0.2572
 1443BOLB   C4D34632   9.816  10.468  20.884 -0.0731  0.0883 -0.0681
 1444BOLB   NC134633  20.552   3.260  38.054 -0.3906 -0.1461 -0.1258
 1444BOLB   PO134634  20.833   3.065  37.738  0.2717 -0.0097 -0.1854
 1444BOLB   GL134635  20.710   3.446  37.595  0.2518 -0.0163 -0.2469
 1444BOLB   GL234636  20.849   3.688  37.364 -0.4330 -0.2459  0.0448
 1444BOLB   C1A34637  20.358   3.687  37.412  0.1737 -0.2355 -0.1310
 1444BOLB   C2A34638  20.300   3.792  36.950  0.2013  0.1156 -0.0538
 1444BOLB   C3A34639  20.298   4.063  36.557  0.1974 -0.1333 -0.0093
 1444BOLB   C4A34640  20.279   4.188  36.243  0.3062  0.2126 -0.1040
 1444BOLB   C1B34641  20.678   4.101  37.257 -0.2945 -0.1661  0.3184
 1444BOLB   C2B34642  20.276   4.406  37.314  0.5081 -0.1866 -0.2052
 1444BOLB   C3B34643  20.113   4.868  37.291 -0.1881  0.1781  0.0222
 1444BOLB   C4B34644  20.059   5.339  37.360 -0.1624 -0.1148  0.0295
 1444BOLB   NC234645  19.311   6.443  35.459 -0.2727  0.3051  0.3874
 1444BOLB   PO234646  19.686   6.294  35.456  0.0467 -0.2006 -0.0284
 1444BOLB   GL334647  19.637   5.800  35.293  0.0334 -0.2194 -0.3031
 1444BOLB   GL434648  19.462   5.477  35.218 -0.2236 -0.1684 -0.0063
 1444BOLB   C1C34649  19.916   5.459  35.393  0.1543  0.2702 -0.0527
 1444BOLB   C2C34650  19.984   5.174  35.586  0.1421 -0.1536  0.0661
 1444BOLB   C3C34651  20.232   4.791  35.582 -0.4273  0.0245  0.1323
 1444BOLB   C4C34652  20.163   4.429  35.909  0.0756 -0.0781  0.2570
 1444BOLB   C1D34653  19.468   5.146  35.586  0.0868  0.0172  0.0947
 1444BOLB   C2D34654  19.650   4.783  35.627 -0.2127  0.1653  0.1225
 1444BOLB   C3D34655  19.901   4.505  35.376 -0.2595  0.2020 -0.0071
 1444BOLB   C4D34656  20.347   4.517  35.194 -0.0947 -0.0439  0.2536
 1445BOLB   NC134657  15.501   4.836  32.832  0.2010  0.2220 -0.1770
 1445BOLB   PO134658  15.401   4.942  33.222  0.1089 -0.1934  0.1931
 1445BOLB   GL134659  15.568   4.580  33.527  0.0060  0.1213 -0.0514
 1445BOLB   GL234660  15.811   4.470  33.636  0.4420 -0.5110  0.0635
 1445BOLB   C1A34661  15.426   4.262  33.884  0.0651 -0.0179 -0.3962
 1445BOLB   C2A34662  15.389   3.788  34.076 -0.0758 -0.0035  0.1478
 1445BOLB   C3A34663  15.174   3.355  33.905 -0.0410 -0.1287  0.2273
 1445BOLB   C4A34664  14.950   3.026  34.004 -0.2003 -0.0140  0.2041
 1445BOLB   C1B34665  15.834   4.000  33.715 -0.0065 -0.1846  0.1664
 1445BOLB   C2B34666  15.843   3.631  33.848  0.0403 -0.2515  0.0132
 1445BOLB   C3B34667  16.061   3.312  34.000  0.1627 -0.1308 -0.0855
 1445BOLB   C4B34668  15.996   3.063  34.431  0.1329 -0.2100 -0.0894
 1445BOLB   NC234669  15.276   0.944  35.195  0.0237 -0.1307 -0.1262
 1445BOLB   PO234670  14.863   0.912  35.124  0.0921  0.0886 -0.1682
 1445BOLB   GL334671  14.849   1.286  35.146 -0.0310 -0.0428 -0.0607
 1445BOLB   GL434672  15.186   1.431  34.953 -0.2957 -0.0621  0.0113
 1445BOLB   C1C34673  14.758   1.815  35.101  0.0713  0.5155 -0.1474
 1445BOLB   C2C34674  14.642   2.095  34.894 -0.0895 -0.0184 -0.3063
 1445BOLB   C3C34675  14.529   2.281  34.435 -0.1512 -0.3594  0.3242
 1445BOLB   C4C34676  14.574   2.704  34.089 -0.1523 -0.1557 -0.5643
 1445BOLB   C1D34677  15.090   1.788  34.630 -0.1777  0.2611 -0.1066
 1445BOLB   C2D34678  14.805   1.753  34.333 -0.2255 -0.3559  0.0177
 1445BOLB   C3D34679  14.479   1.939  34.057 -0.0370  0.0302 -0.1655
 1445BOLB   C4D34680  14.461   2.295  33.811  0.2833  0.0710 -0.0734
 1446BOLB   NC134681   7.579  10.162  30.794 -0.6337 -0.0662 -0.0073
 1446BOLB   PO134682   7.564  10.615  30.674 -0.2548 -0.1095  0.0535
 1446BOLB   GL134683   7.166  10.422  30.795  0.2931  0.0563  0.1459
 1446BOLB   GL234684   7.082  10.549  31.099  0.4446 -0.2097  0.0261
 1446BOLB   C1A34685   6.728  10.173  30.702  0.1304 -0.2608 -0.0181
 1446BOLB   C2A34686   6.326  10.057  30.634  0.0328  0.0185  0.0711
 1446BOLB   C3A34687   5.853   9.934  30.515  0.1435 -0.4048  0.1000
 1446BOLB   C4A34688   5.515   9.625  30.295  0.4229 -0.1271 -0.0149
 1446BOLB   C1B34689   6.844  10.861  30.867 -0.1534 -0.0323 -0.0864
 1446BOLB   C2B34690   6.586  10.742  30.492 -0.0037 -0.0721  0.0594
 1446BOLB   C3B34691   6.215  10.827  30.400  0.0321 -0.0876  0.1828
 1446BOLB   C4B34692   5.789  11.060  30.154 -0.2566 -0.2327 -0.0165
 1446BOLB   NC234693   3.558   8.583  31.290  0.1214  0.0260  0.2599
 1446BOLB   PO234694   4.008   8.572  31.218  0.0965 -0.0740  0.5366
 1446BOLB   GL334695   4.425   8.670  31.025  0.1737 -0.0818  0.0928
 1446BOLB   GL434696   4.657   8.432  31.023  0.3673 -0.2922 -0.1172
 1446BOLB   C1C34697   4.794   8.675  30.595  0.0873 -0.0530 -0.0572
 1446BOLB   C2C34698   4.785   8.948  30.319  0.2860 -0.1878 -0.0657
 1446BOLB   C3C34699   4.897   9.356  30.408  0.1170 -0.0964  0.0038
 1446BOLB   C4C34700   5.161   9.645  30.302  0.2579  0.2744  0.4352
 1446BOLB   C1D34701   4.894   8.902  31.044 -0.1093  0.1222 -0.1968
 1446BOLB   C2D34702   5.092   9.231  30.832  0.0784 -0.2186 -0.1020
 1446BOLB   C3D34703   5.478   9.341  30.696 -0.1641 -0.0880  0.2778
 1446BOLB   C4D34704   5.845   9.455  30.636 -0.0742 -0.0516 -0.1170
 1447BOLB   NC134705   7.400  15.071  30.446  0.0340  0.1947 -0.2494
 1447BOLB   PO134706   7.515  15.283  30.099 -0.1191 -0.0626 -0.0204
 1447BOLB   GL134707   7.154  15.317  29.922 -0.1659  0.2055  0.0030
 1447BOLB   GL234708   7.191  15.023  29.762 -0.3218 -0.0334  0.1360
 1447BOLB   C1A34709   6.794  15.256  29.849  0.2134 -0.2335 -0.1103
 1447BOLB   C2A34710   6.426  15.287  30.004  0.1605 -0.0281 -0.0397
 1447BOLB   C3A34711   5.938  15.259  30.044  0.2827  0.0123 -0.3921
 1447BOLB   C4A34712   5.489  15.152  29.786 -0.0293  0.2091 -0.4874
 1447BOLB   C1B34713   6.810  14.786  29.656  0.4233  0.1040 -0.0454
 1447BOLB   C2B34714   6.544  15.127  29.435 -0.1037 -0.0178 -0.0212
 1447BOLB   C3B34715   6.196  15.302  29.484  0.0251  0.0975 -0.1151
 1447BOLB   C4B34716   5.746  15.469  29.530 -0.2196 -0.1236 -0.1877
 1447BOLB   NC234717   3.332  15.528  29.924 -0.1429 -0.1400 -0.1613
 1447BOLB   PO234718   3.153  15.441  29.466 -0.1482  0.1215  0.1129
 1447BOLB   GL334719   3.555  15.224  29.574 -0.5884 -0.1753  0.6315
 1447BOLB   GL434720   3.742  15.225  29.953 -0.2209 -0.3845 -0.0410
 1447BOLB   C1C34721   4.048  15.298  29.475 -0.2875  0.0083  0.0628
 1447BOLB   C2C34722   4.483  15.268  29.445 -0.1823 -0.0004 -0.1118
 1447BOLB   C3C34723   4.783  15.056  29.485  0.0320  0.1638  0.1872
 1447BOLB   C4C34724   5.175  14.972  29.614  0.1850 -0.0240  0.0455
 1447BOLB   C1D34725   4.163  15.073  29.959 -0.1961  0.1540 -0.0831
 1447BOLB   C2D34726   4.525  15.203  29.920 -0.0708  0.1312  0.0736
 1447BOLB   C3D34727   4.795  15.385  29.934 -0.1591  0.2282  0.0891
 1447BOLB   C4D34728   5.235  15.567  29.903  0.3036  0.2182  0.1680
 1448BOLB   NC134729  24.795   9.405  39.527  0.2105  0.0561 -0.0926
 1448BOLB   PO134730  24.549   9.138  39.738  0.3876 -0.2202  0.0222
 1448BOLB   GL134731  24.116   9.208  39.726  0.2139  0.1208  0.0978
 1448BOLB   GL234732  23.982   9.093  39.853  0.1966 -0.0300 -0.0986
 1448BOLB   C1A34733  23.796   9.527  39.680 -0.0840  0.1133  0.0184
 1448BOLB   C2A34734  23.503   9.656  39.434 -0.1121 -0.2846 -0.1746
 1448BOLB   C3A34735  23.250   9.988  39.439 -0.2854  0.1629  0.1330
 1448BOLB   C4A34736  23.348  10.436  39.207  0.1730  0.0750  0.2347
 1448BOLB   C1B34737  23.590   9.042  39.693 -0.0439  0.1466 -0.0978
 1448BOLB   C2B34738  23.275   9.214  39.391 -0.0753  0.0361  0.1070
 1448BOLB   C3B34739  22.843   9.052  39.185  0.1359 -0.0415 -0.0420
 1448BOLB   C4B34740  22.588   8.947  38.788  0.3738 -0.0101  0.1319
 1448BOLB   NC234741  25.374  10.960  39.496 -0.0021  0.0093  0.4162
 1448BOLB   PO234742  25.053  11.129  39.609 -0.2557  0.0537 -0.0167
 1448BOLB   GL334743  24.643  11.235  39.444 -0.2226  0.2233  0.0812
 1448BOLB   GL434744  24.396  11.349  39.651  0.0346  0.2714 -0.0457
 1448BOLB   C1C34745  24.424  10.833  39.241  0.1655  0.1000  0.0926
 1448BOLB   C2C34746  24.129  10.836  38.817 -0.2148 -0.0781 -0.2725
 1448BOLB   C3C34747  23.823  10.910  38.569 -0.0695  0.1434  0.0803
 1448BOLB   C4C34748  23.440  10.725  38.769  0.1168 -0.0149 -0.1655
 1448BOLB   C1D34749  24.131  11.227  39.297  0.0871 -0.1002 -0.2171
 1448BOLB   C2D34750  23.718  11.346  39.283 -0.1471 -0.1300 -0.2019
 1448BOLB   C3D34751  23.367  11.406  38.936 -0.1045  0.0234  0.0602
 1448BOLB   C4D34752  23.001  11.521  38.742 -0.0419  0.0988  0.2963
 1449BOLB   NC134753  24.496  18.182  38.522 -0.2884 -0.5017  0.4561
 1449BOLB   PO134754  24.228  17.850  38.716  0.1526  0.2085  0.1142
 1449BOLB   GL134755  23.799  17.765  38.520  0.0071  0.2848  0.1682
 1449BOLB   GL234756  23.646  18.019  38.413  0.2054  0.1652  0.2257
 1449BOLB   C1A34757  23.310  17.806  38.617  0.2580 -0.1753  0.3077
 1449BOLB   C2A34758  22.980  17.840  38.269  0.3702  0.1331  0.2104
 1449BOLB   C3A34759  22.862  18.105  38.056  0.0165 -0.0183 -0.2125
 1449BOLB   C4A34760  22.894  18.243  37.661 -0.1245 -0.0068  0.2254
 1449BOLB   C1B34761  23.713  17.728  38.036 -0.1075  0.4175  0.1546
 1449BOLB   C2B34762  23.794  17.695  37.498 -0.1385 -0.0751 -0.0273
 1449BOLB   C3B34763  23.846  17.909  37.117  0.4642 -0.1821 -0.1433
 1449BOLB   C4B34764  23.608  17.739  36.769 -0.0716  0.0107  0.0800
 1449BOLB   NC234765  23.889  19.804  36.992  0.1799  0.1845  0.2244
 1449BOLB   PO234766  23.797  19.783  36.551  0.2988  0.3073 -0.1084
 1449BOLB   GL334767  23.521  19.494  36.367  0.0324 -0.2084 -0.4092
 1449BOLB   GL434768  23.650  19.216  36.199  0.2641 -0.0286 -0.2002
 1449BOLB   C1C34769  23.273  19.117  36.492 -0.0028  0.0342  0.4144
 1449BOLB   C2C34770  23.043  18.760  36.689  0.0521  0.0709  0.2864
 1449BOLB   C3C34771  23.102  18.632  37.120  0.1639 -0.4286 -0.1137
 1449BOLB   C4C34772  23.038  18.533  37.425 -0.0622 -0.2631 -0.2957
 1449BOLB   C1D34773  23.513  19.130  35.863 -0.0736 -0.2264  0.0507
 1449BOLB   C2D34774  23.333  19.245  35.636  0.1749 -0.1348  0.2689
 1449BOLB   C3D34775  22.921  19.137  35.450  0.0002 -0.1226  0.0555
 1449BOLB   C4D34776  22.537  19.199  35.367 -0.1080 -0.3243  0.1220
 1450BOLB   NC134777   7.817  11.594  33.164  0.0050 -0.4016 -0.1355
 1450BOLB   PO134778   7.811  11.446  33.545  0.0794  0.1619  0.2399
 1450BOLB   GL134779   7.776  11.345  33.996 -0.0606  0.3469  0.0431
 1450BOLB   GL234780   7.913  11.028  34.136  0.0611 -0.2375  0.2560
 1450BOLB   C1A34781   7.464  11.255  34.132  0.1783  0.1033 -0.0556
 1450BOLB   C2A34782   7.148  11.246  34.468 -0.0371 -0.3621  0.0310
 1450BOLB   C3A34783   6.862  11.191  34.728 -0.0984 -0.2413 -0.2849
 1450BOLB   C4A34784   6.534  11.307  34.892  0.2022  0.2365 -0.0255
 1450BOLB   C1B34785   7.647  10.739  34.091 -0.0651  0.1509 -0.1380
 1450BOLB   C2B34786   7.486  10.460  34.152  0.1434  0.0461 -0.0311
 1450BOLB   C3B34787   7.082  10.308  34.180 -0.1262 -0.2018  0.1624
 1450BOLB   C4B34788   6.698   9.987  34.104  0.0880 -0.2027 -0.2407
 1450BOLB   NC234789   5.459  10.406  37.211  0.0547 -0.2742  0.3748
 1450BOLB   PO234790   5.126  10.597  36.858  0.4438 -0.1684  0.0029
 1450BOLB   GL334791   5.480  10.765  36.487 -0.2826 -0.2540  0.1009
 1450BOLB   GL434792   5.805  10.763  36.670 -0.1394 -0.0494 -0.0405
 1450BOLB   C1C34793   5.476  10.866  35.998 -0.2645  0.2171  0.0782
 1450BOLB   C2C34794   5.493  11.080  35.602  0.1206 -0.0141 -0.1490
 1450BOLB   C3C34795   5.741  11.126  35.235 -0.1154  0.0908  0.0098
 1450BOLB   C4C34796   6.145  11.217  35.077  0.0843  0.0450 -0.2813
 1450BOLB   C1D34797   6.184  10.466  36.611  0.0291 -0.0529 -0.0424
 1450BOLB   C2D34798   6.719  10.496  36.554  0.2226 -0.0565  0.0673
 1450BOLB   C3D34799   7.095  10.668  36.556 -0.2245 -0.1994  0.2909
 1450BOLB   C4D34800   7.445  10.762  36.855  0.1294  0.0243 -0.4077
 1451BOLB   NC134801  15.555  19.547  24.509 -0.1584  0.1460  0.3221
 1451BOLB   PO134802  15.547  19.951  24.220 -0.1158  0.0321 -0.0373
 1451BOLB   GL134803  15.643  20.356  24.061 -0.3057 -0.4460  0.0480
 1451BOLB   GL234804  15.738  20.454  23.697  0.2045  0.0111 -0.2372
 1451BOLB   C1A34805  15.798  20.733  24.255 -0.0807  0.1307  0.0574
 1451BOLB   C2A34806  15.962  21.192  24.164 -0.0242 -0.1918  0.3678
 1451BOLB   C3A34807  16.102  21.556  23.897 -0.5218  0.0877  0.2361
 1451BOLB   C4A34808  16.571  21.583  23.754 -0.1791 -0.2349 -0.0616
 1451BOLB   C1B34809  15.505  20.733  23.442  0.0002  0.0601 -0.2822
 1451BOLB   C2B34810  15.267  20.930  23.019 -0.1453 -0.2601 -0.0630
 1451BOLB   C3B34811  15.193  21.216  22.656  0.0135 -0.0624  0.2118
 1451BOLB   C4B34812  14.936  21.528  22.254 -0.1619 -0.2270 -0.1000
 1451BOLB   NC234813  17.150  24.560  24.292  0.0683  0.3224 -0.0815
 1451BOLB   PO234814  17.181  24.110  24.110  0.0207 -0.3058  0.0817
 1451BOLB   GL334815  16.933  23.739  24.080  0.0317  0.0036 -0.2108
 1451BOLB   GL434816  17.185  23.595  24.283 -0.1735 -0.1546 -0.1062
 1451BOLB   C1C34817  16.872  23.252  24.189 -0.0802  0.2571  0.1008
 1451BOLB   C2C34818  16.827  22.687  24.247 -0.0618 -0.0634 -0.1934
 1451BOLB   C3C34819  16.870  22.212  24.191 -0.3011  0.0838 -0.2137
 1451BOLB   C4C34820  16.980  21.903  23.921  0.3315 -0.1786 -0.1448
 1451BOLB   C1D34821  17.081  23.283  24.616  0.0537  0.2963  0.1008
 1451BOLB   C2D34822  17.090  22.977  25.017  0.2245 -0.1217 -0.0299
 1451BOLB   C3D34823  17.189  22.654  25.187 -0.2104  0.2804 -0.1984
 1451BOLB   C4D34824  17.303  22.505  25.612 -0.1950 -0.2844  0.3832
 1452BOLB   NC134825   8.103  13.305  29.111 -0.0277 -0.2369  0.0668
 1452BOLB   PO134826   7.629  13.351  29.039  0.2730 -0.2433 -0.0296
 1452BOLB   GL134827   7.405  13.062  29.099 -0.2939 -0.2547 -0.3761
 1452BOLB   GL234828   7.427  12.804  29.204 -0.4130 -0.3580 -0.1712
 1452BOLB   C1A34829   6.955  13.056  29.021  0.0221  0.2164 -0.0337
 1452BOLB   C2A34830   6.641  13.063  28.593 -0.2600 -0.2823  0.1705
 1452BOLB   C3A34831   6.318  13.008  28.269 -0.2459 -0.0664 -0.0054
 1452BOLB   C4A34832   5.941  13.123  28.042  0.2398 -0.0632 -0.1132
 1452BOLB   C1B34833   7.096  12.588  29.064  0.4052 -0.2513 -0.5192
 1452BOLB   C2B34834   6.630  12.706  28.936  0.3829 -0.2316  0.0166
 1452BOLB   C3B34835   6.215  12.543  29.132  0.3343 -0.0151  0.1928
 1452BOLB   C4B34836   5.920  12.350  29.400  0.4457  0.1059 -0.2617
 1452BOLB   NC234837   3.822  13.687  27.260 -0.2451  0.1932 -0.1037
 1452BOLB   PO234838   3.982  14.105  27.044  0.1955  0.1368 -0.1211
 1452BOLB   GL334839   4.278  14.127  27.306  0.1156  0.2608  0.2437
 1452BOLB   GL434840   4.299  14.300  27.555 -0.1482 -0.0668 -0.2804
 1452BOLB   C1C34841   4.633  13.870  27.448  0.0004 -0.0622  0.1238
 1452BOLB   C2C34842   5.044  13.628  27.557  0.1243  0.3120  0.2904
 1452BOLB   C3C34843   5.344  13.636  27.804  0.0973 -0.2649  0.0846
 1452BOLB   C4C34844   5.651  13.328  27.833  0.0971 -0.0473 -0.0889
 1452BOLB   C1D34845   4.561  14.309  27.835 -0.3528  0.2025 -0.0105
 1452BOLB   C2D34846   4.907  14.050  27.884 -0.2829  0.0277 -0.2480
 1452BOLB   C3D34847   5.374  14.156  27.916  0.1781  0.3268  0.1077
 1452BOLB   C4D34848   5.815  14.178  27.970 -0.2823 -0.0646  0.0935
 1453BOLB   NC134849  18.909  19.120  29.489 -0.0741 -0.0296  0.0984
 1453BOLB   PO134850  18.535  19.370  29.744 -0.1651 -0.1363 -0.2099
 1453BOLB   GL134851  18.635  19.708  29.620  0.0809 -0.1879 -0.2327
 1453BOLB   GL234852  18.438  19.895  29.778 -0.1260  0.1059  0.1801
 1453BOLB   C1A34853  18.942  20.080  29.495 -0.2630 -0.1007  0.1656
 1453BOLB   C2A34854  19.178  20.406  29.310 -0.0805 -0.1552  0.1189
 1453BOLB   C3A34855  19.321  20.783  29.093 -0.0026 -0.1431  0.0721
 1453BOLB   C4A34856  19.242  21.240  28.981  0.0543 -0.0079  0.1989
 1453BOLB   C1B34857  18.442  20.267  29.486 -0.2130  0.2540 -0.0060
 1453BOLB   C2B34858  18.371  20.738  29.518 -0.0763 -0.3247 -0.1339
 1453BOLB   C3B34859  18.267  21.114  29.245 -0.1427 -0.1471  0.1938
 1453BOLB   C4B34860  18.410  21.513  29.188 -0.1910  0.0704 -0.1558
 1453BOLB   NC234861  20.202  23.279  29.733  0.0724  0.2918  0.1203
 1453BOLB   PO234862  19.965  23.600  29.583 -0.1030 -0.0503 -0.0514
 1453BOLB   GL334863  19.915  23.212  29.295 -0.0572  0.0621 -0.2271
 1453BOLB   GL434864  20.027  22.908  29.491  0.0547  0.0244  0.0921
 1453BOLB   C1C34865  19.621  22.937  29.003  0.2043  0.1180  0.0584
 1453BOLB   C2C34866  19.290  22.566  28.810 -0.2997 -0.1592 -0.0574
 1453BOLB   C3C34867  19.248  22.060  28.889 -0.4626  0.1507  0.0250
 1453BOLB   C4C34868  19.233  21.655  28.987 -0.1125 -0.1358 -0.5295
 1453BOLB   C1D34869  19.751  22.618  29.383  0.3105  0.2122  0.0955
 1453BOLB   C2D34870  19.549  22.153  29.378 -0.1617 -0.2926  0.3065
 1453BOLB   C3D34871  19.142  21.958  29.374 -0.2087 -0.1787  0.0696
 1453BOLB   C4D34872  18.693  21.926  29.466 -0.4147 -0.3683 -0.0099
 1454BOLB   NC134873  20.249   6.750  33.699 -0.0671  0.1954 -0.1170
 1454BOLB   PO134874  20.357   6.416  34.003 -0.0630 -0.2142 -0.0758
 1454BOLB   GL134875  20.520   5.988  34.075  0.0977  0.3650  0.0028
 1454BOLB   GL234876  20.754   5.909  34.365  0.1264 -0.0424  0.2511
 1454BOLB   C1A34877  20.709   5.535  34.005 -0.0352 -0.0893 -0.1276
 1454BOLB   C2A34878  20.869   5.203  34.228  0.0522 -0.1552  0.2137
 1454BOLB   C3A34879  20.968   4.706  34.327  0.0763 -0.0130  0.0495
 1454BOLB   C4A34880  20.950   4.214  34.505  0.3369 -0.0633  0.2555
 1454BOLB   C1B34881  20.948   5.558  34.505  0.2154 -0.0752  0.2575
 1454BOLB   C2B34882  21.357   5.421  34.667  0.1451  0.4636 -0.0069
 1454BOLB   C3B34883  21.675   5.171  34.562  0.1151  0.6807  0.2053
 1454BOLB   C4B34884  21.735   4.808  34.861 -0.3659 -0.1636  0.1107
 1454BOLB   NC234885  21.500   1.778  35.061  0.1283 -0.2450  0.0757
 1454BOLB   PO234886  21.343   1.936  34.682  0.0657 -0.1686  0.3492
 1454BOLB   GL334887  21.154   2.283  34.432 -0.1711 -0.0184 -0.0801
 1454BOLB   GL434888  21.085   2.158  34.141  0.2196  0.3039  0.1590
 1454BOLB   C1C34889  21.088   2.752  34.611  0.0317 -0.0152  0.1243
 1454BOLB   C2C34890  20.942   3.164  34.871  0.1140 -0.2336  0.0053
 1454BOLB   C3C34891  20.864   3.481  34.841  0.2071  0.1245 -0.0765
 1454BOLB   C4C34892  20.966   3.863  34.782 -0.0413 -0.0829  0.0194
 1454BOLB   C1D34893  20.842   2.572  34.223 -0.1645 -0.0965  0.2020
 1454BOLB   C2D34894  20.826   3.035  34.333 -0.1735  0.0768  0.3234
 1454BOLB   C3D34895  20.518   3.441  34.362 -0.1418  0.0080 -0.2959
 1454BOLB   C4D34896  20.075   3.521  34.482 -0.1020 -0.0478 -0.0801
 1455BOLB   NC134897  20.557  13.013  38.234  0.0619  0.0195 -0.2136
 1455BOLB   PO134898  20.481  13.449  38.200  0.0326  0.0090 -0.1011
 1455BOLB   GL134899  20.876  13.597  38.321  0.1693 -0.2405  0.0113
 1455BOLB   GL234900  20.971  13.368  38.491  0.2751  0.3078  0.1939
 1455BOLB   C1A34901  20.859  13.876  38.624  0.0505  0.1868 -0.1116
 1455BOLB   C2A34902  21.004  13.959  39.021  0.0581 -0.0038  0.0025
 1455BOLB   C3A34903  21.089  14.083  39.422  0.2543  0.0983  0.3009
 1455BOLB   C4A34904  21.314  14.161  39.766 -0.2567 -0.0612 -0.0152
 1455BOLB   C1B34905  21.346  13.635  38.670  0.2319 -0.0963  0.0629
 1455BOLB   C2B34906  21.457  13.830  38.978  0.0436  0.1194  0.0111
 1455BOLB   C3B34907  21.562  14.172  39.257 -0.0493 -0.0612 -0.2482
 1455BOLB   C4B34908  21.768  14.584  39.605  0.0020 -0.1167  0.0607
 1455BOLB   NC234909  23.710  13.963  40.783  0.2200  0.1058  0.0429
 1455BOLB   PO234910  23.349  13.678  41.020 -0.0249 -0.0191 -0.2963
 1455BOLB   GL334911  23.262  13.768  40.664  0.1400  0.1114 -0.1393
 1455BOLB   GL434912  23.158  13.496  40.560  0.1043 -0.0593  0.3337
 1455BOLB   C1C34913  23.009  13.989  40.327  0.1528 -0.1969  0.2933
 1455BOLB   C2C34914  22.551  13.964  40.035 -0.4360 -0.1262 -0.0177
 1455BOLB   C3C34915  22.107  13.955  40.158 -0.2698  0.0887 -0.2069
 1455BOLB   C4C34916  21.724  13.981  39.955 -0.0890 -0.0002 -0.1121
 1455BOLB   C1D34917  22.756  13.491  40.253 -0.0025  0.1478  0.0172
 1455BOLB   C2D34918  22.531  13.521  39.841  0.0548 -0.1915  0.1792
 1455BOLB   C3D34919  22.561  13.773  39.475  0.0290  0.2764  0.0275
 1455BOLB   C4D34920  22.759  13.770  39.155  0.0803  0.1182 -0.0398
 1456BOLB   NC134921  18.504  18.159  36.734 -0.0721 -0.0393  0.0246
 1456BOLB   PO134922  18.919  17.855  36.685  0.1276 -0.2034 -0.1081
 1456BOLB   GL134923  19.035  18.332  36.788 -0.0032  0.0766  0.0481
 1456BOLB   GL234924  18.836  18.530  36.877 -0.1202 -0.0506 -0.3719
 1456BOLB   C1A34925  19.453  18.591  36.657  0.1415 -0.0019  0.0998
 1456BOLB   C2A34926  19.878  18.765  36.502  0.2272 -0.1674 -0.1582
 1456BOLB   C3A34927  20.335  18.815  36.606  0.2226 -0.0919  0.1643
 1456BOLB   C4A34928  20.575  19.172  36.424 -0.0258 -0.0990 -0.1394
 1456BOLB   C1B34929  18.974  18.872  36.920 -0.0186  0.0121 -0.2278
 1456BOLB   C2B34930  19.206  19.241  37.130 -0.0209  0.1137 -0.0385
 1456BOLB   C3B34931  19.237  19.489  37.460 -0.1176 -0.3362 -0.1152
 1456BOLB   C4B34932  18.987  19.772  37.686 -0.1754 -0.1802 -0.4034
 1456BOLB   NC234933  22.004  20.852  37.025 -0.2219  0.1223  0.3991
 1456BOLB   PO234934  21.780  21.041  37.422 -0.1742  0.1570 -0.5107
 1456BOLB   GL334935  21.527  20.842  37.142  0.2002 -0.2098  0.1527
 1456BOLB   GL434936  21.394  20.620  37.296  0.2153  0.2491 -0.2035
 1456BOLB   C1C34937  21.529  20.519  36.703 -0.2685  0.0500  0.0562
 1456BOLB   C2C34938  21.132  20.412  36.450  0.2894  0.0392  0.1930
 1456BOLB   C3C34939  20.930  19.938  36.481 -0.0508  0.1811  0.1452
 1456BOLB   C4C34940  20.744  19.587  36.443 -0.0261 -0.1704  0.0312
 1456BOLB   C1D34941  21.033  20.591  36.943 -0.2907  0.1457  0.0511
 1456BOLB   C2D34942  20.690  20.433  36.707 -0.1658 -0.0640  0.0455
 1456BOLB   C3D34943  20.326  20.258  36.817  0.1992 -0.1387 -0.0608
 1456BOLB   C4D34944  19.862  20.243  36.629  0.2020  0.2754  0.1546
 1457BOLB   NC134945  13.718  17.800  21.931 -0.2741  0.1295  0.4655
 1457BOLB   PO134946  13.703  17.584  21.574  0.0947  0.1623  0.1543
 1457BOLB   GL134947  13.296  17.787  21.387  0.1456  0.1547  0.1112
 1457BOLB   GL234948  12.925  17.601  21.559  0.5756  0.0787  0.0247
 1457BOLB   C1A34949  13.105  18.042  21.077 -0.3277  0.1454 -0.0294
 1457BOLB   C2A34950  13.022  18.291  20.737 -0.1364  0.1622 -0.0126
 1457BOLB   C3A34951  12.982  18.347  20.259 -0.2326 -0.6102  0.0646
 1457BOLB   C4A34952  12.921  18.503  19.792  0.6698 -0.0957  0.1479
 1457BOLB   C1B34953  12.757  17.606  21.146  0.2862 -0.5141 -0.1040
 1457BOLB   C2B34954  12.578  17.848  20.817  0.0285 -0.2381 -0.0986
 1457BOLB   C3B34955  12.526  18.236  20.583  0.1235 -0.2077  0.0225
 1457BOLB   C4B34956  12.680  18.582  20.548  0.0543  0.0212 -0.0762
 1457BOLB   NC234957  12.442  18.148  17.482  0.3261  0.1774  0.0288
 1457BOLB   PO234958  12.642  18.414  17.665 -0.1359 -0.1609  0.1301
 1457BOLB   GL334959  12.604  18.185  18.032  0.0186 -0.0819 -0.0996
 1457BOLB   GL434960  12.621  17.869  17.913  0.0137 -0.1494  0.0993
 1457BOLB   C1C34961  12.512  18.170  18.533 -0.1372  0.0096 -0.0861
 1457BOLB   C2C34962  12.602  18.382  18.877  0.3316  0.0676 -0.0990
 1457BOLB   C3C34963  12.385  18.571  19.136  0.2382  0.0466  0.4859
 1457BOLB   C4C34964  12.521  18.575  19.504  0.2491  0.0706 -0.1551
 1457BOLB   C1D34965  12.670  17.698  18.264  0.0698 -0.1925  0.0352
 1457BOLB   C2D34966  12.861  17.607  18.669  0.1081 -0.1888  0.1146
 1457BOLB   C3D34967  13.020  17.679  19.096 -0.2174  0.1675  0.1067
 1457BOLB   C4D34968  12.795  17.673  19.528  0.1443 -0.0034 -0.1532
 1458BOLB   NC134969   8.571  18.504  29.637  0.0655  0.2209 -0.1370
 1458BOLB   PO134970   8.515  18.834  29.882  0.0650 -0.1401 -0.0026
 1458BOLB   GL134971   8.206  19.078  29.824  0.0667 -0.2239 -0.0082
 1458BOLB   GL234972   7.944  19.312  29.963  0.3243 -0.4030 -0.2129
 1458BOLB   C1A34973   7.832  18.845  29.715 -0.1539 -0.2697  0.2816
 1458BOLB   C2A34974   7.470  18.944  29.878  0.0516  0.2661 -0.0122
 1458BOLB   C3A34975   7.414  19.362  29.845 -0.0429  0.1696 -0.3070
 1458BOLB   C4A34976   7.030  19.620  29.998 -0.0116 -0.5033 -0.0543
 1458BOLB   C1B34977   8.003  19.505  30.395  0.0890  0.0061  0.1895
 1458BOLB   C2B34978   7.590  19.667  30.556 -0.1867  0.2695  0.2523
 1458BOLB   C3B34979   7.270  19.844  30.386 -0.3789  0.3275 -0.0312
 1458BOLB   C4B34980   6.874  19.964  30.462  0.1647  0.1088 -0.0586
 1458BOLB   NC234981   6.725  22.491  30.405 -0.0806  0.0922 -0.1474
 1458BOLB   PO234982   6.705  22.082  30.416 -0.0571  0.2418  0.2460
 1458BOLB   GL334983   6.768  21.618  30.323 -0.4093 -0.1604  0.1709
 1458BOLB   GL434984   6.785  21.536  29.994  0.5571  0.3066  0.3451
 1458BOLB   C1C34985   6.611  21.281  30.383 -0.0205  0.0259 -0.3063
 1458BOLB   C2C34986   6.791  20.845  30.304 -0.2400  0.2764 -0.0474
 1458BOLB   C3C34987   6.766  20.443  30.192 -0.1655  0.1072  0.1844
 1458BOLB   C4C34988   6.966  20.079  30.030 -0.0736 -0.2305 -0.0459
 1458BOLB   C1D34989   6.666  21.134  29.925 -0.0252 -0.2047 -0.0694
 1458BOLB   C2D34990   6.458  20.667  29.923 -0.3073  0.0941 -0.2502
 1458BOLB   C3D34991   6.453  20.180  29.963 -0.0641 -0.1476 -0.2194
 1458BOLB   C4D34992   6.364  19.829  29.894  0.2523 -0.0726  0.2335
 1459BOLB   NC134993   7.788  16.222  30.623  0.0171 -0.1861  0.2420
 1459BOLB   PO134994   7.463  15.948  30.805 -0.1752  0.1218 -0.0296
 1459BOLB   GL134995   7.093  15.721  30.671  0.1496 -0.2651  0.2606
 1459BOLB   GL234996   7.186  15.537  30.389 -0.2866  0.1475  0.0913
 1459BOLB   C1A34997   6.848  15.411  30.764  0.1209 -0.0306  0.2764
 1459BOLB   C2A34998   6.508  15.246  30.540  0.3169 -0.2091  0.3290
 1459BOLB   C3A34999   6.198  15.015  30.425 -0.1445 -0.0142 -0.2260
 1459BOLB   C4A35000   5.733  14.924  30.370 -0.0988  0.0837  0.2114
 1459BOLB   C1B35001   6.802  15.525  30.293 -0.4072 -0.3447 -0.0594
 1459BOLB   C2B35002   6.331  15.754  30.351  0.0303  0.2974  0.2208
 1459BOLB   C3B35003   5.921  15.724  30.208 -0.2381 -0.0216 -0.3168
 1459BOLB   C4B35004   5.507  15.462  30.285 -0.0588  0.2134 -0.0137
 1459BOLB   NC235005   3.054  15.866  30.802  0.4720 -0.0153 -0.0541
 1459BOLB   PO235006   3.315  15.547  30.889 -0.1141 -0.1106  0.0769
 1459BOLB   GL335007   3.625  15.245  30.706 -0.1370 -0.1923 -0.0605
 1459BOLB   GL435008   3.868  15.423  30.872  0.0069  0.0400  0.1917
 1459BOLB   C1C35009   4.139  15.162  30.527  0.1956  0.2381 -0.1674
 1459BOLB   C2C35010   4.544  15.022  30.367 -0.4085  0.1973 -0.2375
 1459BOLB   C3C35011   4.936  15.006  30.174  0.1753  0.1385  0.0843
 1459BOLB   C4C35012   5.286  15.047  30.389  0.5882 -0.0556  0.0260
 1459BOLB   C1D35013   4.107  15.737  30.593 -0.0693  0.1438 -0.2650
 1459BOLB   C2D35014   4.490  15.934  30.124  0.2417 -0.2277 -0.0024
 1459BOLB   C3D35015   4.913  15.888  30.107 -0.0709 -0.0595  0.4047
 1459BOLB   C4D35016   5.310  16.140  30.072 -0.1222  0.0681  0.1258
 1460BOLB   NC135017  16.856  20.122  31.094 -0.1891  0.3503  0.0297
 1460BOLB   PO135018  17.156  20.145  30.820 -0.0683 -0.1963 -0.3992
 1460BOLB   GL135019  17.335  20.615  30.764  0.2062  0.1298  0.1212
 1460BOLB   GL235020  17.397  20.677  30.382 -0.0213  0.2224  0.2941
 1460BOLB   C1A35021  17.537  21.020  30.736 -0.0848 -0.1494  0.0745
 1460BOLB   C2A35022  17.677  21.417  30.919  0.3046 -0.4660  0.4302
 1460BOLB   C3A35023  17.634  21.796  31.136  0.4203  0.2129 -0.0640
 1460BOLB   C4A35024  17.775  21.781  31.513  0.1510  0.1502  0.2641
 1460BOLB   C1B35025  17.754  20.640  30.136  0.2047  0.0671  0.0921
 1460BOLB   C2B35026  17.860  21.076  30.252 -0.0966 -0.2039 -0.0806
 1460BOLB   C3B35027  18.068  21.469  30.433 -0.0804  0.0161 -0.2515
 1460BOLB   C4B35028  18.309  21.961  30.349  0.0580  0.1046  0.2978
 1460BOLB   NC235029  19.071  23.728  31.997  0.2652  0.2656 -0.0730
 1460BOLB   PO235030  18.855  23.761  31.593 -0.0334  0.0692  0.0921
 1460BOLB   GL335031  18.654  23.416  31.433 -0.1658  0.0920 -0.1677
 1460BOLB   GL435032  18.590  23.503  31.099  0.2805 -0.0597  0.2160
 1460BOLB   C1C35033  18.603  23.059  31.623  0.0451  0.0536  0.0311
 1460BOLB   C2C35034  18.458  22.703  31.839 -0.2675  0.3199  0.1304
 1460BOLB   C3C35035  18.135  22.423  32.031 -0.1895 -0.0501 -0.0145
 1460BOLB   C4C35036  18.028  22.007  31.789  0.0449 -0.0669 -0.0920
 1460BOLB   C1D35037  18.163  23.265  30.921  0.0320 -0.1558 -0.2794
 1460BOLB   C2D35038  18.050  22.778  30.917  0.3155 -0.1852  0.0335
 1460BOLB   C3D35039  17.834  22.451  30.784  0.3036 -0.1680 -0.1999
 1460BOLB   C4D35040  17.552  22.196  30.864 -0.0505 -0.0943  0.3054
 1461BOLB   NC135041   8.928   9.609  32.941  0.0520 -0.4186  0.1991
 1461BOLB   PO135042   8.516   9.728  33.162  0.0891 -0.1559  0.0002
 1461BOLB   GL135043   8.189   9.957  33.437  0.0466  0.0026 -0.1486
 1461BOLB   GL235044   8.091   9.895  33.783 -0.0680 -0.2217 -0.0459
 1461BOLB   C1A35045   7.743  10.059  33.466  0.4489  0.4378 -0.1687
 1461BOLB   C2A35046   7.307   9.954  33.578  0.0451 -0.0245  0.1779
 1461BOLB   C3A35047   7.023   9.727  33.808 -0.0247 -0.3505  0.2329
 1461BOLB   C4A35048   6.697   9.443  33.821 -0.1751 -0.1015 -0.1937
 1461BOLB   C1B35049   7.673  10.004  33.970  0.1139 -0.1348 -0.1392
 1461BOLB   C2B35050   7.348   9.822  34.300 -0.0320  0.1057  0.4505
 1461BOLB   C3B35051   7.190   9.465  34.489 -0.0170  0.1098 -0.1166
 1461BOLB   C4B35052   6.982   9.067  34.493  0.0176 -0.1401 -0.1177
 1461BOLB   NC235053   5.507   7.601  34.948  0.2200  0.3490  0.2260
 1461BOLB   PO235054   5.094   7.774  34.945  0.0075 -0.3278 -0.2947
 1461BOLB   GL335055   5.421   8.015  34.666  0.4307  0.3653  0.1630
 1461BOLB   GL435056   5.725   8.004  34.730 -0.1314  0.5219  0.3188
 1461BOLB   C1C35057   5.562   8.383  34.360  0.3957 -0.0620  0.2127
 1461BOLB   C2C35058   5.980   8.578  34.164 -0.2417  0.1920  0.0371
 1461BOLB   C3C35059   6.081   8.964  33.901  0.0774 -0.0445 -0.0862
 1461BOLB   C4C35060   6.402   9.135  33.708  0.1986 -0.1515 -0.4104
 1461BOLB   C1D35061   6.035   8.301  34.671 -0.2189 -0.0806 -0.0426
 1461BOLB   C2D35062   6.381   8.460  34.565 -0.0979  0.1306 -0.0913
 1461BOLB   C3D35063   6.661   8.650  34.395 -0.5554  0.0518  0.2805
 1461BOLB   C4D35064   6.969   8.725  34.074 -0.1609 -0.0942  0.2072
 1462BOLB   NC135065   7.785  17.019  31.223  0.0702  0.0306 -0.0239
 1462BOLB   PO135066   7.828  16.618  30.901  0.1085  0.4071 -0.0358
 1462BOLB   GL135067   7.431  16.905  30.894 -0.2249  0.2117 -0.4304
 1462BOLB   GL235068   7.245  16.992  30.621 -0.0324  0.0349 -0.0111
 1462BOLB   C1A35069   6.931  16.799  31.109  0.1268 -0.1608 -0.2712
 1462BOLB   C2A35070   6.587  16.738  30.951 -0.2676  0.0031  0.0726
 1462BOLB   C3A35071   6.140  16.705  31.007 -0.2147  0.3320  0.3150
 1462BOLB   C4A35072   5.912  16.438  30.790  0.1084 -0.0633 -0.1606
 1462BOLB   C1B35073   7.011  17.145  30.342 -0.0038 -0.0299 -0.0577
 1462BOLB   C2B35074   6.680  17.209  30.053 -0.2142  0.3020  0.2024
 1462BOLB   C3B35075   6.218  17.159  30.096 -0.4404 -0.0120  0.0354
 1462BOLB   C4B35076   5.963  17.386  30.001  0.1295 -0.0575 -0.1542
 1462BOLB   NC235077   3.850  16.887  31.404  0.0325  0.0357 -0.0818
 1462BOLB   PO235078   3.866  17.302  31.659  0.4470 -0.0394 -0.1450
 1462BOLB   GL335079   4.259  17.056  31.616 -0.0350 -0.2550  0.0304
 1462BOLB   GL435080   4.293  17.209  31.973  0.2396  0.2662 -0.0693
 1462BOLB   C1C35081   4.526  16.732  31.478  0.2332  0.0242  0.0743
 1462BOLB   C2C35082   4.848  16.523  31.378  0.3559 -0.0674 -0.2620
 1462BOLB   C3C35083   5.138  16.251  31.089  0.0611  0.0642 -0.2103
 1462BOLB   C4C35084   5.470  16.360  30.898  0.2753 -0.0188  0.0926
 1462BOLB   C1D35085   4.711  17.049  31.892 -0.4207  0.1492  0.0726
 1462BOLB   C2D35086   5.034  16.922  31.665  0.0056 -0.1487 -0.1271
 1462BOLB   C3D35087   5.376  16.902  31.496  0.0775  0.0170 -0.0062
 1462BOLB   C4D35088   5.670  16.657  31.259  0.0253  0.0265 -0.1138
 1463BOLB   NC135089   8.829   9.345  32.554 -0.1126 -0.4642 -0.1905
 1463BOLB   PO135090   8.601   9.785  32.559  0.1583  0.1055 -0.0304
 1463BOLB   GL135091   8.304   9.505  32.641 -0.2227 -0.0150  0.1528
 1463BOLB   GL235092   8.127   9.620  32.917  0.1327 -0.3235  0.2232
 1463BOLB   C1A35093   8.000   9.168  32.702 -0.1523 -0.0662  0.4267
 1463BOLB   C2A35094   7.691   8.901  32.617  0.0528  0.0409 -0.1819
 1463BOLB   C3A35095   7.489   8.632  32.242  0.0247  0.1254 -0.4771
 1463BOLB   C4A35096   7.372   8.176  32.050 -0.3698 -0.0960  0.1136
 1463BOLB   C1B35097   7.800   9.562  33.218 -0.0485 -0.2433  0.0623
 1463BOLB   C2B35098   7.769   9.514  33.681 -0.0154 -0.0570 -0.2882
 1463BOLB   C3B35099   7.507   9.343  33.951  0.4932 -0.1369  0.0445
 1463BOLB   C4B35100   7.183   9.185  34.082 -0.0350 -0.2147 -0.0832
 1463BOLB   NC235101   5.051   6.900  32.396 -0.3604 -0.0423  0.1425
 1463BOLB   PO235102   5.295   6.939  32.725 -0.0249  0.2641 -0.2647
 1463BOLB   GL335103   5.617   7.106  32.764  0.2463  0.0726  0.0350
 1463BOLB   GL435104   5.889   6.845  32.846 -0.2023 -0.1943 -0.3056
 1463BOLB   C1C35105   5.946   7.278  32.531  0.0184  0.0230  0.1665
 1463BOLB   C2C35106   6.344   7.262  32.504 -0.1629  0.3265  0.0128
 1463BOLB   C3C35107   6.654   7.528  32.187 -0.2543 -0.2818 -0.1237
 1463BOLB   C4C35108   6.978   7.877  31.986 -0.1557 -0.1626 -0.0313
 1463BOLB   C1D35109   6.296   6.972  32.911  0.0815 -0.1631  0.0029
 1463BOLB   C2D35110   6.671   7.265  33.003  0.0926 -0.0709  0.1649
 1463BOLB   C3D35111   7.044   7.197  33.241  0.0792 -0.0058  0.1726
 1463BOLB   C4D35112   7.376   7.275  33.351  0.0522  0.0145  0.0156
 1464BOLB   NC135113   9.964   7.797  33.388 -0.0576 -0.1445 -0.3041
 1464BOLB   PO135114  10.072   7.367  33.276  0.0502 -0.2305  0.0080
 1464BOLB   GL135115   9.619   7.280  33.247 -0.4348 -0.0426  0.2501
 1464BOLB   GL235116   9.496   7.171  32.927  0.2385  0.0331 -0.1220
 1464BOLB   C1A35117   9.401   6.930  33.365 -0.1410  0.2703 -0.1378
 1464BOLB   C2A35118   9.285   6.553  33.321  0.0145  0.2800  0.4405
 1464BOLB   C3A35119   9.121   6.202  33.270  0.0017  0.0516 -0.2372
 1464BOLB   C4A35120   8.791   5.935  33.142  0.3125 -0.0163  0.1235
 1464BOLB   C1B35121   9.380   6.778  32.888 -0.1931 -0.2289 -0.0247
 1464BOLB   C2B35122   9.065   6.508  32.763 -0.1517  0.0080 -0.0014
 1464BOLB   C3B35123   8.762   6.335  32.791 -0.0109  0.1329  0.0480
 1464BOLB   C4B35124   8.374   6.148  32.841 -0.1811 -0.1134 -0.1785
 1464BOLB   NC235125   6.596   5.491  33.102 -0.1468  0.1852 -0.0510
 1464BOLB   PO235126   6.670   5.123  33.532  0.2766  0.1190  0.0493
 1464BOLB   GL335127   7.029   5.120  33.584 -0.0776  0.1650 -0.0905
 1464BOLB   GL435128   7.145   4.855  33.705  0.0737 -0.3326 -0.3093
 1464BOLB   C1C35129   7.341   5.319  33.685 -0.1110 -0.2554 -0.0788
 1464BOLB   C2C35130   7.630   5.630  33.576  0.2483 -0.0507  0.0123
 1464BOLB   C3C35131   7.974   5.838  33.428 -0.1966  0.1006  0.0616
 1464BOLB   C4C35132   8.426   5.847  33.346  0.2560 -0.1369  0.0601
 1464BOLB   C1D35133   7.531   4.918  33.421 -0.1003 -0.1301  0.2109
 1464BOLB   C2D35134   7.880   5.211  33.388  0.1026 -0.0257 -0.0524
 1464BOLB   C3D35135   8.171   5.388  33.524 -0.0636  0.2139 -0.2170
 1464BOLB   C4D35136   8.692   5.441  33.567 -0.3340 -0.3361  0.0008
 1465BOLB   NC135137   9.147  16.657  27.735 -0.0835 -0.4402 -0.3031
 1465BOLB   PO135138   8.709  16.903  27.604 -0.5848 -0.1615  0.1701
 1465BOLB   GL135139   8.453  17.327  27.482  0.1288  0.0254 -0.1565
 1465BOLB   GL235140   8.106  17.275  27.319  0.1453 -0.2022 -0.2822
 1465BOLB   C1A35141   8.299  17.731  27.430  0.2762  0.0906  0.0105
 1465BOLB   C2A35142   7.934  17.932  27.385 -0.0030 -0.0480  0.2765
 1465BOLB   C3A35143   7.498  17.878  27.434  0.0864  0.0619  0.1724
 1465BOLB   C4A35144   7.210  18.070  27.098  0.3183  0.1779 -0.2193
 1465BOLB   C1B35145   7.690  17.446  27.426  0.0954  0.0560 -0.1953
 1465BOLB   C2B35146   7.254  17.413  27.438  0.2426  0.0793  0.0589
 1465BOLB   C3B35147   6.737  17.438  27.516  0.0174 -0.0574  0.0143
 1465BOLB   C4B35148   6.397  17.298  27.490 -0.0150 -0.1529 -0.0483
 1465BOLB   NC235149   4.987  19.338  25.843 -0.0747  0.1630  0.0303
 1465BOLB   PO235150   5.484  19.633  25.945  0.3492  0.2045 -0.0472
 1465BOLB   GL335151   5.764  19.641  26.267 -0.1012  0.1721 -0.0649
 1465BOLB   GL435152   5.834  19.949  26.314  0.0336 -0.2815  0.1152
 1465BOLB   C1C35153   6.273  19.603  26.392  0.4612  0.1783  0.1560
 1465BOLB   C2C35154   6.625  19.347  26.575  0.0861 -0.0640  0.1269
 1465BOLB   C3C35155   6.691  18.875  26.740  0.1864  0.0479 -0.1781
 1465BOLB   C4C35156   6.970  18.429  26.987  0.0436  0.0374 -0.0938
 1465BOLB   C1D35157   5.908  19.628  26.741 -0.1247 -0.2185  0.1445
 1465BOLB   C2D35158   6.226  19.472  27.028 -0.1489  0.3177  0.1493
 1465BOLB   C3D35159   6.540  19.140  27.141  0.0673  0.3166  0.2194
 1465BOLB   C4D35160   6.817  18.879  27.249  0.0981  0.0341 -0.0578
 1466BOLB   NC135161  23.771  10.339  31.700  0.1891  0.0564 -0.2540
 1466BOLB   PO135162  23.559  10.002  31.425  0.6623 -0.0746  0.1905
 1466BOLB   GL135163  23.931   9.931  31.479  0.0881 -0.0766 -0.0800
 1466BOLB   GL235164  23.878   9.762  31.698 -0.1374  0.3051 -0.1654
 1466BOLB   C1A35165  24.324   9.745  31.364  0.1722  0.0437  0.2038
 1466BOLB   C2A35166  24.728   9.527  31.411 -0.1242  0.2740 -0.2950
 1466BOLB   C3A35167  25.095   9.400  31.699  0.1159 -0.3240  0.2519
 1466BOLB   C4A35168  25.415   9.344  31.928 -0.0467 -0.0337  0.2329
 1466BOLB   C1B35169  24.329   9.536  31.820  0.1649 -0.2594  0.2900
 1466BOLB   C2B35170  24.653   9.324  32.010 -0.0135  0.1225 -0.0990
 1466BOLB   C3B35171  24.972   9.247  32.184 -0.2540  0.1001  0.1297
 1466BOLB   C4B35172  25.288   9.480  32.383 -0.4252  0.2042  0.3133
 1466BOLB   NC235173   0.602   9.059  32.630 -0.0210 -0.0666  0.1435
 1466BOLB   PO235174   0.532   8.665  32.676  0.3751  0.0867  0.0158
 1466BOLB   GL335175   0.019   8.680  32.524  0.0179  0.1900 -0.0483
 1466BOLB   GL435176   0.079   8.960  32.576 -0.1490 -0.1266 -0.2230
 1466BOLB   C1C35177  26.692   8.615  32.352 -0.2494  0.1134 -0.1606
 1466BOLB   C2C35178  26.509   8.893  32.198 -0.3797 -0.0775 -0.1541
 1466BOLB   C3C35179  26.175   9.144  32.026 -0.4444 -0.0295  0.4051
 1466BOLB   C4C35180  25.842   9.223  31.866 -0.2131  0.4926  0.1251
 1466BOLB   C1D35181  26.668   8.858  32.774 -0.2401  0.1069  0.1864
 1466BOLB   C2D35182  26.247   8.795  32.879 -0.0638 -0.2657 -0.1557
 1466BOLB   C3D35183  25.819   8.961  32.865  0.1008 -0.1428  0.0493
 1466BOLB   C4D35184  25.467   9.116  33.197 -0.2592  0.3766 -0.0021
 1467BOLB   NC135185  23.867  10.530  32.634 -0.3556 -0.0317  0.1251
 1467BOLB   PO135186  23.795  10.088  32.916 -0.0330 -0.0856  0.1489
 1467BOLB   GL135187  24.247  10.105  32.824 -0.4592  0.1162 -0.1825
 1467BOLB   GL235188  24.306  10.250  32.608  0.1529 -0.0276  0.2002
 1467BOLB   C1A35189  24.530   9.764  32.895 -0.0938 -0.2749 -0.2916
 1467BOLB   C2A35190  24.783   9.675  33.249  0.0695  0.2846  0.4192
 1467BOLB   C3A35191  24.721   9.353  33.541 -0.0115 -0.0901 -0.0704
 1467BOLB   C4A35192  24.827   8.928  33.772  0.1216 -0.0788 -0.0502
 1467BOLB   C1B35193  24.757  10.253  32.817  0.4253 -0.3804  0.0772
 1467BOLB   C2B35194  25.118  10.473  32.777 -0.1145  0.2547 -0.0913
 1467BOLB   C3B35195  25.573  10.371  32.875 -0.2589 -0.1933  0.1646
 1467BOLB   C4B35196  25.841  10.555  32.519  0.3775  0.0223  0.0752
 1467BOLB   NC235197  27.045   8.525  34.261  0.1505  0.0280 -0.1602
 1467BOLB   PO235198  26.937   8.820  34.626  0.0897  0.3155 -0.2418
 1467BOLB   GL335199  26.621   8.955  34.387 -0.0203  0.1316 -0.0975
 1467BOLB   GL435200  26.592   9.311  34.301  0.1858  0.0497 -0.2631
 1467BOLB   C1C35201  26.130   9.073  34.451  0.0845  0.2107 -0.3879
 1467BOLB   C2C35202  25.813   9.002  34.146  0.3550  0.0366 -0.0735
 1467BOLB   C3C35203  25.661   8.667  33.868 -0.0156  0.1616  0.2501
 1467BOLB   C4C35204  25.229   8.749  33.810  0.1243  0.0150 -0.1487
 1467BOLB   C1D35205  26.260   9.314  34.060 -0.1721 -0.0957  0.0770
 1467BOLB   C2D35206  26.045   9.398  33.632 -0.0638  0.1095  0.0957
 1467BOLB   C3D35207  25.739   9.557  33.353  0.2558 -0.0051 -0.0429
 1467BOLB   C4D35208  25.266   9.623  33.348 -0.1759 -0.4409 -0.1133
 1468BOLB   NC135209  14.787   4.224  27.756 -0.1839 -0.1000 -0.3891
 1468BOLB   PO135210  15.071   4.123  28.066  0.3721  0.1069  0.0954
 1468BOLB   GL135211  14.929   3.733  28.105 -0.1138 -0.3917 -0.0036
 1468BOLB   GL235212  14.698   3.700  27.873 -0.3169  0.0435 -0.1209
 1468BOLB   C1A35213  14.969   3.244  27.912 -0.0897  0.0877  0.0198
 1468BOLB   C2A35214  14.826   2.842  27.932 -0.2622  0.2128 -0.1514
 1468BOLB   C3A35215  14.656   2.410  28.078  0.0947 -0.0490 -0.0421
 1468BOLB   C4A35216  14.371   2.028  28.156 -0.1711 -0.1702  0.1274
 1468BOLB   C1B35217  14.450   3.379  27.547  0.1357  0.2074  0.0707
 1468BOLB   C2B35218  14.423   3.103  27.172  0.0881 -0.3552 -0.0801
 1468BOLB   C3B35219  14.367   2.809  27.025 -0.1362  0.2140 -0.3016
 1468BOLB   C4B35220  14.318   2.417  27.234 -0.0704 -0.2402  0.2728
 1468BOLB   NC235221  13.395   0.436  27.282 -0.0607 -0.2683 -0.1750
 1468BOLB   PO235222  13.135   0.455  26.847 -0.0831 -0.3847  0.0982
 1468BOLB   GL335223  13.293   0.859  26.965  0.0016  0.0427  0.2722
 1468BOLB   GL435224  13.212   0.960  26.586 -0.0308 -0.3180 -0.2594
 1468BOLB   C1C35225  13.244   1.189  27.277 -0.1486  0.2131 -0.0902
 1468BOLB   C2C35226  13.549   1.344  27.645  0.1609  0.1450  0.0400
 1468BOLB   C3C35227  13.882   1.405  27.769  0.0965 -0.2314 -0.0058
 1468BOLB   C4C35228  14.245   1.703  27.891  0.0595  0.1292  0.1385
 1468BOLB   C1D35229  13.379   1.264  26.673 -0.0165  0.3115 -0.0936
 1468BOLB   C2D35230  13.578   1.453  26.861  0.0548 -0.1222 -0.0433
 1468BOLB   C3D35231  13.813   1.712  26.931 -0.5542 -0.3931 -0.2404
 1468BOLB   C4D35232  13.955   2.150  27.103 -0.4470 -0.2275  0.1565
 1469BOLB   NC135233  12.866   5.126  32.214 -0.1232 -0.0470  0.1165
 1469BOLB   PO135234  12.861   5.183  32.610 -0.0643 -0.0433  0.2034
 1469BOLB   GL135235  12.881   4.766  32.776  0.3498  0.1225 -0.1089
 1469BOLB   GL235236  12.610   4.655  33.037  0.2645  0.0851 -0.0039
 1469BOLB   C1A35237  12.835   4.322  32.668 -0.0646 -0.3573 -0.2785
 1469BOLB   C2A35238  12.828   3.969  32.907  0.2303  0.1690 -0.1547
 1469BOLB   C3A35239  12.857   3.478  33.026  0.2159  0.1463  0.1823
 1469BOLB   C4A35240  13.143   3.123  33.062 -0.3868  0.1320 -0.0426
 1469BOLB   C1B35241  12.946   4.384  33.234  0.0296 -0.2773 -0.3970
 1469BOLB   C2B35242  13.058   3.939  33.321  0.2212  0.0278  0.0445
 1469BOLB   C3B35243  13.168   3.503  33.399 -0.5177  0.1777 -0.0135
 1469BOLB   C4B35244  13.335   3.112  33.522  0.0937 -0.1412 -0.0973
 1469BOLB   NC235245  12.784   0.406  33.415  0.1113  0.1529  0.0942
 1469BOLB   PO235246  12.747   0.674  33.704  0.0678 -0.4506  0.0899
 1469BOLB   GL335247  12.878   1.053  33.581 -0.1718  0.5213  0.0501
 1469BOLB   GL435248  12.797   1.381  33.729 -0.2901  0.1784  0.0733
 1469BOLB   C1C35249  12.956   1.527  33.304 -0.1826  0.0925 -0.0419
 1469BOLB   C2C35250  13.047   1.959  33.260 -0.2248 -0.0359 -0.2458
 1469BOLB   C3C35251  13.140   2.356  33.369  0.1074 -0.0044  0.0615
 1469BOLB   C4C35252  13.230   2.689  33.179 -0.0502  0.1291 -0.0632
 1469BOLB   C1D35253  12.969   1.667  33.833  0.1592 -0.1603 -0.2096
 1469BOLB   C2D35254  13.244   2.062  33.802 -0.1123  0.1618  0.3051
 1469BOLB   C3D35255  13.690   2.156  33.940 -0.1361  0.0149  0.3387
 1469BOLB   C4D35256  14.027   2.112  33.734 -0.0096  0.0302  0.1461
 1470BOLB   NC135257   8.659  12.527  28.046 -0.1392 -0.2420  0.1397
 1470BOLB   PO135258   8.170  12.487  28.074 -0.0547  0.0532  0.0443
 1470BOLB   GL135259   7.740  12.519  28.079 -0.1069 -0.1479  0.2372
 1470BOLB   GL235260   7.644  12.865  28.148 -0.3589  0.2437  0.1544
 1470BOLB   C1A35261   7.461  12.138  28.103 -0.0510  0.0312  0.1987
 1470BOLB   C2A35262   7.092  11.946  28.135 -0.1111  0.2253  0.0559
 1470BOLB   C3A35263   6.626  12.035  28.023  0.0732  0.2626  0.1070
 1470BOLB   C4A35264   6.173  11.990  27.886 -0.1956  0.0756  0.0773
 1470BOLB   C1B35265   7.238  12.561  28.212  0.1130 -0.0573 -0.0727
 1470BOLB   C2B35266   6.873  12.471  28.062 -0.1888 -0.1863 -0.0733
 1470BOLB   C3B35267   6.408  12.463  27.936  0.1928 -0.0086 -0.0063
 1470BOLB   C4B35268   5.998  12.520  28.073 -0.1891 -0.0468 -0.0512
 1470BOLB   NC235269   3.687  12.452  27.154 -0.1444 -0.3164  0.2080
 1470BOLB   PO235270   3.701  12.438  27.573  0.0375 -0.0982  0.2831
 1470BOLB   GL335271   4.171  12.342  27.585  0.3214 -0.1513  0.0728
 1470BOLB   GL435272   4.383  12.335  27.389  0.1231  0.0870  0.2248
 1470BOLB   C1C35273   4.555  11.937  27.671 -0.0237 -0.0688  0.1536
 1470BOLB   C2C35274   4.996  11.821  27.703  0.0478 -0.1607  0.2448
 1470BOLB   C3C35275   5.388  11.959  27.642  0.2078 -0.2330  0.0866
 1470BOLB   C4C35276   5.753  11.993  27.856  0.0449 -0.0926  0.1136
 1470BOLB   C1D35277   4.661  12.419  27.370  0.1615  0.1141  0.0995
 1470BOLB   C2D35278   5.021  12.395  27.554  0.0338 -0.2057  0.1539
 1470BOLB   C3D35279   5.418  12.564  27.583 -0.0562 -0.2038  0.1675
 1470BOLB   C4D35280   5.598  12.841  27.783  0.0442  0.3294  0.1144
 1471BOLB   NC135281  11.943   6.726  25.008  0.2938  0.0553 -0.2085
 1471BOLB   PO135282  12.226   6.305  25.197 -0.2833 -0.0610 -0.0339
 1471BOLB   GL135283  11.904   6.111  24.989  0.2566 -0.1679 -0.2732
 1471BOLB   GL235284  11.691   5.890  25.254  0.2035  0.0508  0.0576
 1471BOLB   C1A35285  11.448   5.911  24.832  0.2162  0.1281 -0.1573
 1471BOLB   C2A35286  11.210   5.654  24.553  0.1149  0.2020  0.4155
 1471BOLB   C3A35287  10.892   5.529  24.292 -0.0977 -0.1174 -0.0274
 1471BOLB   C4A35288  10.661   5.207  24.206 -0.1481  0.1629  0.0896
 1471BOLB   C1B35289  11.715   5.588  25.179  0.0238 -0.2687 -0.1270
 1471BOLB   C2B35290  11.507   5.165  25.167  0.0692 -0.0277 -0.1529
 1471BOLB   C3B35291  11.221   4.884  25.379 -0.1201  0.1485 -0.3292
 1471BOLB   C4B35292  10.797   4.734  25.451  0.0360  0.0822  0.2176
 1471BOLB   NC235293   9.988   3.521  22.441 -0.0588 -0.1167  0.1204
 1471BOLB   PO235294  10.152   3.707  22.805  0.0496  0.2673  0.0965
 1471BOLB   GL335295  10.117   3.975  23.131  0.0648 -0.0051 -0.0972
 1471BOLB   GL435296  10.191   4.320  23.040 -0.0921 -0.1009 -0.1102
 1471BOLB   C1C35297  10.446   4.030  23.410  0.1917 -0.2255 -0.0134
 1471BOLB   C2C35298  10.576   4.411  23.516  0.2061  0.0794  0.1459
 1471BOLB   C3C35299  10.432   4.864  23.650  0.0807 -0.3468  0.0979
 1471BOLB   C4C35300  10.400   5.171  23.944 -0.0659 -0.1333  0.5484
 1471BOLB   C1D35301  10.304   4.718  22.853  0.0261  0.2329  0.1717
 1471BOLB   C2D35302  10.557   4.949  22.588  0.2104 -0.0866 -0.0879
 1471BOLB   C3D35303  10.976   5.080  22.330  0.0096  0.0322  0.2073
 1471BOLB   C4D35304  11.379   5.123  22.321 -0.1799  0.0569 -0.2128
 1472BOLB   NC135305  12.707  19.345  17.725  0.4770  0.0589  0.0042
 1472BOLB   PO135306  13.172  19.510  17.689 -0.0147  0.0400  0.1475
 1472BOLB   GL135307  13.364  19.425  18.126 -0.1638  0.3729 -0.2256
 1472BOLB   GL235308  13.673  19.509  17.984 -0.2386  0.2597 -0.0615
 1472BOLB   C1A35309  13.393  18.971  18.331 -0.3923 -0.0401  0.1086
 1472BOLB   C2A35310  13.464  18.733  18.706  0.1193  0.0041 -0.2099
 1472BOLB   C3A35311  13.591  18.489  18.926  0.1137 -0.2913  0.2084
 1472BOLB   C4A35312  13.888  18.617  19.251 -0.3498 -0.0765  0.4859
 1472BOLB   C1B35313  13.823  19.267  18.328 -0.2364 -0.2250  0.3292
 1472BOLB   C2B35314  14.088  19.334  18.646 -0.0193 -0.0844 -0.2369
 1472BOLB   C3B35315  14.332  19.084  18.992  0.1080  0.3000  0.0019
 1472BOLB   C4B35316  14.427  18.794  19.322 -0.3798 -0.0314  0.2467
 1472BOLB   NC235317  14.140  19.622  17.725  0.2210 -0.0080 -0.0459
 1472BOLB   PO235318  13.873  19.996  17.811 -0.1009  0.0402 -0.0625
 1472BOLB   GL335319  13.675  20.043  18.217 -0.0317  0.2087  0.1275
 1472BOLB   GL435320  13.527  20.399  18.241 -0.0437 -0.0231 -0.0374
 1472BOLB   C1C35321  13.702  19.796  18.524  0.1313 -0.0216 -0.1135
 1472BOLB   C2C35322  13.713  19.635  18.919  0.2437  0.0850  0.0906
 1472BOLB   C3C35323  13.924  19.455  19.206 -0.2023 -0.0533  0.1487
 1472BOLB   C4C35324  13.994  19.065  19.359  0.0941  0.2873 -0.1861
 1472BOLB   C1D35325  13.620  20.269  18.666  0.0101  0.2061  0.3176
 1472BOLB   C2D35326  13.618  20.073  19.088 -0.1582  0.1535 -0.0074
 1472BOLB   C3D35327  13.685  19.905  19.408 -0.1149  0.5455 -0.0585
 1472BOLB   C4D35328  13.732  19.523  19.669  0.0400 -0.0518  0.3520
 1473BOLB   NC135329  14.927  20.922  27.400  0.1847 -0.2005  0.3962
 1473BOLB   PO135330  14.804  21.367  27.568 -0.0159  0.3381  0.1186
 1473BOLB   GL135331  14.736  21.676  27.352 -0.2039 -0.4636 -0.0023
 1473BOLB   GL235332  14.486  21.737  27.402 -0.0816  0.3837 -0.1090
 1473BOLB   C1A35333  14.873  21.949  27.060 -0.0133  0.2334 -0.0819
 1473BOLB   C2A35334  14.750  22.342  26.773 -0.1062  0.0313 -0.0450
 1473BOLB   C3A35335  14.745  22.760  26.733 -0.0235 -0.1510  0.1292
 1473BOLB   C4A35336  14.481  23.019  26.627 -0.5226 -0.0199  0.0491
 1473BOLB   C1B35337  14.375  21.962  27.051  0.2326 -0.1366 -0.1507
 1473BOLB   C2B35338  14.421  22.410  27.162 -0.2473  0.1494  0.3952
 1473BOLB   C3B35339  14.249  22.664  26.902  0.4803  0.0896 -0.0201
 1473BOLB   C4B35340  13.802  22.850  26.952  0.1845 -0.1474 -0.1154
 1473BOLB   NC235341  14.372  25.289  26.519  0.0584  0.1944 -0.2359
 1473BOLB   PO235342  14.708  25.225  26.800 -0.2270 -0.1721 -0.0301
 1473BOLB   GL335343  14.295  24.878  26.827 -0.1946 -0.2058  0.0602
 1473BOLB   GL435344  13.943  24.954  26.813  0.0973  0.0516 -0.0288
 1473BOLB   C1C35345  14.175  24.449  27.062 -0.3201  0.0035  0.0077
 1473BOLB   C2C35346  14.288  24.039  27.131  0.0543 -0.0987 -0.0261
 1473BOLB   C3C35347  14.251  23.656  27.055  0.0403  0.0775  0.0877
 1473BOLB   C4C35348  14.273  23.332  26.878  0.2964 -0.1989 -0.1241
 1473BOLB   C1D35349  13.883  24.557  26.679 -0.3973  0.1866  0.1140
 1473BOLB   C2D35350  13.864  24.111  26.658  0.2071  0.0026 -0.2012
 1473BOLB   C3D35351  13.949  23.721  26.571  0.0474 -0.0262  0.0457
 1473BOLB   C4D35352  14.227  23.413  26.392  0.1735  0.3850  0.4039
 1474BOLB   NC135353   7.445  13.223  30.441  0.1408 -0.1579 -0.3572
 1474BOLB   PO135354   7.683  13.333  29.988 -0.2266  0.0020 -0.1814
 1474BOLB   GL135355   7.282  13.501  30.062 -0.1245  0.0619 -0.2776
 1474BOLB   GL235356   7.216  13.781  30.075 -0.3245 -0.0167  0.0495
 1474BOLB   C1A35357   6.887  13.356  29.873 -0.0029  0.1731  0.2043
 1474BOLB   C2A35358   6.564  13.435  29.619  0.2218  0.0763 -0.2461
 1474BOLB   C3A35359   6.178  13.533  29.408 -0.3235 -0.1867 -0.0209
 1474BOLB   C4A35360   5.822  13.670  29.018 -0.0059  0.0148  0.0489
 1474BOLB   C1B35361   6.864  13.766  30.196  0.1620 -0.2067 -0.5032
 1474BOLB   C2B35362   6.505  13.715  30.067 -0.3282  0.0053 -0.0198
 1474BOLB   C3B35363   6.170  13.834  29.873 -0.2376  0.0906 -0.3306
 1474BOLB   C4B35364   5.744  13.826  29.577 -0.0666 -0.0922 -0.0100
 1474BOLB   NC235365   3.290  13.601  29.755 -0.4377  0.2101  0.2216
 1474BOLB   PO235366   3.499  13.276  29.708 -0.2566 -0.0429  0.0911
 1474BOLB   GL335367   3.947  13.306  29.716 -0.2349 -0.1266 -0.1286
 1474BOLB   GL435368   4.225  13.098  29.894  0.0915 -0.2050 -0.0012
 1474BOLB   C1C35369   4.397  13.499  29.508  0.0891  0.4622  0.1663
 1474BOLB   C2C35370   4.597  13.740  29.139 -0.0755 -0.1116 -0.0850
 1474BOLB   C3C35371   4.935  13.758  28.771  0.0116 -0.0767  0.0932
 1474BOLB   C4C35372   5.429  13.766  28.728 -0.2687 -0.1014  0.1441
 1474BOLB   C1D35373   4.499  13.069  30.152 -0.0213 -0.1227  0.0913
 1474BOLB   C2D35374   4.903  13.112  30.316 -0.1371  0.1032  0.2299
 1474BOLB   C3D35375   5.273  13.204  30.186  0.0275 -0.1517  0.1856
 1474BOLB   C4D35376   5.575  12.990  29.853 -0.0357  0.1753  0.0327
 1475BOLB   NC135377  18.715   6.806  16.165 -0.0483 -0.1800 -0.1291
 1475BOLB   PO135378  18.480   7.143  16.048 -0.0228  0.1859 -0.2373
 1475BOLB   GL135379  18.425   7.248  16.468 -0.0901 -0.1634  0.0582
 1475BOLB   GL235380  18.590   7.551  16.446  0.0004 -0.3828  0.0717
 1475BOLB   C1A35381  18.272   7.514  16.874  0.0130  0.0369  0.1323
 1475BOLB   C2A35382  18.212   7.857  17.140 -0.0324  0.0952 -0.1436
 1475BOLB   C3A35383  18.275   8.235  17.368  0.1537 -0.2940  0.0592
 1475BOLB   C4A35384  18.708   8.511  17.346 -0.2966  0.0776 -0.1608
 1475BOLB   C1B35385  18.667   7.938  16.715 -0.0783  0.1575  0.2930
 1475BOLB   C2B35386  18.692   8.025  17.136  0.1298  0.0225 -0.2768
 1475BOLB   C3B35387  19.065   8.039  17.404  0.3057  0.1134 -0.1900
 1475BOLB   C4B35388  18.950   8.114  17.816  0.0881  0.2917 -0.1155
 1475BOLB   NC235389  19.734   8.753  15.596  0.0341  0.2235  0.0662
 1475BOLB   PO235390  20.082   8.701  15.865  0.0980 -0.1094 -0.0646
 1475BOLB   GL335391  19.915   8.861  16.209 -0.0116  0.0830  0.1433
 1475BOLB   GL435392  20.219   8.844  16.465 -0.1940 -0.1802  0.0101
 1475BOLB   C1C35393  19.713   9.060  16.557  0.1108 -0.1901 -0.1485
 1475BOLB   C2C35394  19.461   9.135  16.853  0.0177 -0.0430  0.0894
 1475BOLB   C3C35395  19.242   9.011  17.298 -0.0855 -0.0516  0.2031
 1475BOLB   C4C35396  18.903   8.819  17.237  0.2244  0.2900 -0.2495
 1475BOLB   C1D35397  20.101   9.241  16.776  0.0567  0.0792  0.4294
 1475BOLB   C2D35398  19.930   9.505  16.977 -0.0684 -0.2165 -0.4814
 1475BOLB   C3D35399  19.552   9.634  16.931 -0.1338 -0.1986  0.1501
 1475BOLB   C4D35400  19.156   9.757  17.128  0.1472  0.2301 -0.1543
 1476BOLB   NC135401  16.218  16.460  38.068 -0.0997 -0.1514  0.0712
 1476BOLB   PO135402  16.315  16.494  38.541  0.1226 -0.1713  0.3248
 1476BOLB   GL135403  16.431  16.745  38.920 -0.0586 -0.2031 -0.0705
 1476BOLB   GL235404  16.719  16.752  38.816  0.0547 -0.1527 -0.0969
 1476BOLB   C1A35405  16.330  16.812  39.432  0.4924  0.1459  0.1146
 1476BOLB   C2A35406  16.444  16.842  39.839  0.1540 -0.1306 -0.0957
 1476BOLB   C3A35407  16.559  16.943  40.166  0.2115 -0.0127 -0.0713
 1476BOLB   C4A35408  16.705  17.173  40.497 -0.0307  0.0359  0.3107
 1476BOLB   C1B35409  16.790  16.826  39.292  0.0794  0.0748 -0.1182
 1476BOLB   C2B35410  16.819  17.095  39.628  0.2011 -0.1468  0.0256
 1476BOLB   C3B35411  16.755  17.422  40.060  0.0181  0.2994  0.0917
 1476BOLB   C4B35412  16.911  17.808  40.291  0.1684 -0.1539  0.4117
 1476BOLB   NC235413  16.900  18.025  42.659 -0.2395 -0.0906 -0.1966
 1476BOLB   PO235414  16.681  18.234  42.422  0.0347 -0.0564  0.0682
 1476BOLB   GL335415  16.765  18.149  42.106 -0.1926 -0.1443 -0.4329
 1476BOLB   GL435416  17.017  17.812  42.131 -0.0030 -0.2018 -0.1415
 1476BOLB   C1C35417  16.837  18.123  41.720  0.0290 -0.2002  0.0769
 1476BOLB   C2C35418  16.816  17.858  41.424 -0.0243 -0.1365  0.3092
 1476BOLB   C3C35419  16.755  17.647  41.090 -0.2542  0.2019 -0.0824
 1476BOLB   C4C35420  16.684  17.531  40.647  0.0559 -0.1381  0.0016
 1476BOLB   C1D35421  17.037  17.406  42.235 -0.1750  0.5257  0.0305
 1476BOLB   C2D35422  16.824  17.041  42.309 -0.0977  0.1700 -0.0630
 1476BOLB   C3D35423  16.799  16.756  42.148 -0.0602  0.1902 -0.1767
 1476BOLB   C4D35424  16.688  16.550  41.870 -0.1273  0.0214  0.5874
 1477BOLB   NC135425  10.826   6.923  32.687  0.3573 -0.2041  0.0303
 1477BOLB   PO135426  10.378   6.914  32.608  0.1718  0.1681  0.4172
 1477BOLB   GL135427  10.010   6.728  32.755 -0.1047 -0.2345  0.0251
 1477BOLB   GL235428  10.020   6.901  33.064  0.1867 -0.2969  0.1561
 1477BOLB   C1A35429   9.667   6.392  32.835  0.0861  0.1578  0.0262
 1477BOLB   C2A35430   9.408   6.037  32.792 -0.2002 -0.0924 -0.2061
 1477BOLB   C3A35431   9.010   5.734  32.739 -0.2757  0.2359 -0.3154
 1477BOLB   C4A35432   8.729   5.643  32.510  0.0089  0.3762  0.0382
 1477BOLB   C1B35433   9.797   6.642  33.358  0.2367 -0.0832 -0.0881
 1477BOLB   C2B35434   9.690   6.196  33.341  0.1085 -0.0324 -0.5427
 1477BOLB   C3B35435   9.650   5.794  33.301 -0.0228 -0.0684  0.0600
 1477BOLB   C4B35436   9.580   5.348  33.167 -0.2320 -0.2719 -0.0426
 1477BOLB   NC235437   6.815   4.474  32.817 -0.0301  0.0593 -0.3046
 1477BOLB   PO235438   6.867   4.789  32.604 -0.1784  0.1253 -0.1725
 1477BOLB   GL335439   7.074   5.233  32.693  0.1483 -0.0362  0.2108
 1477BOLB   GL435440   7.002   5.171  33.047  0.0866  0.0320  0.0703
 1477BOLB   C1C35441   7.144   5.565  32.774  0.0571 -0.1738  0.1903
 1477BOLB   C2C35442   7.463   5.661  32.529 -0.1550 -0.1273  0.0060
 1477BOLB   C3C35443   7.898   5.669  32.482 -0.0708 -0.0129 -0.0217
 1477BOLB   C4C35444   8.287   5.692  32.591  0.0138  0.1316  0.0606
 1477BOLB   C1D35445   7.448   5.297  33.112  0.1735 -0.0841  0.2455
 1477BOLB   C2D35446   7.738   5.570  33.090 -0.0609  0.2355 -0.0026
 1477BOLB   C3D35447   8.175   5.464  33.017  0.1281 -0.2953  0.0993
 1477BOLB   C4D35448   8.582   5.459  33.038 -0.2970  0.3141  0.0473
 1478BOLB   NC135449   8.375   8.893  29.212 -0.1907  0.2010 -0.0620
 1478BOLB   PO135450   8.282   9.331  29.528  0.1199  0.0188 -0.1414
 1478BOLB   GL135451   8.180   8.949  29.703 -0.0438 -0.0472  0.0566
 1478BOLB   GL235452   7.977   9.035  29.914 -0.1507  0.1398  0.0365
 1478BOLB   C1A35453   7.957   8.624  29.628  0.0541  0.0954 -0.0018
 1478BOLB   C2A35454   7.574   8.517  29.639 -0.1270 -0.0744 -0.0099
 1478BOLB   C3A35455   7.255   8.232  29.785 -0.1680 -0.3616  0.1162
 1478BOLB   C4A35456   7.105   7.797  29.923 -0.0990 -0.0747 -0.3167
 1478BOLB   C1B35457   7.505   8.986  29.896 -0.1402 -0.0092 -0.2618
 1478BOLB   C2B35458   7.045   8.989  29.965  0.1113  0.0905  0.2941
 1478BOLB   C3B35459   6.603   9.044  29.770  0.2331  0.0763  0.1529
 1478BOLB   C4B35460   6.377   8.946  29.334 -0.1531 -0.1085  0.0435
 1478BOLB   NC235461   4.192   7.514  29.460 -0.2408  0.1454 -0.0855
 1478BOLB   PO235462   4.575   7.439  29.168  0.2814  0.0600  0.1412
 1478BOLB   GL335463   4.996   7.397  29.444 -0.2308  0.2575  0.1039
 1478BOLB   GL435464   5.180   7.595  29.249  0.1491  0.3049 -0.1910
 1478BOLB   C1C35465   5.515   7.288  29.425 -0.1845  0.0888 -0.0115
 1478BOLB   C2C35466   5.875   7.396  29.660 -0.1019 -0.0255  0.0880
 1478BOLB   C3C35467   6.417   7.374  29.791  0.0825 -0.0040 -0.0704
 1478BOLB   C4C35468   6.701   7.671  29.848  0.1162 -0.0923 -0.1498
 1478BOLB   C1D35469   5.576   7.749  29.201 -0.1701  0.1788 -0.1297
 1478BOLB   C2D35470   6.051   7.845  29.455 -0.1072 -0.1020 -0.0137
 1478BOLB   C3D35471   6.529   8.043  29.491  0.1922  0.0935  0.2119
 1478BOLB   C4D35472   6.683   8.213  29.914 -0.1320 -0.1103  0.1332
 1479BOLB   NC135473  13.087  19.574  34.569  0.3561 -0.0095  0.0128
 1479BOLB   PO135474  12.948  19.928  34.786 -0.1205 -0.1224  0.1235
 1479BOLB   GL135475  12.806  20.310  35.120  0.0254 -0.1914  0.1105
 1479BOLB   GL235476  12.547  20.310  35.216  0.1620 -0.2816  0.4253
 1479BOLB   C1A35477  12.764  20.641  35.441 -0.0781 -0.3663 -0.0411
 1479BOLB   C2A35478  12.712  20.971  35.558  0.1473  0.1105  0.1345
 1479BOLB   C3A35479  12.715  21.272  35.753  0.1995  0.0376 -0.1938
 1479BOLB   C4A35480  12.780  21.668  35.985 -0.2601 -0.0028  0.0536
 1479BOLB   C1B35481  12.315  20.429  35.470 -0.0341  0.4742 -0.2015
 1479BOLB   C2B35482  12.312  20.736  35.750  0.1520  0.0769  0.0780
 1479BOLB   C3B35483  12.264  21.187  35.892  0.0726  0.0971 -0.1897
 1479BOLB   C4B35484  12.047  21.494  35.959 -0.1170 -0.1326 -0.0319
 1479BOLB   NC235485  12.712  23.280  37.195 -0.2004 -0.1001  0.1647
 1479BOLB   PO235486  13.080  23.571  37.236  0.0291  0.0605 -0.1703
 1479BOLB   GL335487  13.029  23.360  36.821 -0.3134 -0.1612 -0.1244
 1479BOLB   GL435488  12.803  23.188  36.704  0.1160  0.0983  0.3594
 1479BOLB   C1C35489  13.219  22.989  36.591  0.0341 -0.1220  0.3856
 1479BOLB   C2C35490  13.062  22.609  36.531 -0.0348 -0.0652  0.0297
 1479BOLB   C3C35491  12.921  22.363  36.213 -0.1253  0.1737  0.1419
 1479BOLB   C4C35492  13.029  21.967  35.968  0.0624 -0.3279 -0.0331
 1479BOLB   C1D35493  12.771  23.056  36.329  0.2776 -0.1494 -0.0318
 1479BOLB   C2D35494  13.045  22.816  35.998  0.1614  0.0981 -0.2358
 1479BOLB   C3D35495  13.114  22.490  35.740 -0.1037  0.2589  0.0934
 1479BOLB   C4D35496  13.350  22.099  35.583  0.2575 -0.2127 -0.0722
 1480BOLB   NC135497  21.801  14.526  28.101 -0.2794 -0.0269 -0.0191
 1480BOLB   PO135498  21.962  14.895  28.429  0.4609 -0.1858  0.0600
 1480BOLB   GL135499  22.109  15.025  27.983  0.0930 -0.0286 -0.0297
 1480BOLB   GL235500  22.064  15.072  27.669  0.0570  0.1502  0.1978
 1480BOLB   C1A35501  22.518  15.213  28.066  0.2748 -0.1476 -0.0880
 1480BOLB   C2A35502  22.827  15.521  27.930 -0.0049 -0.1512  0.0656
 1480BOLB   C3A35503  22.993  15.889  28.142 -0.0036 -0.2242  0.1902
 1480BOLB   C4A35504  23.237  16.188  28.410 -0.1233 -0.0746  0.3967
 1480BOLB   C1B35505  22.409  15.222  27.558  0.0501  0.1596 -0.1342
 1480BOLB   C2B35506  22.800  15.490  27.424 -0.0364  0.1887 -0.4498
 1480BOLB   C3B35507  22.961  15.992  27.513  0.2942 -0.0858 -0.0673
 1480BOLB   C4B35508  23.218  16.323  27.278  0.0448  0.2944  0.1259
 1480BOLB   NC235509  24.866  18.372  28.129  0.1097  0.1646  0.3759
 1480BOLB   PO235510  24.784  18.097  27.838  0.0857 -0.1035 -0.1073
 1480BOLB   GL335511  24.476  17.802  27.920  0.1033 -0.0572 -0.3481
 1480BOLB   GL435512  24.541  17.524  27.793 -0.0104  0.1251 -0.0908
 1480BOLB   C1C35513  24.167  17.497  28.019 -0.0886 -0.0729  0.1322
 1480BOLB   C2C35514  23.788  17.296  28.240 -0.2304  0.0905 -0.0946
 1480BOLB   C3C35515  23.608  16.942  28.331  0.0908  0.1019  0.0953
 1480BOLB   C4C35516  23.517  16.501  28.287 -0.2972  0.0066  0.1652
 1480BOLB   C1D35517  24.462  17.109  27.958  0.2863  0.1909 -0.0312
 1480BOLB   C2D35518  24.107  16.863  28.174  0.3106 -0.0344  0.0909
 1480BOLB   C3D35519  23.905  16.594  27.952 -0.0771 -0.1427 -0.1073
 1480BOLB   C4D35520  23.895  16.300  27.758  0.0149  0.3199 -0.0977
 1481BOLB   NC135521  16.090   8.213  39.006  0.3835 -0.0151  0.3509
 1481BOLB   PO135522  16.091   8.616  38.821 -0.0611  0.2737 -0.1066
 1481BOLB   GL135523  16.096   8.595  39.297 -0.0366  0.1075 -0.0774
 1481BOLB   GL235524  15.838   8.455  39.457  0.2508  0.3575 -0.1694
 1481BOLB   C1A35525  16.510   8.423  39.496  0.1777 -0.0555 -0.2913
 1481BOLB   C2A35526  16.524   8.217  39.847  0.2912 -0.0799  0.1260
 1481BOLB   C3A35527  16.179   7.845  40.112 -0.3560  0.0094 -0.3578
 1481BOLB   C4A35528  16.100   7.479  40.246  0.1485 -0.1500  0.5219
 1481BOLB   C1B35529  16.050   8.297  39.861  0.0511 -0.0292 -0.0172
 1481BOLB   C2B35530  16.050   8.261  40.336 -0.1801 -0.0391 -0.0051
 1481BOLB   C3B35531  16.066   8.257  40.861  0.0469  0.3038  0.0259
 1481BOLB   C4B35532  16.331   7.902  41.204 -0.0857  0.0541 -0.0849
 1481BOLB   NC235533  15.832   5.920  42.462  0.3400  0.1651  0.1457
 1481BOLB   PO235534  15.428   5.981  42.186 -0.1033  0.0756  0.3459
 1481BOLB   GL335535  15.442   6.471  42.036 -0.3698  0.0771  0.2409
 1481BOLB   GL435536  15.762   6.594  42.171 -0.1027  0.0347 -0.1333
 1481BOLB   C1C35537  15.456   6.663  41.579  0.0950 -0.3055 -0.2582
 1481BOLB   C2C35538  15.740   7.014  41.488  0.1364  0.0432  0.0522
 1481BOLB   C3C35539  15.769   7.216  40.992  0.0044 -0.0285  0.0314
 1481BOLB   C4C35540  15.958   7.307  40.631 -0.1945  0.1124 -0.0112
 1481BOLB   C1D35541  15.916   6.286  41.860 -0.1332  0.1908  0.3695
 1481BOLB   C2D35542  15.796   6.243  41.449 -0.0143  0.2570  0.2134
 1481BOLB   C3D35543  15.657   6.603  41.039 -0.1011 -0.0844  0.1910
 1481BOLB   C4D35544  15.458   6.725  40.802  0.0087  0.0298 -0.0029
 1482BOLB   NC135545  22.790  10.218  25.274  0.0164 -0.1741 -0.0587
 1482BOLB   PO135546  23.223  10.128  25.373  0.0985 -0.0472  0.0940
 1482BOLB   GL135547  23.602  10.310  25.434 -0.4450  0.1874 -0.2137
 1482BOLB   GL235548  23.467  10.625  25.616  0.3557  0.2251 -0.3442
 1482BOLB   C1A35549  23.962  10.164  25.424  0.0151 -0.1903 -0.0651
 1482BOLB   C2A35550  24.314  10.024  25.702 -0.0901 -0.2205 -0.1797
 1482BOLB   C3A35551  24.735   9.986  25.783 -0.0689  0.1344 -0.0934
 1482BOLB   C4A35552  25.115  10.033  25.844 -0.3353 -0.4173  0.1467
 1482BOLB   C1B35553  23.812  10.795  25.354 -0.0997  0.0767 -0.2486
 1482BOLB   C2B35554  24.271  10.791  25.307 -0.4289  0.1256 -0.1338
 1482BOLB   C3B35555  24.623  10.649  25.101  0.0473 -0.1153  0.1728
 1482BOLB   C4B35556  24.997  10.380  25.031 -0.1417  0.0889 -0.0899
 1482BOLB   NC235557   0.461  10.229  26.083 -0.0276  0.0873 -0.0472
 1482BOLB   PO235558   0.298  10.692  25.895  0.1404  0.1100 -0.0326
 1482BOLB   GL335559  27.015  10.486  26.046  0.1373  0.0024 -0.0176
 1482BOLB   GL435560  26.755  10.595  25.794  0.3132  0.1035 -0.0706
 1482BOLB   C1C35561  26.768  10.116  25.921 -0.0807 -0.2970 -0.2709
 1482BOLB   C2C35562  26.329   9.945  25.970 -0.0733  0.0326 -0.1924
 1482BOLB   C3C35563  25.900   9.911  25.986 -0.3030 -0.2774 -0.0174
 1482BOLB   C4C35564  25.444  10.066  25.990 -0.0745  0.0883  0.0456
 1482BOLB   C1D35565  26.371  10.415  25.925  0.1749  0.4177 -0.4235
 1482BOLB   C2D35566  26.084  10.407  25.831 -0.3743 -0.2640  0.0389
 1482BOLB   C3D35567  25.748  10.167  25.621 -0.3215 -0.2008 -0.0751
 1482BOLB   C4D35568  25.413  10.150  25.303 -0.0574  0.2834  0.0818
 1483BOLB   NC135569  11.468  12.345  38.625 -0.2676 -0.0698  0.1479
 1483BOLB   PO135570  11.212  12.770  38.661  0.0860  0.1993  0.2200
 1483BOLB   GL135571  10.896  12.675  39.024  0.1365  0.1335 -0.1288
 1483BOLB   GL235572  10.691  12.560  38.897 -0.3364  0.3382  0.1359
 1483BOLB   C1A35573  10.684  12.726  39.437 -0.0209 -0.3873 -0.3767
 1483BOLB   C2A35574  10.460  13.002  39.690 -0.0508 -0.0269 -0.0260
 1483BOLB   C3A35575  10.562  13.111  40.135  0.0929 -0.2118  0.1724
 1483BOLB   C4A35576  10.868  13.245  40.363 -0.3693  0.3536  0.1318
 1483BOLB   C1B35577  10.349  12.817  39.113 -0.0923 -0.1054 -0.5309
 1483BOLB   C2B35578   9.873  12.969  39.206  0.1587  0.1168 -0.3838
 1483BOLB   C3B35579   9.706  13.285  39.544 -0.0414 -0.0837 -0.1451
 1483BOLB   C4B35580   9.236  13.376  39.575  0.0195 -0.3569 -0.0288
 1483BOLB   NC235581  10.052  14.410  42.321  0.1911 -0.2617  0.0110
 1483BOLB   PO235582   9.833  13.970  42.394  0.2900  0.0825  0.2133
 1483BOLB   GL335583   9.921  13.913  41.957  0.0198  0.0140  0.3028
 1483BOLB   GL435584   9.886  14.237  41.788  0.1534  0.0401 -0.0270
 1483BOLB   C1C35585  10.075  13.762  41.588  0.0805  0.3223  0.1903
 1483BOLB   C2C35586  10.441  13.613  41.307 -0.1082 -0.0488 -0.0996
 1483BOLB   C3C35587  10.740  13.544  40.900 -0.0585  0.1151  0.1369
 1483BOLB   C4C35588  10.671  13.304  40.594 -0.1096 -0.1511 -0.2817
 1483BOLB   C1D35589   9.939  14.388  41.380 -0.2991 -0.0440  0.1204
 1483BOLB   C2D35590  10.033  14.383  40.945  0.1825  0.2659 -0.1022
 1483BOLB   C3D35591  10.414  14.441  40.759 -0.2663  0.0665 -0.0455
 1483BOLB   C4D35592  10.575  14.734  40.615 -0.0545 -0.0252 -0.2313
 1484BOLB   NC135593  10.408   6.621  27.233  0.0953 -0.1348  0.2942
 1484BOLB   PO135594   9.948   6.817  27.341 -0.1473 -0.0647  0.1506
 1484BOLB   GL135595   9.573   6.683  27.494  0.0985 -0.3330  0.0334
 1484BOLB   GL235596   9.543   6.836  27.760 -0.0479  0.0617 -0.0846
 1484BOLB   C1A35597   9.218   6.504  27.625  0.1307  0.0883 -0.1699
 1484BOLB   C2A35598   8.821   6.584  27.615 -0.1963  0.2415 -0.2120
 1484BOLB   C3A35599   8.495   6.362  27.613 -0.2108  0.1541 -0.2923
 1484BOLB   C4A35600   8.189   6.052  27.565 -0.0335 -0.2959 -0.3858
 1484BOLB   C1B35601   9.609   6.605  28.059 -0.1208 -0.0575  0.1764
 1484BOLB   C2B35602   9.462   6.296  28.243 -0.2163 -0.2762  0.2363
 1484BOLB   C3B35603   9.491   5.937  28.170  0.2536  0.2401 -0.0139
 1484BOLB   C4B35604   9.392   5.574  27.916 -0.0077 -0.2238 -0.1146
 1484BOLB   NC235605   6.262   5.179  27.748  0.2357  0.2999 -0.0528
 1484BOLB   PO235606   6.103   5.117  28.168  0.5373 -0.0175 -0.0408
 1484BOLB   GL335607   6.449   5.382  28.207 -0.1163  0.1372  0.0876
 1484BOLB   GL435608   6.425   5.604  28.405  0.1043 -0.0898 -0.3443
 1484BOLB   C1C35609   6.602   5.741  28.020 -0.1319  0.2165  0.0332
 1484BOLB   C2C35610   6.964   5.935  27.875 -0.1025 -0.1201  0.1621
 1484BOLB   C3C35611   7.284   6.227  27.898  0.2832  0.1217  0.2958
 1484BOLB   C4C35612   7.731   6.201  27.833 -0.0036  0.1203  0.1929
 1484BOLB   C1D35613   6.770   5.940  28.548  0.1511 -0.1702  0.0743
 1484BOLB   C2D35614   7.052   5.849  28.859  0.2664  0.2849  0.1593
 1484BOLB   C3D35615   7.299   5.742  29.263 -0.0600 -0.3327  0.0405
 1484BOLB   C4D35616   7.679   5.748  29.547  0.1368  0.0264  0.0058
 1485BOLB   NC135617  17.892  19.747  32.873  0.0746 -0.0574  0.3201
 1485BOLB   PO135618  17.820  19.977  32.459  0.0587 -0.3081  0.1228
 1485BOLB   GL135619  17.742  20.472  32.641  0.3358  0.0396  0.0589
 1485BOLB   GL235620  18.043  20.517  32.506 -0.2407 -0.0126  0.2091
 1485BOLB   C1A35621  17.815  20.771  32.874 -0.2291 -0.1790  0.0375
 1485BOLB   C2A35622  17.955  21.122  33.096  0.1337 -0.0233 -0.3235
 1485BOLB   C3A35623  18.124  21.477  33.110 -0.0829 -0.0438  0.0605
 1485BOLB   C4A35624  18.301  21.900  33.086 -0.1460 -0.0333 -0.0164
 1485BOLB   C1B35625  18.323  20.814  32.761 -0.1326 -0.1426  0.0464
 1485BOLB   C2B35626  18.314  21.213  32.704  0.0229  0.1694  0.1074
 1485BOLB   C3B35627  18.391  21.552  32.684 -0.3253 -0.2432 -0.0615
 1485BOLB   C4B35628  18.816  21.652  32.900  0.1595  0.1988 -0.4635
 1485BOLB   NC235629  19.297  23.547  33.994  0.1272 -0.1264 -0.0783
 1485BOLB   PO235630  18.862  23.670  34.051 -0.3674  0.0837 -0.0473
 1485BOLB   GL335631  18.766  23.352  33.868  0.0978  0.1127 -0.0552
 1485BOLB   GL435632  19.039  23.288  33.648 -0.0688 -0.1288  0.2893
 1485BOLB   C1C35633  18.529  23.348  33.375  0.0301  0.2653  0.0279
 1485BOLB   C2C35634  18.433  23.025  33.131 -0.1593 -0.1348 -0.0089
 1485BOLB   C3C35635  18.206  22.666  33.014  0.2434  0.2426 -0.1589
 1485BOLB   C4C35636  18.088  22.256  33.038 -0.2205  0.3663  0.0102
 1485BOLB   C1D35637  19.092  22.900  33.843  0.1584 -0.1958 -0.1829
 1485BOLB   C2D35638  19.017  22.584  33.871  0.2277  0.1176 -0.0709
 1485BOLB   C3D35639  18.681  22.437  33.833  0.1072 -0.3238 -0.0347
 1485BOLB   C4D35640  18.420  22.158  33.928  0.1203 -0.0447  0.1520
 1486BOLB   NC135641  20.231   9.988  37.919  0.1992  0.1100  0.0681
 1486BOLB   PO135642  20.617   9.763  37.928  0.4717 -0.0026  0.0362
 1486BOLB   GL135643  20.737   9.484  38.223  0.3665 -0.0082  0.2063
 1486BOLB   GL235644  20.872   9.232  38.078  0.2519 -0.1015 -0.1137
 1486BOLB   C1A35645  20.946   9.270  38.602 -0.1212 -0.1409 -0.0848
 1486BOLB   C2A35646  21.106   9.427  38.949 -0.2364 -0.2420  0.0444
 1486BOLB   C3A35647  21.229   9.519  39.340 -0.1928 -0.3343 -0.0108
 1486BOLB   C4A35648  21.410   9.684  39.721 -0.0154  0.1813 -0.1413
 1486BOLB   C1B35649  20.970   8.835  38.395 -0.1257 -0.0077 -0.0777
 1486BOLB   C2B35650  21.115   8.509  38.709  0.1065 -0.0462 -0.1573
 1486BOLB   C3B35651  21.100   8.278  39.093  0.1628 -0.1541  0.0530
 1486BOLB   C4B35652  21.108   8.374  39.518 -0.1270 -0.3831  0.0294
 1486BOLB   NC235653  23.315  10.273  41.103  0.4187  0.0222 -0.0874
 1486BOLB   PO235654  23.071   9.974  41.448  0.3836  0.3299 -0.1317
 1486BOLB   GL335655  22.642   9.996  41.258 -0.2888  0.0027  0.1985
 1486BOLB   GL435656  22.415   9.969  41.425  0.1499  0.0590 -0.0664
 1486BOLB   C1C35657  22.385  10.020  40.909 -0.0006  0.0717  0.2490
 1486BOLB   C2C35658  21.942   9.951  40.638  0.1304 -0.0015  0.0866
 1486BOLB   C3C35659  21.778   9.909  40.231  0.0933  0.1044 -0.1212
 1486BOLB   C4C35660  21.467   9.764  40.125  0.2163 -0.0379 -0.0544
 1486BOLB   C1D35661  21.973  10.079  41.478 -0.2684  0.2587 -0.3369
 1486BOLB   C2D35662  21.641   9.954  41.209 -0.0494 -0.2926 -0.1523
 1486BOLB   C3D35663  21.389   9.964  40.884  0.3727  0.1619  0.0426
 1486BOLB   C4D35664  21.217  10.047  40.488  0.2108 -0.0428  0.1835
 1487BOLB   NC135665  17.863   4.351  30.442 -0.1793  0.0395  0.1006
 1487BOLB   PO135666  17.756   4.057  30.778 -0.1561  0.0912  0.1335
 1487BOLB   GL135667  17.595   3.586  30.646 -0.0967  0.1015 -0.0332
 1487BOLB   GL235668  17.580   3.459  30.286  0.0823 -0.1475  0.2632
 1487BOLB   C1A35669  17.725   3.270  30.948  0.1152  0.6011  0.0494
 1487BOLB   C2A35670  17.624   2.862  31.104  0.0366  0.2042 -0.3264
 1487BOLB   C3A35671  17.634   2.477  31.361 -0.0842 -0.0782  0.0479
 1487BOLB   C4A35672  17.664   2.047  31.257  0.0496 -0.1403 -0.0394
 1487BOLB   C1B35673  17.865   3.124  30.538  0.1476  0.1130  0.1134
 1487BOLB   C2B35674  18.077   2.853  30.789  0.3220  0.2050 -0.0641
 1487BOLB   C3B35675  18.182   2.624  31.108  0.0176 -0.2339  0.0072
 1487BOLB   C4B35676  18.560   2.519  31.265  0.0257 -0.0768  0.1947
 1487BOLB   NC235677  17.071  26.817  31.927 -0.0739  0.1007  0.0154
 1487BOLB   PO235678  17.018  26.854  31.462 -0.1787 -0.0903  0.0369
 1487BOLB   GL335679  17.025   0.243  31.263  0.0361 -0.0428 -0.1454
 1487BOLB   GL435680  16.955   0.330  30.863  0.2038  0.0436 -0.0047
 1487BOLB   C1C35681  17.193   0.558  31.494 -0.0490 -0.2731 -0.0166
 1487BOLB   C2C35682  17.359   0.849  31.579 -0.2725  0.4381  0.0188
 1487BOLB   C3C35683  17.366   1.216  31.590  0.0841 -0.2858  0.1948
 1487BOLB   C4C35684  17.581   1.640  31.415 -0.0947  0.3487 -0.2084
 1487BOLB   C1D35685  16.745   0.761  30.860 -0.0052 -0.0445  0.1184
 1487BOLB   C2D35686  16.616   1.274  31.069 -0.3597  0.3806 -0.0555
 1487BOLB   C3D35687  16.658   1.670  31.100  0.4714  0.2480 -0.2090
 1487BOLB   C4D35688  16.799   2.006  30.906  0.3463 -0.0968 -0.0624
 1488BOLB   NC135689   7.800  15.695  28.923  0.0972  0.2281  0.0822
 1488BOLB   PO135690   8.014  15.995  29.065 -0.3596  0.2343  0.1864
 1488BOLB   GL135691   7.629  16.120  29.056 -0.0369  0.2309  0.4148
 1488BOLB   GL235692   7.510  16.338  29.305  0.1229  0.1997  0.0261
 1488BOLB   C1A35693   7.282  16.148  28.718  0.1830 -0.0236  0.1639
 1488BOLB   C2A35694   7.008  16.413  28.730 -0.0366  0.1211 -0.2662
 1488BOLB   C3A35695   6.570  16.504  28.609  0.0115  0.3237  0.1096
 1488BOLB   C4A35696   6.180  16.526  28.390  0.2825  0.1168  0.1116
 1488BOLB   C1B35697   7.287  16.729  29.414  0.0075  0.2107  0.1598
 1488BOLB   C2B35698   6.870  16.988  29.204  0.1435 -0.1768  0.2648
 1488BOLB   C3B35699   6.522  17.243  29.195  0.1062  0.1449 -0.2322
 1488BOLB   C4B35700   6.532  17.669  29.254 -0.0334 -0.2158  0.0797
 1488BOLB   NC235701   3.788  17.336  28.469  0.0951 -0.1878  0.2292
 1488BOLB   PO235702   3.923  17.772  28.591 -0.2227  0.1224 -0.0194
 1488BOLB   GL335703   4.366  17.472  28.542 -0.0590 -0.4892 -0.2429
 1488BOLB   GL435704   4.185  17.227  28.684 -0.1631 -0.1917 -0.3003
 1488BOLB   C1C35705   4.686  17.251  28.678  0.3072  0.0221  0.0771
 1488BOLB   C2C35706   5.048  16.973  28.634  0.0865  0.0599 -0.3431
 1488BOLB   C3C35707   5.470  16.974  28.554  0.0450  0.0154  0.0627
 1488BOLB   C4C35708   5.726  16.774  28.417  0.0330  0.0207 -0.2258
 1488BOLB   C1D35709   4.380  17.124  29.066  0.1151 -0.0632 -0.0604
 1488BOLB   C2D35710   4.382  17.105  29.496 -0.0470 -0.5745 -0.0086
 1488BOLB   C3D35711   4.338  17.150  29.909 -0.0821  0.0100  0.0343
 1488BOLB   C4D35712   4.496  16.776  30.098  0.0133 -0.1641 -0.1200
 1489BOLB   NC135713  20.189  18.147  30.398 -0.0165 -0.2596  0.1499
 1489BOLB   PO135714  20.528  17.990  30.318 -0.0672  0.0811 -0.0652
 1489BOLB   GL135715  20.461  18.422  30.049 -0.0559  0.3426  0.2198
 1489BOLB   GL235716  20.269  18.451  29.672  0.1331  0.1361 -0.1254
 1489BOLB   C1A35717  20.751  18.845  29.854  0.1714 -0.0380 -0.1185
 1489BOLB   C2A35718  20.823  19.079  29.562  0.0438  0.0261 -0.5755
 1489BOLB   C3A35719  21.120  19.374  29.490 -0.0556  0.2904 -0.1380
 1489BOLB   C4A35720  21.265  19.795  29.608  0.0181 -0.1103  0.3024
 1489BOLB   C1B35721  20.348  18.810  29.503 -0.2603  0.0699 -0.0142
 1489BOLB   C2B35722  20.303  19.229  29.544  0.1937  0.1448 -0.1529
 1489BOLB   C3B35723  20.432  19.666  29.681 -0.0501  0.0375  0.0375
 1489BOLB   C4B35724  20.792  19.870  29.628  0.0070 -0.0165 -0.2186
 1489BOLB   NC235725  23.309  20.412  29.469  0.2299  0.0400 -0.2313
 1489BOLB   PO235726  23.402  20.582  29.917 -0.0302 -0.0720  0.1465
 1489BOLB   GL335727  22.983  20.318  29.940  0.0157 -0.0055 -0.0403
 1489BOLB   GL435728  22.812  20.484  29.658 -0.2684  0.0179  0.2722
 1489BOLB   C1C35729  22.435  20.353  30.100 -0.2044  0.0898 -0.4107
 1489BOLB   C2C35730  22.012  20.551  30.156 -0.0430 -0.1982  0.0461
 1489BOLB   C3C35731  21.564  20.554  29.929 -0.1682  0.0753  0.2321
 1489BOLB   C4C35732  21.343  20.115  29.813 -0.2330 -0.0371  0.1638
 1489BOLB   C1D35733  22.536  20.110  29.633 -0.0764  0.0062 -0.0108
 1489BOLB   C2D35734  22.191  19.774  29.704  0.0144  0.0394 -0.1096
 1489BOLB   C3D35735  21.992  19.513  29.262 -0.0385 -0.1773 -0.4295
 1489BOLB   C4D35736  21.866  19.205  29.142  0.1260 -0.1081  0.1204
 1490BOLB   NC135737  16.919   6.991  22.502  0.1179 -0.4596 -0.0948
 1490BOLB   PO135738  16.722   6.829  22.083  0.1554 -0.3375 -0.1749
 1490BOLB   GL135739  16.875   6.583  21.740 -0.0850  0.1027  0.3297
 1490BOLB   GL235740  16.666   6.300  21.842 -0.0785  0.3306 -0.0245
 1490BOLB   C1A35741  16.948   6.258  21.415  0.0756  0.1297  0.0808
 1490BOLB   C2A35742  16.850   5.831  21.327  0.0932  0.0703 -0.0317
 1490BOLB   C3A35743  16.700   5.377  21.171 -0.1156  0.1012 -0.0372
 1490BOLB   C4A35744  16.491   5.022  21.089  0.2617  0.0481 -0.1971
 1490BOLB   C1B35745  16.567   5.869  21.738 -0.1327  0.1686  0.0053
 1490BOLB   C2B35746  16.791   5.441  21.713  0.1867 -0.4496  0.0603
 1490BOLB   C3B35747  16.809   4.996  21.488 -0.0167 -0.3365  0.1452
 1490BOLB   C4B35748  16.985   4.640  21.453 -0.0061  0.0252  0.1046
 1490BOLB   NC235749  16.479   2.937  19.492 -0.1263  0.3666 -0.0258
 1490BOLB   PO235750  16.613   2.801  19.965 -0.0369 -0.0521  0.0758
 1490BOLB   GL335751  16.495   3.083  20.220  0.1379 -0.0530 -0.3895
 1490BOLB   GL435752  16.858   3.176  20.249  0.2572 -0.0528  0.3945
 1490BOLB   C1C35753  16.537   3.358  20.605 -0.1778  0.2223 -0.2466
 1490BOLB   C2C35754  16.484   3.780  20.934  0.1548  0.0275 -0.0461
 1490BOLB   C3C35755  16.437   4.162  21.038 -0.3123 -0.2394  0.2605
 1490BOLB   C4C35756  16.505   4.638  21.130 -0.0178  0.0207 -0.1747
 1490BOLB   C1D35757  17.058   3.352  20.591  0.4721 -0.1685  0.1407
 1490BOLB   C2D35758  17.178   3.682  20.860 -0.0620  0.2152 -0.0267
 1490BOLB   C3D35759  17.123   4.090  20.997  0.1133 -0.0753  0.0987
 1490BOLB   C4D35760  17.299   4.267  21.416 -0.0474 -0.2990 -0.0672
 1491BOLB   NC135761  15.584  17.288  20.548 -0.2159  0.1564  0.3144
 1491BOLB   PO135762  15.832  16.998  20.255  0.0522 -0.0656  0.0434
 1491BOLB   GL135763  15.530  17.032  20.026 -0.3713  0.0971 -0.2850
 1491BOLB   GL235764  15.372  17.359  20.099 -0.2377  0.0180 -0.0901
 1491BOLB   C1A35765  15.259  16.856  19.636  0.3632 -0.1990 -0.0115
 1491BOLB   C2A35766  15.415  16.891  19.160 -0.1689 -0.2632 -0.1707
 1491BOLB   C3A35767  15.369  17.042  18.724  0.2912 -0.0068  0.2371
 1491BOLB   C4A35768  15.336  16.884  18.305 -0.0913  0.0925 -0.0179
 1491BOLB   C1B35769  15.340  17.849  19.925  0.0673 -0.1762  0.3861
 1491BOLB   C2B35770  15.531  18.063  19.605 -0.1131  0.0184  0.2724
 1491BOLB   C3B35771  15.513  18.060  19.117 -0.0081 -0.2226  0.0243
 1491BOLB   C4B35772  15.395  18.444  18.734 -0.2137  0.1840  0.0652
 1491BOLB   NC235773  14.552  17.633  16.573  0.0746  0.2149 -0.1415
 1491BOLB   PO235774  14.863  17.507  16.241  0.0397 -0.1756  0.1512
 1491BOLB   GL335775  14.872  17.255  16.725  0.0768 -0.0253 -0.3968
 1491BOLB   GL435776  14.583  17.032  16.731  0.2582  0.3004 -0.0647
 1491BOLB   C1C35777  14.973  17.026  17.144 -0.1333 -0.0704  0.0073
 1491BOLB   C2C35778  15.354  16.837  17.233  0.0701  0.1512 -0.0172
 1491BOLB   C3C35779  15.397  16.545  17.597 -0.4477  0.5013  0.0534
 1491BOLB   C4C35780  15.356  16.678  18.034  0.0675 -0.1925 -0.1945
 1491BOLB   C1D35781  14.781  16.751  16.736 -0.2019  0.2133  0.0253
 1491BOLB   C2D35782  15.143  16.449  16.830  0.3141  0.2027  0.0096
 1491BOLB   C3D35783  15.216  16.050  16.714  0.3586 -0.0353 -0.0861
 1491BOLB   C4D35784  15.096  15.644  16.795 -0.1018  0.0154  0.0819
 1492BOLB   NC135785   7.957  14.206  33.556  0.0446 -0.1494  0.0625
 1492BOLB   PO135786   8.011  14.090  33.936  0.1667  0.3136 -0.0956
 1492BOLB   GL135787   7.802  14.120  34.320 -0.2789  0.1812  0.0495
 1492BOLB   GL235788   7.552  13.980  34.337 -0.0087  0.4504 -0.0057
 1492BOLB   C1A35789   7.757  14.296  34.746 -0.0459 -0.0270  0.1836
 1492BOLB   C2A35790   7.643  14.133  35.201  0.1922  0.1851  0.1287
 1492BOLB   C3A35791   7.218  13.955  35.232  0.0494 -0.3199  0.1656
 1492BOLB   C4A35792   6.725  13.936  35.080  0.0156  0.0552  0.1600
 1492BOLB   C1B35793   7.285  14.310  34.486 -0.1276 -0.1766 -0.0193
 1492BOLB   C2B35794   7.041  14.344  34.928 -0.0816 -0.2033 -0.5412
 1492BOLB   C3B35795   6.718  14.489  35.253  0.1500 -0.1942  0.0644
 1492BOLB   C4B35796   6.657  14.985  35.582 -0.1791  0.2614 -0.2858
 1492BOLB   NC235797   4.080  15.229  35.537  0.0621  0.2393  0.3658
 1492BOLB   PO235798   4.389  14.930  35.586 -0.3075 -0.1631 -0.1425
 1492BOLB   GL335799   4.758  14.655  35.538  0.1376  0.2115 -0.0592
 1492BOLB   GL435800   4.691  14.315  35.638  0.0268  0.0605  0.0887
 1492BOLB   C1C35801   5.159  14.503  35.477  0.1678  0.1979  0.2797
 1492BOLB   C2C35802   5.594  14.280  35.409  0.2268 -0.2959 -0.0071
 1492BOLB   C3C35803   6.080  14.266  35.295  0.1759 -0.1278  0.2027
 1492BOLB   C4C35804   6.383  14.258  35.038  0.1963 -0.1913 -0.0184
 1492BOLB   C1D35805   5.019  14.018  35.449  0.0428 -0.0595 -0.0718
 1492BOLB   C2D35806   5.289  14.099  35.046 -0.1694  0.1092  0.1660
 1492BOLB   C3D35807   5.708  14.038  35.009 -0.0976 -0.3150  0.3055
 1492BOLB   C4D35808   5.871  13.946  34.608 -0.2181  0.0892 -0.0877
 1493BOLB   NC135809  15.165  20.878  30.451 -0.0128  0.0037 -0.1372
 1493BOLB   PO135810  15.160  21.144  30.058 -0.3380  0.1038 -0.0237
 1493BOLB   GL135811  15.284  21.537  30.165  0.1701  0.2299 -0.2112
 1493BOLB   GL235812  15.566  21.434  30.023  0.2462 -0.0805  0.1004
 1493BOLB   C1A35813  15.350  22.018  30.175 -0.0570  0.1005  0.0154
 1493BOLB   C2A35814  15.800  22.245  30.161 -0.5439 -0.0743  0.1094
 1493BOLB   C3A35815  16.019  22.565  30.215  0.0749  0.1712  0.0706
 1493BOLB   C4A35816  16.011  22.961  30.419 -0.1262  0.0642 -0.0546
 1493BOLB   C1B35817  15.837  21.739  30.177  0.1263 -0.0907 -0.3676
 1493BOLB   C2B35818  16.139  21.882  30.426  0.1288  0.0316 -0.2565
 1493BOLB   C3B35819  16.431  22.301  30.363 -0.1294 -0.1907 -0.4041
 1493BOLB   C4B35820  16.383  22.360  29.920  0.0226 -0.1263 -0.0208
 1493BOLB   NC235821  16.347  25.113  29.341  0.1130  0.0621  0.1226
 1493BOLB   PO235822  16.578  25.113  29.753  0.1404  0.5175  0.1115
 1493BOLB   GL335823  16.537  24.765  29.877 -0.0519 -0.0201  0.1583
 1493BOLB   GL435824  16.672  24.402  29.813 -0.1380 -0.0689  0.4126
 1493BOLB   C1C35825  16.164  24.467  30.048 -0.1152 -0.2550  0.1058
 1493BOLB   C2C35826  15.960  24.002  30.150 -0.1291  0.2336  0.1540
 1493BOLB   C3C35827  15.928  23.639  30.161  0.0807  0.1666  0.0077
 1493BOLB   C4C35828  15.882  23.297  30.332  0.3291  0.2371 -0.1345
 1493BOLB   C1D35829  16.457  24.045  30.035 -0.1034 -0.3818 -0.3557
 1493BOLB   C2D35830  16.443  23.701  30.135 -0.0440 -0.0355 -0.1325
 1493BOLB   C3D35831  16.407  23.295  30.290  0.2005  0.1428  0.4236
 1493BOLB   C4D35832  16.397  22.870  30.063  0.1308  0.0621 -0.0047
 1494BOLB   NC135833  17.653   6.109  22.986  0.0816  0.3516  0.3500
 1494BOLB   PO135834  17.966   6.369  22.748  0.0278 -0.1628 -0.2771
 1494BOLB   GL135835  18.189   5.991  22.660  0.1800  0.0862 -0.1713
 1494BOLB   GL235836  17.952   5.697  22.701  0.0323  0.0878 -0.0141
 1494BOLB   C1A35837  18.515   5.718  22.400  0.0711  0.1426  0.1341
 1494BOLB   C2A35838  18.661   5.325  22.360  0.0182  0.2206 -0.0944
 1494BOLB   C3A35839  18.675   5.026  22.016 -0.2456 -0.0494  0.0186
 1494BOLB   C4A35840  18.700   4.618  21.937  0.0088  0.0755  0.1750
 1494BOLB   C1B35841  18.051   5.396  22.401 -0.0004 -0.3137 -0.2666
 1494BOLB   C2B35842  18.270   4.995  22.336  0.0962  0.4329 -0.3046
 1494BOLB   C3B35843  18.600   4.767  22.529 -0.0646  0.0511  0.3099
 1494BOLB   C4B35844  18.860   4.453  22.497  0.0219  0.0680 -0.1796
 1494BOLB   NC235845  18.683   2.747  20.187 -0.0521 -0.0813  0.0642
 1494BOLB   PO235846  18.335   2.701  20.573 -0.2475  0.1737 -0.0740
 1494BOLB   GL335847  18.109   3.075  20.804  0.0500 -0.0613 -0.1973
 1494BOLB   GL435848  18.131   3.059  21.050 -0.1039  0.0114  0.0880
 1494BOLB   C1C35849  18.186   3.558  20.885  0.1719  0.4033 -0.2539
 1494BOLB   C2C35850  18.373   3.869  21.068  0.1760 -0.6358  0.0049
 1494BOLB   C3C35851  18.603   4.096  21.304  0.0363 -0.2585 -0.1408
 1494BOLB   C4C35852  18.463   4.265  21.647 -0.4782  0.0365 -0.1175
 1494BOLB   C1D35853  18.271   3.401  21.344  0.0306  0.0437 -0.1899
 1494BOLB   C2D35854  18.292   3.781  21.598  0.0322 -0.3391  0.2321
 1494BOLB   C3D35855  17.991   4.211  21.766  0.2283  0.0780  0.2482
 1494BOLB   C4D35856  17.572   4.392  21.935  0.1342  0.3184 -0.1987
 1495BOLB   NC135857  18.185  18.540  27.486 -0.2213  0.0221  0.0620
 1495BOLB   PO135858  18.588  18.858  27.371  0.0768 -0.2576  0.1881
 1495BOLB   GL135859  18.937  19.085  27.170 -0.1558 -0.1812  0.1504
 1495BOLB   GL235860  19.062  19.198  27.428  0.3010 -0.3062 -0.3207
 1495BOLB   C1A35861  19.024  19.611  27.108 -0.4725 -0.0421 -0.0201
 1495BOLB   C2A35862  19.284  20.062  27.356 -0.3236 -0.0693  0.2772
 1495BOLB   C3A35863  19.521  20.414  27.498  0.0421  0.1355  0.1555
 1495BOLB   C4A35864  19.668  20.855  27.525 -0.2559 -0.2994 -0.1498
 1495BOLB   C1B35865  19.371  19.571  27.511 -0.1250  0.1172  0.0011
 1495BOLB   C2B35866  19.584  19.695  27.164 -0.0256  0.0491 -0.0021
 1495BOLB   C3B35867  19.796  19.941  26.889  0.1729 -0.1152  0.0128
 1495BOLB   C4B35868  19.988  20.329  26.856  0.0100 -0.1805  0.3210
 1495BOLB   NC235869  20.242  23.121  27.010 -0.3079  0.1483 -0.0808
 1495BOLB   PO235870  20.474  22.977  27.358  0.1658  0.2392  0.0589
 1495BOLB   GL335871  20.383  22.510  27.326  0.0582 -0.1135 -0.0309
 1495BOLB   GL435872  20.382  22.356  26.928  0.2981 -0.5517 -0.0771
 1495BOLB   C1C35873  20.140  22.111  27.321 -0.2455 -0.1892  0.4300
 1495BOLB   C2C35874  20.015  21.819  27.074 -0.2474 -0.1851 -0.0898
 1495BOLB   C3C35875  19.776  21.560  27.033 -0.1773  0.1948 -0.1814
 1495BOLB   C4C35876  19.843  21.161  27.160  0.0156 -0.0703  0.2734
 1495BOLB   C1D35877  20.096  22.263  26.711  0.0569  0.1399 -0.2239
 1495BOLB   C2D35878  19.860  22.361  26.405  0.0995 -0.2133  0.0818
 1495BOLB   C3D35879  19.449  22.428  26.235 -0.2116  0.3330 -0.0837
 1495BOLB   C4D35880  19.005  22.510  26.372 -0.2117  0.0660  0.0693
 1496BOLB   NC135881  22.596  11.567  36.912 -0.0272  0.5011  0.0448
 1496BOLB   PO135882  22.245  11.402  37.199 -0.0325 -0.1543 -0.0368
 1496BOLB   GL135883  22.563  11.495  37.550 -0.0095 -0.0312  0.5107
 1496BOLB   GL235884  22.823  11.649  37.456  0.0469  0.1730 -0.3596
 1496BOLB   C1A35885  22.639  11.670  38.007  0.0937  0.1015 -0.2061
 1496BOLB   C2A35886  22.892  11.544  38.208 -0.4297  0.1271  0.2364
 1496BOLB   C3A35887  23.256  11.686  38.237 -0.0755 -0.0229 -0.0891
 1496BOLB   C4A35888  23.612  11.902  38.457  0.1535 -0.0416  0.0045
 1496BOLB   C1B35889  23.137  11.511  37.726  0.0652  0.0274  0.0877
 1496BOLB   C2B35890  23.424  11.220  38.077  0.2690 -0.1616 -0.1073
 1496BOLB   C3B35891  23.133  11.096  38.428 -0.1604 -0.1729  0.1160
 1496BOLB   C4B35892  22.719  11.195  38.478 -0.1421  0.6085 -0.0860
 1496BOLB   NC235893  26.052  11.802  39.107  0.3441 -0.0782 -0.2323
 1496BOLB   PO235894  25.746  11.595  38.963  0.0142  0.3312  0.3746
 1496BOLB   GL335895  25.369  11.788  38.790 -0.2930 -0.2842 -0.0691
 1496BOLB   GL435896  25.224  11.641  38.499  0.2854  0.4120 -0.1726
 1496BOLB   C1C35897  24.914  11.727  38.836 -0.0470  0.2321  0.2023
 1496BOLB   C2C35898  24.557  11.653  39.178 -0.2635  0.1708 -0.1601
 1496BOLB   C3C35899  24.119  11.685  39.168 -0.3430 -0.1072  0.2894
 1496BOLB   C4C35900  23.769  11.742  38.835  0.2661 -0.4409  0.0432
 1496BOLB   C1D35901  25.007  11.548  38.176  0.2011  0.1810  0.0991
 1496BOLB   C2D35902  24.569  11.333  38.027  0.2464 -0.0299  0.2404
 1496BOLB   C3D35903  24.315  11.097  37.707 -0.1787  0.2357 -0.1089
 1496BOLB   C4D35904  23.907  10.908  37.720 -0.3337  0.0668 -0.1341
 1497BOLB   NC135905  12.073  10.626  21.614 -0.0282  0.2467 -0.0815
 1497BOLB   PO135906  11.984  10.583  21.917 -0.0018 -0.0137  0.1802
 1497BOLB   GL135907  11.614  10.422  21.739  0.1228  0.0717 -0.1080
 1497BOLB   GL235908  11.584  10.631  21.495  0.1019  0.1659  0.0565
 1497BOLB   C1A35909  11.468  10.070  21.488 -0.0620  0.4961  0.0527
 1497BOLB   C2A35910  11.628   9.683  21.425  0.2131  0.2644 -0.1097
 1497BOLB   C3A35911  11.546   9.571  20.986  0.1780 -0.0521  0.1233
 1497BOLB   C4A35912  11.270   9.828  20.613  0.2863  0.0142 -0.3011
 1497BOLB   C1B35913  11.395  10.376  21.127  0.1491  0.3036  0.1678
 1497BOLB   C2B35914  10.971  10.362  20.724 -0.3598 -0.1497  0.1143
 1497BOLB   C3B35915  10.544  10.329  20.636  0.0323 -0.0465 -0.2912
 1497BOLB   C4B35916  10.279  10.452  20.424 -0.1649  0.0332  0.0746
 1497BOLB   NC235917  10.035  10.016  18.337  0.5474 -0.1132  0.0576
 1497BOLB   PO235918  10.371   9.798  18.245 -0.0644 -0.4005 -0.2192
 1497BOLB   GL335919  10.415   9.956  18.632  0.1452 -0.6020  0.0933
 1497BOLB   GL435920  10.373  10.308  18.620 -0.1530 -0.3660  0.1951
 1497BOLB   C1C35921  10.304   9.834  19.059 -0.0227  0.0043 -0.1479
 1497BOLB   C2C35922  10.353   9.715  19.516 -0.2100  0.1034  0.3151
 1497BOLB   C3C35923  10.730   9.858  19.799 -0.1029  0.0146 -0.2711
 1497BOLB   C4C35924  10.999   9.749  20.235  0.1101  0.1480  0.1833
 1497BOLB   C1D35925  10.799  10.351  18.770 -0.3372 -0.0242  0.0114
 1497BOLB   C2D35926  11.099  10.347  19.094 -0.0755 -0.0573 -0.2639
 1497BOLB   C3D35927  11.398  10.448  19.371  0.0535  0.0758  0.0660
 1497BOLB   C4D35928  11.864  10.532  19.361  0.0392 -0.2184  0.1857
 1498BOLB   NC135929  14.022  20.534  23.907 -0.0097 -0.0059 -0.1231
 1498BOLB   PO135930  13.920  20.688  23.614 -0.0320  0.0871 -0.1101
 1498BOLB   GL135931  14.016  21.053  23.738  0.0167  0.0021 -0.1711
 1498BOLB   GL235932  14.156  21.116  24.063  0.1588  0.0681  0.0229
 1498BOLB   C1A35933  13.693  21.428  23.824 -0.0859 -0.1100  0.1491
 1498BOLB   C2A35934  13.301  21.677  23.808 -0.1241  0.0772  0.0557
 1498BOLB   C3A35935  13.025  21.773  23.547  0.0923 -0.2317 -0.2922
 1498BOLB   C4A35936  12.774  22.214  23.484 -0.0031  0.0055  0.1497
 1498BOLB   C1B35937  14.182  21.581  23.793  0.0007  0.2003  0.2480
 1498BOLB   C2B35938  14.271  21.616  23.473  0.2085  0.2305  0.1457
 1498BOLB   C3B35939  14.332  21.817  23.197  0.0983  0.2001  0.0209
 1498BOLB   C4B35940  14.384  22.189  22.919 -0.1965  0.2226  0.0060
 1498BOLB   NC235941  13.646  24.277  22.427 -0.1582 -0.1915 -0.0557
 1498BOLB   PO235942  13.919  23.940  22.519  0.1533 -0.0429  0.1991
 1498BOLB   GL335943  13.869  23.539  22.823 -0.0411  0.2056 -0.1378
 1498BOLB   GL435944  14.112  23.276  22.783  0.0301 -0.0721 -0.1246
 1498BOLB   C1C35945  13.604  23.283  22.980  0.0739 -0.3752  0.2249
 1498BOLB   C2C35946  13.371  22.949  22.916  0.1783 -0.1495  0.0527
 1498BOLB   C3C35947  12.935  22.744  23.022  0.4250 -0.0089 -0.2163
 1498BOLB   C4C35948  12.714  22.440  23.265 -0.0203  0.2125 -0.2512
 1498BOLB   C1D35949  14.081  22.777  22.717 -0.2205  0.0786  0.0725
 1498BOLB   C2D35950  14.100  22.408  22.529  0.2685  0.0929  0.1244
 1498BOLB   C3D35951  14.135  21.959  22.558 -0.0768  0.0981  0.1648
 1498BOLB   C4D35952  14.048  21.580  22.568  0.0023 -0.0857 -0.1465
 1499BOLB   NC135953  16.689  12.166  28.356 -0.2141  0.3321 -0.0268
 1499BOLB   PO135954  16.967  12.334  28.141 -0.2601 -0.3194  0.2374
 1499BOLB   GL135955  16.828  12.017  27.830  0.0026 -0.1770  0.2124
 1499BOLB   GL235956  16.475  11.980  27.785 -0.1383 -0.0664 -0.4045
 1499BOLB   C1A35957  16.696  11.962  27.364  0.3013 -0.0657  0.0546
 1499BOLB   C2A35958  16.609  11.784  26.995 -0.0871 -0.2554 -0.0300
 1499BOLB   C3A35959  16.461  12.005  26.547 -0.2489  0.1738  0.2186
 1499BOLB   C4A35960  16.401  12.186  26.146  0.0481  0.0897 -0.0841
 1499BOLB   C1B35961  16.271  11.563  27.586 -0.1340 -0.3832  0.0247
 1499BOLB   C2B35962  16.317  11.374  27.134  0.1144 -0.0671 -0.0174
 1499BOLB   C3B35963  16.469  11.118  27.018 -0.0265  0.0346 -0.0736
 1499BOLB   C4B35964  16.876  10.871  27.045  0.0439 -0.1411  0.0792
 1499BOLB   NC235965  15.123  11.207  24.057  0.1813  0.0022 -0.1677
 1499BOLB   PO235966  15.500  11.087  24.141 -0.3580  0.2454 -0.1159
 1499BOLB   GL335967  15.731  11.342  24.410 -0.0568  0.1841 -0.0082
 1499BOLB   GL435968  15.984  11.186  24.758 -0.2152 -0.0735 -0.1173
 1499BOLB   C1C35969  15.776  11.613  24.733  0.0517 -0.1698 -0.0441
 1499BOLB   C2C35970  15.919  11.850  25.038  0.1375  0.1782 -0.3377
 1499BOLB   C3C35971  16.099  12.191  25.289  0.0543 -0.2423 -0.2554
 1499BOLB   C4C35972  16.178  12.124  25.727 -0.1694  0.1063  0.0302
 1499BOLB   C1D35973  16.044  11.378  25.117  0.1042  0.2928 -0.4625
 1499BOLB   C2D35974  16.001  11.680  25.498 -0.1943 -0.1906 -0.0820
 1499BOLB   C3D35975  15.660  11.769  25.781 -0.1978 -0.1949 -0.0058
 1499BOLB   C4D35976  15.685  12.154  26.134 -0.1322 -0.1846  0.0767
 1500BOLB   NC135977   8.636  10.328  27.347  0.2067 -0.1846  0.0437
 1500BOLB   PO135978   8.285  10.431  27.500 -0.1283 -0.0343 -0.2500
 1500BOLB   GL135979   7.879  10.071  27.408 -0.1001 -0.0893  0.1263
 1500BOLB   GL235980   8.010  10.156  27.126  0.2321 -0.2210 -0.1527
 1500BOLB   C1A35981   7.487   9.909  27.428  0.0352  0.2231 -0.0535
 1500BOLB   C2A35982   7.173  10.019  27.157  0.0874 -0.2540  0.0719
 1500BOLB   C3A35983   6.737  10.146  27.073 -0.0616 -0.1908  0.3514
 1500BOLB   C4A35984   6.461  10.553  27.047  0.1377 -0.3084 -0.1224
 1500BOLB   C1B35985   7.685  10.079  26.931 -0.0194 -0.3550  0.1270
 1500BOLB   C2B35986   7.344   9.870  26.711  0.0724 -0.1150 -0.0015
 1500BOLB   C3B35987   7.010   9.868  26.381  0.1593 -0.0072  0.0497
 1500BOLB   C4B35988   6.779   9.423  26.398 -0.2595  0.1090 -0.2098
 1500BOLB   NC235989   4.382  10.091  27.255  0.1070 -0.5538 -0.0558
 1500BOLB   PO235990   4.333  10.219  26.830  0.1125 -0.1482  0.1902
 1500BOLB   GL335991   4.753  10.483  26.616  0.1729  0.1894  0.0319
 1500BOLB   GL435992   4.610  10.732  26.650  0.0001  0.1428 -0.0828
 1500BOLB   C1C35993   5.118  10.707  26.433  0.1669 -0.0196 -0.0699
 1500BOLB   C2C35994   5.545  10.830  26.366 -0.0286  0.1219 -0.2949
 1500BOLB   C3C35995   5.904  10.917  26.511  0.0042  0.0311 -0.0639
 1500BOLB   C4C35996   6.248  10.916  26.771 -0.4684 -0.3437 -0.2847
 1500BOLB   C1D35997   4.846  11.128  26.900 -0.0879 -0.1251  0.3409
 1500BOLB   C2D35998   5.226  11.240  26.931  0.3432  0.1661 -0.2317
 1500BOLB   C3D35999   5.682  11.322  26.925 -0.1163 -0.0813  0.3326
 1500BOLB   C4D36000   6.146  11.375  26.975 -0.1673  0.3203 -0.3189
 1501BOLB   NC136001  22.825  10.186  34.778  0.0201  0.0669 -0.1535
 1501BOLB   PO136002  22.509   9.836  34.703  0.4190  0.1275  0.1184
 1501BOLB   GL136003  22.899   9.582  34.846  0.0610  0.0907  0.4755
 1501BOLB   GL236004  23.074   9.793  35.028 -0.2825  0.2050 -0.0082
 1501BOLB   C1A36005  23.399   9.493  34.788 -0.1591  0.2807 -0.0543
 1501BOLB   C2A36006  23.627   9.219  35.057  0.2424 -0.2680  0.0111
 1501BOLB   C3A36007  24.014   9.118  34.998  0.1129  0.3497  0.0423
 1501BOLB   C4A36008  24.364   9.068  35.114 -0.0085 -0.1082 -0.3855
 1501BOLB   C1B36009  23.451   9.617  35.319  0.1335 -0.2231 -0.1509
 1501BOLB   C2B36010  23.888   9.429  35.476  0.2359 -0.4493 -0.3583
 1501BOLB   C3B36011  24.067   8.942  35.543 -0.2149 -0.2287  0.1219
 1501BOLB   C4B36012  24.242   8.560  35.622  0.0738 -0.1504  0.2063
 1501BOLB   NC236013  26.905   8.692  35.100  0.0268 -0.2259 -0.2494
 1501BOLB   PO236014  26.498   8.381  35.206  0.4207  0.3064  0.0229
 1501BOLB   GL336015  26.171   8.470  35.306  0.2032  0.1466 -0.1445
 1501BOLB   GL436016  25.872   8.240  35.217 -0.0964  0.2114 -0.3993
 1501BOLB   C1C36017  25.938   8.816  35.439  0.0903 -0.0868 -0.0480
 1501BOLB   C2C36018  25.639   9.026  35.423  0.0144 -0.1677 -0.0263
 1501BOLB   C3C36019  25.228   9.257  35.260  0.2399 -0.0181 -0.4770
 1501BOLB   C4C36020  24.837   9.172  35.041 -0.0216 -0.0053  0.1399
 1501BOLB   C1D36021  25.693   8.603  34.998  0.3762  0.2231  0.0756
 1501BOLB   C2D36022  25.309   8.871  34.942  0.0117 -0.3690 -0.1437
 1501BOLB   C3D36023  25.101   9.125  34.562  0.0404 -0.0870 -0.0761
 1501BOLB   C4D36024  24.810   9.237  34.171  0.3520  0.1273  0.0369
 1502BOLB   NC136025  15.177  12.565  20.046  0.1705 -0.0594 -0.0452
 1502BOLB   PO136026  14.746  12.810  20.026 -0.3135  0.2593 -0.0612
 1502BOLB   GL136027  14.562  13.037  19.704 -0.1479  0.2766  0.1399
 1502BOLB   GL236028  14.623  13.300  19.556  0.1117  0.2335  0.0783
 1502BOLB   C1A36029  14.208  12.874  19.467 -0.1848  0.1630  0.1499
 1502BOLB   C2A36030  14.138  13.075  19.038  0.0366 -0.0080 -0.1679
 1502BOLB   C3A36031  14.084  13.254  18.591  0.0955  0.2120 -0.1088
 1502BOLB   C4A36032  13.965  13.547  18.226  0.1491 -0.3604 -0.0775
 1502BOLB   C1B36033  14.270  13.564  19.429 -0.1565  0.2388  0.3700
 1502BOLB   C2B36034  13.876  13.501  19.055  0.0504  0.6343 -0.1603
 1502BOLB   C3B36035  13.617  13.131  18.857  0.1236  0.1795 -0.0270
 1502BOLB   C4B36036  13.278  12.902  18.583  0.1374 -0.1340  0.1078
 1502BOLB   NC236037  12.440  13.576  15.707 -0.2451 -0.0049  0.1188
 1502BOLB   PO236038  12.846  13.492  15.803  0.2668 -0.4489  0.0879
 1502BOLB   GL336039  13.049  13.526  16.224 -0.0715  0.3482  0.1650
 1502BOLB   GL436040  13.393  13.429  16.170  0.0658 -0.2141  0.1417
 1502BOLB   C1C36041  12.951  13.590  16.626 -0.0081 -0.0492  0.1023
 1502BOLB   C2C36042  13.220  13.751  16.967  0.0498  0.0936  0.3888
 1502BOLB   C3C36043  13.581  13.657  17.341 -0.1360  0.2214  0.1551
 1502BOLB   C4C36044  13.749  13.665  17.796 -0.0831 -0.0288  0.0217
 1502BOLB   C1D36045  13.510  13.404  16.661 -0.0404  0.0335 -0.4025
 1502BOLB   C2D36046  13.800  13.262  16.964  0.3580 -0.3053  0.0137
 1502BOLB   C3D36047  13.865  12.938  17.291  0.1182  0.0456  0.2929
 1502BOLB   C4D36048  13.842  13.030  17.711  0.3816  0.0544 -0.1128
 1503BOLB   NC136049  14.902   4.428  31.709  0.1612  0.0104 -0.1503
 1503BOLB   PO136050  15.142   4.476  31.298 -0.0802  0.0674  0.2426
 1503BOLB   GL136051  15.291   4.169  31.451 -0.0292  0.2043 -0.3662
 1503BOLB   GL236052  15.630   4.000  31.327  0.0824  0.1352  0.1078
 1503BOLB   C1A36053  15.268   3.824  31.793  0.2451 -0.2243  0.0752
 1503BOLB   C2A36054  15.144   3.483  31.692  0.0906  0.1325  0.0341
 1503BOLB   C3A36055  14.831   3.081  31.743 -0.0452 -0.2697 -0.0694
 1503BOLB   C4A36056  14.657   2.696  31.922  0.0619 -0.0665 -0.0272
 1503BOLB   C1B36057  15.663   3.619  31.433  0.0910 -0.1430 -0.5087
 1503BOLB   C2B36058  15.683   3.308  31.304  0.0816  0.0552 -0.1073
 1503BOLB   C3B36059  15.972   2.990  31.423 -0.0279  0.1333  0.1376
 1503BOLB   C4B36060  16.169   2.597  31.519  0.2714 -0.2194  0.4547
 1503BOLB   NC236061  15.644   0.525  32.486 -0.1779 -0.0472 -0.0979
 1503BOLB   PO236062  15.248   0.602  32.310  0.4391  0.1067  0.1306
 1503BOLB   GL336063  15.437   0.910  32.174  0.1039 -0.2217 -0.1454
 1503BOLB   GL436064  15.691   0.811  31.950 -0.0700  0.0343 -0.0396
 1503BOLB   C1C36065  15.351   1.326  32.155 -0.2426 -0.0359  0.1405
 1503BOLB   C2C36066  15.021   1.552  32.401 -0.0375 -0.2080 -0.0698
 1503BOLB   C3C36067  14.718   1.826  32.117 -0.0258 -0.0920 -0.3141
 1503BOLB   C4C36068  14.563   2.271  32.020  0.3236  0.2210  0.2674
 1503BOLB   C1D36069  15.807   1.165  32.073  0.0178 -0.0225 -0.1708
 1503BOLB   C2D36070  16.078   1.493  31.890  0.1115 -0.3302 -0.1959
 1503BOLB   C3D36071  16.211   1.818  31.833 -0.0192 -0.0104 -0.0719
 1503BOLB   C4D36072  16.474   2.198  31.578 -0.2462  0.0517 -0.0815
 1504BOLB   NC136073   7.718  15.905  40.671  0.3515  0.0286 -0.3830
 1504BOLB   PO136074   7.594  15.743  40.282 -0.0399 -0.2143  0.1731
 1504BOLB   GL136075   7.840  15.724  39.944  0.1625  0.0044  0.0189
 1504BOLB   GL236076   8.074  15.963  39.974  0.4999 -0.0574 -0.1740
 1504BOLB   C1A36077   8.107  15.495  39.647 -0.1797  0.1167  0.1875
 1504BOLB   C2A36078   8.335  15.672  39.243  0.1058 -0.1674  0.1117
 1504BOLB   C3A36079   8.310  15.498  38.886 -0.2224 -0.0216  0.0952
 1504BOLB   C4A36080   8.583  15.226  38.740  0.2710 -0.1260 -0.0203
 1504BOLB   C1B36081   8.276  16.123  39.533 -0.0054  0.1795  0.3036
 1504BOLB   C2B36082   8.238  16.118  39.103 -0.2200 -0.0113  0.2397
 1504BOLB   C3B36083   8.371  16.010  38.730  0.1078 -0.0754  0.2340
 1504BOLB   C4B36084   8.527  15.714  38.472 -0.0575  0.0063  0.2890
 1504BOLB   NC236085   6.866  14.502  40.055 -0.1144  0.1142  0.1723
 1504BOLB   PO236086   7.201  14.198  40.123 -0.0600  0.1777 -0.0092
 1504BOLB   GL336087   7.572  14.261  40.008  0.4153  0.2446 -0.0981
 1504BOLB   GL436088   7.618  14.003  39.673 -0.1187  0.2882 -0.3722
 1504BOLB   C1C36089   7.949  14.443  39.788 -0.2361  0.1082 -0.2092
 1504BOLB   C2C36090   8.372  14.551  39.578 -0.1005  0.2799  0.0499
 1504BOLB   C3C36091   8.678  14.761  39.338 -0.0250  0.0244 -0.1405
 1504BOLB   C4C36092   8.739  15.017  38.969 -0.0033 -0.1019  0.1860
 1504BOLB   C1D36093   8.036  14.042  39.511 -0.1968 -0.1106 -0.0002
 1504BOLB   C2D36094   8.339  14.130  39.182 -0.1457  0.0484 -0.2680
 1504BOLB   C3D36095   8.794  14.324  39.039  0.0824  0.1443  0.1780
 1504BOLB   C4D36096   8.985  14.568  38.735 -0.0595  0.1815  0.3932
 1505BOLB   NC136097  13.101  14.119  39.459 -0.1181  0.1819 -0.3076
 1505BOLB   PO136098  13.485  14.037  39.562 -0.1451 -0.2282  0.3633
 1505BOLB   GL136099  13.449  14.224  39.839 -0.1678  0.2525  0.0235
 1505BOLB   GL236100  13.538  14.525  39.915 -0.1224 -0.1798 -0.0715
 1505BOLB   C1A36101  13.269  14.219  40.286  0.4724  0.0084  0.2670
 1505BOLB   C2A36102  13.476  14.177  40.658  0.0465  0.0979  0.0222
 1505BOLB   C3A36103  13.828  14.157  41.014  0.1748  0.0793  0.1435
 1505BOLB   C4A36104  14.164  14.220  41.390  0.4104  0.5376  0.1111
 1505BOLB   C1B36105  13.384  14.630  40.436  0.1044 -0.0216  0.2695
 1505BOLB   C2B36106  13.249  14.996  40.762  0.1891  0.2102 -0.0824
 1505BOLB   C3B36107  13.143  15.351  40.674 -0.0183 -0.1242  0.0436
 1505BOLB   C4B36108  12.892  15.726  40.677 -0.1529 -0.2231 -0.5297
 1505BOLB   NC236109  13.117  14.727  43.176  0.1195 -0.2657  0.2670
 1505BOLB   PO236110  13.479  14.865  43.254  0.5981  0.2473 -0.2735
 1505BOLB   GL336111  13.827  14.858  42.985 -0.1466  0.0634  0.1266
 1505BOLB   GL436112  13.807  15.165  42.823 -0.4932 -0.0989 -0.4725
 1505BOLB   C1C36113  14.177  14.664  42.675 -0.2010  0.1582  0.2037
 1505BOLB   C2C36114  13.903  14.453  42.372 -0.4295 -0.3598 -0.3198
 1505BOLB   C3C36115  13.786  14.460  41.918  0.1299  0.0366  0.0418
 1505BOLB   C4C36116  14.127  14.354  41.746 -0.1117 -0.0580 -0.2939
 1505BOLB   C1D36117  13.830  15.016  42.440 -0.0220  0.2019  0.1875
 1505BOLB   C2D36118  13.914  14.961  42.011 -0.0008 -0.2358  0.2576
 1505BOLB   C3D36119  13.730  14.867  41.662  0.2889 -0.2056  0.1883
 1505BOLB   C4D36120  13.424  14.854  41.357 -0.0112 -0.0307  0.3440
 1506BOLB   NC136121  21.003   9.426  37.648  0.0899 -0.0302 -0.1953
 1506BOLB   PO136122  21.396   9.425  37.461 -0.1128 -0.0775  0.0699
 1506BOLB   GL136123  21.489   9.363  37.860  0.1563 -0.4563 -0.0533
 1506BOLB   GL236124  21.237   9.587  38.059  0.2095  0.1222 -0.1762
 1506BOLB   C1A36125  21.353   9.154  38.240 -0.2036 -0.2065 -0.0869
 1506BOLB   C2A36126  21.553   8.851  38.427 -0.2449 -0.0229  0.2825
 1506BOLB   C3A36127  21.651   8.617  38.821  0.0068  0.1155 -0.3829
 1506BOLB   C4A36128  21.684   8.271  38.970  0.0784 -0.2430  0.1818
 1506BOLB   C1B36129  21.311   9.640  38.520  0.0858  0.2940 -0.0423
 1506BOLB   C2B36130  21.588   9.588  38.856 -0.3645 -0.0574  0.2356
 1506BOLB   C3B36131  22.056   9.527  38.908 -0.3055  0.0912 -0.0587
 1506BOLB   C4B36132  22.474   9.370  38.977 -0.0262  0.2021 -0.1037
 1506BOLB   NC236133  23.323   7.842  41.056  0.3747 -0.0693 -0.0813
 1506BOLB   PO236134  22.969   7.580  40.909  0.0646 -0.3018 -0.2318
 1506BOLB   GL336135  22.642   7.741  40.574  0.1189  0.1427 -0.2192
 1506BOLB   GL436136  22.469   7.989  40.651 -0.0183  0.1381 -0.3840
 1506BOLB   C1C36137  22.297   7.658  40.307 -0.0814 -0.0812 -0.2787
 1506BOLB   C2C36138  21.975   7.776  40.150  0.2292  0.1711 -0.0016
 1506BOLB   C3C36139  21.702   7.773  39.792  0.1262 -0.3218 -0.3354
 1506BOLB   C4C36140  21.586   7.953  39.340  0.1725  0.2369 -0.3265
 1506BOLB   C1D36141  22.135   8.265  40.311 -0.3638  0.1869  0.0603
 1506BOLB   C2D36142  21.849   8.257  39.912  0.1727  0.0750 -0.1304
 1506BOLB   C3D36143  21.359   8.369  40.009  0.1874 -0.0247  0.0500
 1506BOLB   C4D36144  21.057   8.778  39.929 -0.4237  0.0177 -0.2100
 1507BOLB   NC136145  10.401  10.530  37.833  0.1982  0.0931 -0.0578
 1507BOLB   PO136146  10.288  10.852  37.514 -0.3440 -0.0819  0.0433
 1507BOLB   GL136147   9.938  10.810  37.849 -0.0564  0.1636  0.2578
 1507BOLB   GL236148   9.949  10.600  38.045 -0.2655  0.5118  0.0956
 1507BOLB   C1A36149   9.575  10.643  37.709 -0.0106  0.1719 -0.0559
 1507BOLB   C2A36150   9.402  10.657  38.169 -0.3407  0.0186  0.0459
 1507BOLB   C3A36151   9.254  10.298  38.466 -0.0664  0.0507 -0.4271
 1507BOLB   C4A36152   9.325  10.111  38.767  0.2149 -0.1034  0.1213
 1507BOLB   C1B36153  10.257  10.483  38.452 -0.1653 -0.2108 -0.2671
 1507BOLB   C2B36154  10.219  10.669  38.815 -0.1607 -0.2041  0.3338
 1507BOLB   C3B36155   9.960  10.945  39.033  0.1138 -0.2223  0.3148
 1507BOLB   C4B36156   9.677  10.774  39.362  0.3559  0.1163  0.2694
 1507BOLB   NC236157   8.065   8.915  40.995 -0.1291  0.2570 -0.0337
 1507BOLB   PO236158   8.494   8.970  40.803 -0.4004  0.1944  0.0250
 1507BOLB   GL336159   8.609   9.336  40.528 -0.1038  0.1128  0.1393
 1507BOLB   GL436160   8.375   9.532  40.529  0.1762  0.1193  0.1107
 1507BOLB   C1C36161   8.733   9.711  40.111 -0.0958 -0.1409  0.0510
 1507BOLB   C2C36162   9.086   9.815  39.880 -0.4439  0.1397  0.1177
 1507BOLB   C3C36163   9.098   9.846  39.413 -0.2228  0.0636  0.2814
 1507BOLB   C4C36164   9.167   9.820  38.977 -0.0253 -0.1663 -0.0662
 1507BOLB   C1D36165   8.222   9.351  40.149 -0.1717  0.1063  0.3049
 1507BOLB   C2D36166   8.374   9.412  39.846  0.0492 -0.3320 -0.0510
 1507BOLB   C3D36167   8.536   9.105  39.619 -0.2863  0.0750 -0.1355
 1507BOLB   C4D36168   8.406   8.772  39.336  0.0001  0.0316  0.0576
 1508BOLB   NC136169  10.584  13.398  22.708 -0.1454  0.2381  0.0954
 1508BOLB   PO136170  10.543  12.906  22.933  0.0268 -0.0900  0.2733
 1508BOLB   GL136171  10.231  13.016  22.674  0.0946 -0.2088  0.1131
 1508BOLB   GL236172  10.108  12.761  22.595 -0.2657  0.0405 -0.1376
 1508BOLB   C1A36173   9.942  13.072  22.287 -0.1184  0.0701 -0.1242
 1508BOLB   C2A36174   9.554  12.915  22.221  0.1042  0.1877  0.0319
 1508BOLB   C3A36175   9.241  13.069  21.838 -0.2372 -0.1535  0.0716
 1508BOLB   C4A36176   9.263  13.343  21.431  0.2447  0.0527  0.0671
 1508BOLB   C1B36177   9.690  12.616  22.600  0.0359  0.1990 -0.1219
 1508BOLB   C2B36178   9.449  12.442  22.337 -0.0706 -0.0689 -0.0313
 1508BOLB   C3B36179   9.165  12.170  22.232  0.2529  0.0026 -0.1711
 1508BOLB   C4B36180   8.816  12.253  22.082  0.0430 -0.2839  0.0513
 1508BOLB   NC236181   7.262  13.871  19.910  0.0872 -0.1008 -0.1193
 1508BOLB   PO236182   7.246  13.690  20.250  0.1356 -0.0727 -0.1108
 1508BOLB   GL336183   7.652  13.558  20.263  0.1426  0.0733  0.0530
 1508BOLB   GL436184   7.779  13.757  20.034 -0.4146 -0.0330  0.0565
 1508BOLB   C1C36185   7.999  13.366  20.372  0.3104  0.2050 -0.1675
 1508BOLB   C2C36186   8.448  13.469  20.402 -0.0697 -0.2173  0.0543
 1508BOLB   C3C36187   8.718  13.516  20.769 -0.0462 -0.1186  0.0447
 1508BOLB   C4C36188   8.965  13.505  21.087 -0.2298 -0.4802  0.0497
 1508BOLB   C1D36189   8.159  13.806  20.140  0.0916 -0.0985 -0.0187
 1508BOLB   C2D36190   8.500  14.010  20.306  0.3338 -0.1347  0.0670
 1508BOLB   C3D36191   8.906  13.924  20.394  0.1528  0.1384 -0.0442
 1508BOLB   C4D36192   9.236  14.024  20.735  0.0659  0.4059  0.0099
 1509BOLB   NC136193  10.163  18.845  34.462  0.2538 -0.1107 -0.0670
 1509BOLB   PO136194  10.463  19.147  34.786  0.0538  0.2965 -0.3485
 1509BOLB   GL136195  10.241  19.364  34.801  0.2595  0.0043 -0.2317
 1509BOLB   GL236196  10.111  19.343  35.161  0.0218 -0.0624 -0.1644
 1509BOLB   C1A36197  10.026  19.737  34.964 -0.1308 -0.1683  0.5104
 1509BOLB   C2A36198   9.939  20.186  35.046 -0.0208 -0.2207 -0.1647
 1509BOLB   C3A36199   9.656  20.509  35.049 -0.0753  0.1786  0.3113
 1509BOLB   C4A36200   9.494  20.810  34.807 -0.1266  0.1529  0.0319
 1509BOLB   C1B36201  10.015  19.430  35.566  0.2125  0.2387 -0.0192
 1509BOLB   C2B36202   9.805  19.759  35.894  0.0467  0.2145 -0.1620
 1509BOLB   C3B36203  10.104  20.210  35.957 -0.1974  0.5658  0.4021
 1509BOLB   C4B36204  10.019  20.516  36.200 -0.6735 -0.1713  0.2152
 1509BOLB   NC236205   7.856  22.985  34.153 -0.0135 -0.3035  0.1933
 1509BOLB   PO236206   8.243  22.969  34.466  0.0038 -0.1530  0.0369
 1509BOLB   GL336207   8.281  22.533  34.377  0.1426  0.1193  0.0090
 1509BOLB   GL436208   7.946  22.406  34.468  0.0811 -0.1333  0.0688
 1509BOLB   C1C36209   8.586  22.162  34.348  0.4075 -0.3572  0.0878
 1509BOLB   C2C36210   8.839  21.889  34.555 -0.0012 -0.2551  0.1341
 1509BOLB   C3C36211   9.077  21.585  34.814 -0.3495 -0.1819  0.1704
 1509BOLB   C4C36212   9.455  21.249  34.807  0.3194 -0.1255 -0.0113
 1509BOLB   C1D36213   8.094  22.103  34.660 -0.0781 -0.0787 -0.2236
 1509BOLB   C2D36214   8.333  21.796  34.582  0.0911 -0.1489  0.0515
 1509BOLB   C3D36215   8.604  21.436  34.696 -0.2254 -0.0555 -0.2327
 1509BOLB   C4D36216   8.521  20.994  34.459  0.1375 -0.1127 -0.0296
 1510BOLB   NC136217   8.439  10.445  31.201  0.2720  0.1461  0.0403
 1510BOLB   PO136218   8.051  10.242  31.364  0.2436 -0.0997 -0.2080
 1510BOLB   GL136219   7.802  10.103  31.663  0.1053 -0.5201  0.0367
 1510BOLB   GL236220   7.893   9.924  31.929 -0.0541  0.2711 -0.0641
 1510BOLB   C1A36221   7.364  10.092  31.786  0.0090 -0.1422  0.0199
 1510BOLB   C2A36222   6.881   9.912  31.863  0.0229  0.0397 -0.1265
 1510BOLB   C3A36223   6.554   9.749  31.997 -0.0852 -0.2318 -0.0387
 1510BOLB   C4A36224   6.175   9.835  32.164 -0.0638 -0.1675 -0.0207
 1510BOLB   C1B36225   7.497   9.675  32.056 -0.0287  0.1840 -0.0410
 1510BOLB   C2B36226   7.126   9.584  32.145 -0.0019  0.3564  0.0304
 1510BOLB   C3B36227   6.783   9.397  32.323 -0.0724  0.0278  0.1813
 1510BOLB   C4B36228   6.600   9.135  32.686  0.0146 -0.0420 -0.1633
 1510BOLB   NC236229   3.531   9.675  32.345  0.0613  0.0572  0.3234
 1510BOLB   PO236230   3.937   9.783  32.368 -0.2183  0.0584 -0.0011
 1510BOLB   GL336231   4.267   9.483  32.274 -0.0618 -0.2373 -0.1958
 1510BOLB   GL436232   4.442   9.318  31.904 -0.0619 -0.1027 -0.0109
 1510BOLB   C1C36233   4.596   9.704  32.496 -0.1224  0.0924 -0.1157
 1510BOLB   C2C36234   5.040   9.859  32.374  0.1900 -0.1440 -0.0510
 1510BOLB   C3C36235   5.495   9.675  32.427 -0.4215 -0.3618  0.1955
 1510BOLB   C4C36236   5.874   9.664  32.235  0.0433 -0.1051 -0.1344
 1510BOLB   C1D36237   4.676   9.415  32.074  0.1066 -0.0640 -0.1107
 1510BOLB   C2D36238   4.967   9.242  32.473 -0.1930 -0.2693  0.0352
 1510BOLB   C3D36239   5.073   8.935  32.767  0.1721  0.2152 -0.1400
 1510BOLB   C4D36240   5.236   8.595  32.894 -0.2299  0.1301  0.1961
 1511BOLB   NC136241  19.571  13.798  38.200  0.1678  0.1388 -0.2352
 1511BOLB   PO136242  19.479  13.493  38.550 -0.0011  0.1731 -0.3502
 1511BOLB   GL136243  19.732  13.786  38.832 -0.0083 -0.0219  0.1688
 1511BOLB   GL236244  19.767  13.771  39.134  0.1036  0.2074 -0.1432
 1511BOLB   C1A36245  20.127  14.031  38.889 -0.1544  0.3635 -0.1776
 1511BOLB   C2A36246  20.442  14.169  39.214 -0.5105 -0.0140  0.4004
 1511BOLB   C3A36247  20.399  14.100  39.651 -0.0019  0.0949 -0.3924
 1511BOLB   C4A36248  20.559  14.023  39.991 -0.0427 -0.0032 -0.1673
 1511BOLB   C1B36249  20.195  13.716  39.400  0.1811 -0.1533  0.1676
 1511BOLB   C2B36250  20.326  13.593  39.765 -0.1160  0.0643  0.0561
 1511BOLB   C3B36251  20.385  13.584  40.268  0.2038 -0.4298  0.0552
 1511BOLB   C4B36252  20.391  13.671  40.720  0.0774  0.0647  0.0858
 1511BOLB   NC236253  21.971  15.228  42.189  0.2204 -0.5254 -0.2100
 1511BOLB   PO236254  21.928  14.966  41.972  0.1488 -0.0622 -0.0370
 1511BOLB   GL336255  21.831  14.691  41.691  0.3071  0.0663  0.1841
 1511BOLB   GL436256  22.030  14.424  41.487 -0.1269 -0.0015  0.1794
 1511BOLB   C1C36257  21.480  14.628  41.378 -0.1277  0.0609  0.1632
 1511BOLB   C2C36258  21.262  14.542  40.950 -0.0715 -0.1039  0.2449
 1511BOLB   C3C36259  21.021  14.261  40.602  0.0361  0.0575  0.1163
 1511BOLB   C4C36260  20.591  14.034  40.450 -0.1042 -0.1829 -0.1140
 1511BOLB   C1D36261  21.825  14.286  41.094 -0.1659 -0.3847 -0.2034
 1511BOLB   C2D36262  21.736  14.698  40.882  0.1451 -0.2144  0.4008
 1511BOLB   C3D36263  21.777  14.804  40.436  0.0154  0.2130 -0.1254
 1511BOLB   C4D36264  21.808  14.442  40.048  0.3312  0.0273  0.2031
 1512BOLB   NC136265  14.397  19.524  35.710  0.1535  0.1482 -0.0153
 1512BOLB   PO136266  14.030  19.385  35.984 -0.0937 -0.3276  0.0699
 1512BOLB   GL136267  13.866  19.845  36.088  0.2241 -0.2230  0.4560
 1512BOLB   GL236268  13.864  20.178  35.915  0.2265  0.0066 -0.0982
 1512BOLB   C1A36269  13.616  20.102  36.345 -0.0647  0.2181  0.0949
 1512BOLB   C2A36270  13.577  20.258  36.765  0.1063 -0.0638 -0.0729
 1512BOLB   C3A36271  13.281  20.541  36.829 -0.3908 -0.0001  0.2581
 1512BOLB   C4A36272  13.211  20.943  36.758  0.0695 -0.0808 -0.1139
 1512BOLB   C1B36273  13.909  20.430  36.225  0.1346  0.2477  0.3397
 1512BOLB   C2B36274  14.032  20.809  36.278 -0.1221 -0.2319 -0.0620
 1512BOLB   C3B36275  14.208  21.204  36.183 -0.0864 -0.1015  0.0969
 1512BOLB   C4B36276  14.503  21.541  36.145 -0.0948 -0.1011  0.8562
 1512BOLB   NC236277  12.690  22.554  38.284 -0.0734 -0.1647  0.0829
 1512BOLB   PO236278  12.460  22.509  38.609  0.1275  0.0007  0.1002
 1512BOLB   GL336279  12.446  22.124  38.328 -0.1485  0.0241  0.0470
 1512BOLB   GL436280  12.648  21.844  38.345  0.2110 -0.0046 -0.2339
 1512BOLB   C1C36281  12.586  22.052  37.868 -0.4858  0.2397  0.0744
 1512BOLB   C2C36282  12.721  21.766  37.616 -0.1738  0.1332  0.1622
 1512BOLB   C3C36283  12.798  21.401  37.306  0.4511 -0.1607 -0.0056
 1512BOLB   C4C36284  12.939  21.158  36.975  0.2091  0.0740  0.1077
 1512BOLB   C1D36285  12.971  21.687  38.030 -0.0754  0.1376 -0.1751
 1512BOLB   C2D36286  12.990  21.287  37.753 -0.2627 -0.3831  0.0432
 1512BOLB   C3D36287  13.018  20.898  37.551  0.0661 -0.2015  0.1737
 1512BOLB   C4D36288  12.924  20.684  37.179  0.3558  0.0485  0.0056
 1513BOLB   NC136289  14.316  14.919  39.203  0.0010  0.4125  0.1143
 1513BOLB   PO136290  14.513  14.738  39.313 -0.1101 -0.0293 -0.2176
 1513BOLB   GL136291  14.464  14.846  39.768  0.0803 -0.2481 -0.2082
 1513BOLB   GL236292  14.129  14.697  39.851 -0.0183  0.0468 -0.3542
 1513BOLB   C1A36293  14.414  15.100  40.234 -0.0462 -0.1282 -0.0583
 1513BOLB   C2A36294  14.117  15.294  40.432 -0.0058 -0.1370  0.0339
 1513BOLB   C3A36295  14.017  15.470  40.928  0.1454 -0.2015 -0.3238
 1513BOLB   C4A36296  14.250  15.674  41.328  0.1135  0.0731  0.0458
 1513BOLB   C1B36297  13.895  14.847  40.193 -0.0269 -0.0321 -0.2410
 1513BOLB   C2B36298  13.750  14.980  40.566  0.0567 -0.0860  0.1506
 1513BOLB   C3B36299  13.708  15.069  41.028  0.0995  0.0026  0.0883
 1513BOLB   C4B36300  13.990  15.266  41.401  0.2990 -0.0597  0.1229
 1513BOLB   NC236301  12.394  16.112  42.529  0.3165 -0.1210 -0.1477
 1513BOLB   PO236302  12.414  15.601  42.510  0.4835 -0.3160  0.1866
 1513BOLB   GL336303  12.618  15.644  42.202 -0.1998 -0.2289  0.0174
 1513BOLB   GL436304  12.495  15.479  42.037  0.2221  0.1092  0.5033
 1513BOLB   C1C36305  13.098  15.630  41.959  0.0823  0.0203 -0.1409
 1513BOLB   C2C36306  13.367  15.900  42.107  0.1222 -0.2673 -0.0931
 1513BOLB   C3C36307  13.747  16.065  41.885  0.0737 -0.0122  0.1802
 1513BOLB   C4C36308  14.115  15.959  41.713  0.2355 -0.3911  0.2812
 1513BOLB   C1D36309  12.799  15.239  41.797 -0.0559 -0.1219  0.0235
 1513BOLB   C2D36310  13.021  15.116  41.492 -0.0438  0.1355  0.1841
 1513BOLB   C3D36311  12.957  14.857  41.143  0.4470  0.0500 -0.1708
 1513BOLB   C4D36312  12.918  14.598  40.777  0.0848 -0.0747 -0.2384
 1514BOLB   NC136313  15.240   9.363  20.645  0.3666 -0.2742 -0.0756
 1514BOLB   PO136314  14.848   9.460  20.791 -0.2193  0.0634 -0.2971
 1514BOLB   GL136315  14.494   9.239  20.387  0.2287  0.1758 -0.2113
 1514BOLB   GL236316  14.269   8.885  20.414  0.0648  0.0620 -0.0571
 1514BOLB   C1A36317  14.066   9.137  19.996  0.1457  0.0314 -0.1212
 1514BOLB   C2A36318  13.932   8.983  19.551 -0.0204  0.0576 -0.1209
 1514BOLB   C3A36319  13.757   8.652  19.368 -0.0005  0.0259  0.2326
 1514BOLB   C4A36320  13.392   8.446  19.206 -0.3269 -0.1562  0.2012
 1514BOLB   C1B36321  14.170   8.410  20.408  0.0184  0.3381  0.0169
 1514BOLB   C2B36322  14.145   8.119  20.096 -0.2558  0.0736  0.4545
 1514BOLB   C3B36323  14.092   7.826  19.694  0.1784  0.2296 -0.2445
 1514BOLB   C4B36324  13.911   7.978  19.338  0.0077 -0.2967  0.0787
 1514BOLB   NC236325  12.449   7.237  16.958  0.0216 -0.2062  0.1970
 1514BOLB   PO236326  12.268   7.316  17.352  0.1971  0.1266 -0.0776
 1514BOLB   GL336327  12.328   7.433  17.741  0.1812  0.2653 -0.0660
 1514BOLB   GL436328  12.042   7.443  17.936 -0.0283 -0.0398 -0.2598
 1514BOLB   C1C36329  12.578   7.415  18.202 -0.0974 -0.2485  0.0847
 1514BOLB   C2C36330  12.878   7.377  18.530  0.2526  0.2996 -0.1806
 1514BOLB   C3C36331  12.969   7.825  18.767 -0.1477  0.0185  0.0425
 1514BOLB   C4C36332  13.027   8.207  19.047  0.0707 -0.1635 -0.2156
 1514BOLB   C1D36333  12.082   7.478  18.405 -0.2665 -0.0125  0.0475
 1514BOLB   C2D36334  12.419   7.505  18.686 -0.0675 -0.0656  0.2799
 1514BOLB   C3D36335  12.550   7.675  19.090 -0.0327 -0.2842 -0.1721
 1514BOLB   C4D36336  12.744   8.011  19.430  0.1010  0.1589 -0.1365
 1515BOLB   NC136337  25.881   6.890  21.794 -0.0618 -0.0614  0.0209
 1515BOLB   PO136338  25.939   7.330  21.883 -0.2088  0.1594 -0.1774
 1515BOLB   GL136339  25.641   7.675  21.953 -0.0548  0.1304  0.0069
 1515BOLB   GL236340  25.308   7.705  21.984  0.0441 -0.5637  0.2325
 1515BOLB   C1A36341  25.513   7.839  22.423 -0.0740  0.0055 -0.3086
 1515BOLB   C2A36342  25.295   7.953  22.823  0.0721  0.0135  0.0481
 1515BOLB   C3A36343  25.050   8.022  23.264  0.3208 -0.1383  0.1911
 1515BOLB   C4A36344  25.078   8.047  23.651  0.0271 -0.0081  0.0312
 1515BOLB   C1B36345  25.016   8.086  21.868 -0.1593 -0.1418  0.0744
 1515BOLB   C2B36346  24.580   8.233  21.932 -0.2513 -0.3611 -0.4028
 1515BOLB   C3B36347  24.490   8.622  22.071  0.1996  0.2782 -0.4330
 1515BOLB   C4B36348  24.103   8.766  22.344  0.2110 -0.0675 -0.1599
 1515BOLB   NC236349   0.283   8.126  23.933 -0.2984  0.1091  0.2125
 1515BOLB   PO236350  27.015   8.404  24.158  0.1477  0.3084  0.0243
 1515BOLB   GL336351  26.573   8.609  24.182  0.0065 -0.0454 -0.1731
 1515BOLB   GL436352  26.576   8.571  23.870 -0.0802 -0.0577  0.0823
 1515BOLB   C1C36353  26.266   8.876  24.155 -0.0705  0.2727 -0.1079
 1515BOLB   C2C36354  25.803   8.753  24.192  0.0276 -0.1062 -0.1385
 1515BOLB   C3C36355  25.590   8.463  24.289  0.2140 -0.1904  0.0504
 1515BOLB   C4C36356  25.170   8.329  24.096  0.0859  0.1267  0.0580
 1515BOLB   C1D36357  26.168   8.603  23.722  0.0875  0.3070 -0.3486
 1515BOLB   C2D36358  25.700   8.499  23.749 -0.0478 -0.0913  0.1032
 1515BOLB   C3D36359  25.306   8.742  23.652 -0.2016  0.0269 -0.3189
 1515BOLB   C4D36360  24.935   8.885  23.507  0.0069 -0.2691  0.3067
 1516BOLB   NC136361  15.464   4.682  30.978  0.0335 -0.1148  0.0001
 1516BOLB   PO136362  15.611   4.456  30.597  0.1541  0.2480  0.0015
 1516BOLB   GL136363  15.411   4.111  30.615  0.5483  0.1708 -0.0169
 1516BOLB   GL236364  15.287   4.183  30.912  0.0637 -0.0213 -0.4716
 1516BOLB   C1A36365  15.367   3.664  30.422 -0.1017 -0.0258  0.0098
 1516BOLB   C2A36366  15.376   3.179  30.400 -0.0363 -0.0040 -0.5887
 1516BOLB   C3A36367  15.367   2.880  30.637 -0.0278  0.1055 -0.0596
 1516BOLB   C4A36368  15.672   2.581  30.733  0.1488  0.2180 -0.0534
 1516BOLB   C1B36369  15.314   3.677  31.060  0.0182 -0.0594 -0.2766
 1516BOLB   C2B36370  15.167   3.223  31.253 -0.1655 -0.0106  0.1840
 1516BOLB   C3B36371  15.459   2.859  31.150 -0.0444  0.0208  0.2303
 1516BOLB   C4B36372  15.666   2.544  31.329 -0.2426  0.1420 -0.0334
 1516BOLB   NC236373  16.422   0.178  30.848 -0.1506  0.0113 -0.0724
 1516BOLB   PO236374  15.988   0.344  30.839 -0.0617 -0.0449 -0.2469
 1516BOLB   GL336375  16.249   0.647  30.709 -0.2660 -0.0155 -0.3188
 1516BOLB   GL436376  16.524   0.498  30.485 -0.1426  0.0237  0.0376
 1516BOLB   C1C36377  16.448   1.074  30.620  0.2097  0.1160 -0.1755
 1516BOLB   C2C36378  16.434   1.513  30.642 -0.1087  0.3224  0.0173
 1516BOLB   C3C36379  16.258   1.864  30.812  0.0149 -0.3061  0.1738
 1516BOLB   C4C36380  16.022   2.199  30.680 -0.0361 -0.0682 -0.0109
 1516BOLB   C1D36381  16.698   0.814  30.322 -0.3165 -0.1022  0.0860
 1516BOLB   C2D36382  16.861   1.180  30.086  0.2609 -0.2782  0.0304
 1516BOLB   C3D36383  17.259   1.326  30.264 -0.1035 -0.1629  0.2842
 1516BOLB   C4D36384  17.492   1.553  30.610 -0.3155 -0.1061  0.0366
 1517BOLB   NC136385   8.417   8.925  27.768  0.0639  0.1350  0.0625
 1517BOLB   PO136386   8.176   9.231  27.891  0.0067 -0.1498 -0.0254
 1517BOLB   GL136387   7.746   9.146  27.866 -0.0673  0.0812 -0.0781
 1517BOLB   GL236388   7.761   8.903  28.051  0.0242 -0.0429  0.0592
 1517BOLB   C1A36389   7.473   8.935  27.632  0.2394  0.1198 -0.0869
 1517BOLB   C2A36390   7.127   8.714  27.712 -0.1634 -0.0197 -0.1477
 1517BOLB   C3A36391   6.744   8.600  28.010 -0.2351  0.2508 -0.3718
 1517BOLB   C4A36392   6.291   8.718  28.307 -0.0194 -0.4420 -0.1589
 1517BOLB   C1B36393   7.346   8.577  28.148 -0.0613  0.1344 -0.3478
 1517BOLB   C2B36394   7.098   8.227  28.312  0.2267 -0.0071  0.5224
 1517BOLB   C3B36395   7.038   8.162  28.852 -0.1355  0.1058 -0.1324
 1517BOLB   C4B36396   7.487   8.143  28.912  0.0709  0.2046  0.1200
 1517BOLB   NC236397   4.448   9.122  27.188 -0.0649 -0.3095  0.0048
 1517BOLB   PO236398   4.154   9.586  27.252  0.0049  0.2047 -0.4355
 1517BOLB   GL336399   4.591   9.586  27.425  0.0355 -0.2106  0.0501
 1517BOLB   GL436400   4.715   9.667  27.158 -0.3655  0.2506  0.1015
 1517BOLB   C1C36401   4.878   9.370  27.652  0.3037 -0.0581 -0.2252
 1517BOLB   C2C36402   5.295   9.204  27.777 -0.2223  0.0822  0.2377
 1517BOLB   C3C36403   5.564   9.072  28.111  0.0285 -0.3346 -0.0435
 1517BOLB   C4C36404   5.841   8.902  28.412 -0.2967 -0.3914 -0.1895
 1517BOLB   C1D36405   5.036   9.972  27.382 -0.1535 -0.1426 -0.0130
 1517BOLB   C2D36406   5.488   9.972  27.498  0.0142 -0.0695 -0.1802
 1517BOLB   C3D36407   5.934   9.745  27.571 -0.1340 -0.0959 -0.0582
 1517BOLB   C4D36408   6.183   9.421  27.620 -0.0981  0.1711  0.2341
 1518BOLB   NC136409  17.015   5.891  36.780 -0.3273 -0.1145 -0.0004
 1518BOLB   PO136410  16.827   5.729  36.397 -0.1384  0.0670  0.0271
 1518BOLB   GL136411  16.846   5.361  36.465  0.0303  0.0814  0.1476
 1518BOLB   GL236412  17.015   5.390  36.805 -0.0310 -0.1968 -0.0803
 1518BOLB   C1A36413  16.569   5.134  36.648 -0.2940  0.3077  0.0621
 1518BOLB   C2A36414  16.246   4.834  36.845 -0.1332  0.0013 -0.0481
 1518BOLB   C3A36415  16.280   4.320  36.918 -0.0037 -0.1027 -0.5456
 1518BOLB   C4A36416  16.162   3.970  37.103 -0.1054 -0.0268  0.0113
 1518BOLB   C1B36417  17.224   5.287  37.250  0.2234 -0.0550 -0.0998
 1518BOLB   C2B36418  17.609   5.349  37.599 -0.1182  0.0698  0.1051
 1518BOLB   C3B36419  18.018   5.373  37.782  0.0831  0.0670  0.0537
 1518BOLB   C4B36420  18.195   5.267  38.175  0.0417  0.0228  0.0952
 1518BOLB   NC236421  14.740   1.505  37.629  0.0567  0.0702  0.0525
 1518BOLB   PO236422  14.817   1.831  37.340 -0.0104 -0.2957  0.1201
 1518BOLB   GL336423  14.921   2.248  37.338  0.0981  0.1658 -0.1119
 1518BOLB   GL436424  14.697   2.438  37.385  0.0577  0.1010  0.0336
 1518BOLB   C1C36425  15.166   2.647  37.320 -0.2197 -0.1223  0.0065
 1518BOLB   C2C36426  15.353   3.022  37.337 -0.1085  0.1077  0.1192
 1518BOLB   C3C36427  15.554   3.477  37.288  0.0557  0.1203  0.3465
 1518BOLB   C4C36428  15.806   3.769  37.002 -0.1705  0.3122 -0.1145
 1518BOLB   C1D36429  14.540   2.474  36.993 -0.0657  0.2554  0.1102
 1518BOLB   C2D36430  14.455   2.670  36.558 -0.0900 -0.1528  0.1931
 1518BOLB   C3D36431  14.275   2.744  36.232 -0.2185  0.1633  0.0575
 1518BOLB   C4D36432  13.943   2.971  36.198  0.1312 -0.0709 -0.0649
 1519BOLB   NC136433  21.719   6.277  30.084  0.0566 -0.0727  0.3771
 1519BOLB   PO136434  21.867   6.453  29.639 -0.2902  0.3972  0.4527
 1519BOLB   GL136435  22.241   6.229  29.612  0.2125 -0.0582 -0.0738
 1519BOLB   GL236436  22.124   6.039  29.705 -0.0218  0.0435 -0.0603
 1519BOLB   C1A36437  22.602   6.303  29.812 -0.3941  0.0924  0.0649
 1519BOLB   C2A36438  22.864   5.999  29.968 -0.1402  0.2869 -0.1478
 1519BOLB   C3A36439  23.202   5.704  30.119  0.1343 -0.0192 -0.0875
 1519BOLB   C4A36440  23.474   5.515  29.805 -0.3115 -0.1921 -0.2420
 1519BOLB   C1B36441  22.388   5.917  30.083 -0.2239  0.1909 -0.0022
 1519BOLB   C2B36442  22.610   5.741  30.350 -0.1519  0.1435 -0.2886
 1519BOLB   C3B36443  22.996   5.690  30.603  0.1023 -0.3837  0.1929
 1519BOLB   C4B36444  23.342   5.607  30.663 -0.1184  0.1922  0.2074
 1519BOLB   NC236445  25.673   4.631  29.783  0.2218  0.0044 -0.1305
 1519BOLB   PO236446  25.570   4.329  29.507 -0.0850  0.0496  0.4852
 1519BOLB   GL336447  25.195   4.531  29.653 -0.1552 -0.3832  0.0014
 1519BOLB   GL436448  25.140   4.323  29.921  0.0005  0.1436  0.1230
 1519BOLB   C1C36449  24.784   4.686  29.650 -0.2308  0.0347  0.4112
 1519BOLB   C2C36450  24.477   5.004  29.435 -0.0681  0.0699  0.0160
 1519BOLB   C3C36451  24.118   5.279  29.500  0.3196  0.1241 -0.2559
 1519BOLB   C4C36452  23.649   5.398  29.554  0.2477  0.0181 -0.3763
 1519BOLB   C1D36453  24.966   4.689  30.094  0.0928 -0.0720 -0.2600
 1519BOLB   C2D36454  24.784   5.086  29.965  0.1501 -0.1094  0.2588
 1519BOLB   C3D36455  24.436   5.368  29.901 -0.0593 -0.1335 -0.0785
 1519BOLB   C4D36456  24.209   5.837  29.925  0.1487 -0.2719  0.0045
 1520BOLB   NC136457  11.425  17.371  23.031  0.0243  0.0471 -0.0075
 1520BOLB   PO136458  11.270  17.712  23.277  0.1516  0.0513  0.0092
 1520BOLB   GL136459  11.031  17.984  23.168 -0.2759 -0.1075  0.0768
 1520BOLB   GL236460  11.032  18.307  23.236  0.1024  0.1428  0.0560
 1520BOLB   C1A36461  10.923  18.022  22.792 -0.1726 -0.2517  0.0955
 1520BOLB   C2A36462  10.730  18.264  22.488  0.1455  0.2757 -0.2204
 1520BOLB   C3A36463  10.426  18.387  22.150  0.1489 -0.3540 -0.4476
 1520BOLB   C4A36464  10.127  18.279  21.873  0.0923 -0.2155  0.2351
 1520BOLB   C1B36465  10.812  18.570  22.946  0.0020 -0.1372 -0.3185
 1520BOLB   C2B36466  10.359  18.468  22.720  0.1094  0.1839  0.2150
 1520BOLB   C3B36467  10.064  18.735  22.465 -0.2783  0.0673  0.1613
 1520BOLB   C4B36468   9.705  19.032  22.411 -0.2181  0.1667  0.1025
 1520BOLB   NC236469   9.346  19.098  19.776  0.0700  0.2833  0.3976
 1520BOLB   PO236470   9.589  18.821  19.859 -0.1505  0.1334  0.2651
 1520BOLB   GL336471   9.948  18.651  20.068  0.0600  0.0526  0.0643
 1520BOLB   GL436472  10.022  18.422  19.944  0.2228  0.1412  0.1790
 1520BOLB   C1C36473  10.217  18.708  20.455 -0.0663 -0.0185  0.3141
 1520BOLB   C2C36474  10.392  18.706  20.803  0.2042  0.0659  0.0881
 1520BOLB   C3C36475  10.242  18.376  21.146 -0.1226 -0.1452  0.0585
 1520BOLB   C4C36476  10.147  18.081  21.452  0.1904 -0.1427 -0.1717
 1520BOLB   C1D36477  10.435  18.455  20.080 -0.2850  0.0410 -0.1730
 1520BOLB   C2D36478  10.650  18.385  20.479 -0.0887  0.0250 -0.0288
 1520BOLB   C3D36479  10.871  18.087  20.662  0.0495 -0.2827  0.1531
 1520BOLB   C4D36480  11.237  18.124  20.914 -0.2162  0.2887  0.0024
 1521BOLB   NC136481  10.608  20.191  29.048 -0.1413  0.1635 -0.3850
 1521BOLB   PO136482  10.900  20.549  28.918 -0.1861 -0.0803 -0.1321
 1521BOLB   GL136483  10.747  20.779  28.722  0.0804  0.0874  0.1685
 1521BOLB   GL236484  10.874  21.098  28.964 -0.2481 -0.1847 -0.1112
 1521BOLB   C1A36485  10.662  21.167  28.527 -0.1941  0.1866 -0.0597
 1521BOLB   C2A36486  10.789  21.538  28.598 -0.1434 -0.0657 -0.0373
 1521BOLB   C3A36487  10.997  21.891  28.566 -0.0261 -0.3051  0.2275
 1521BOLB   C4A36488  10.872  22.266  28.645  0.0151  0.0288  0.0807
 1521BOLB   C1B36489  10.526  21.360  28.941 -0.0315 -0.2778  0.1237
 1521BOLB   C2B36490  10.263  21.447  28.656 -0.1208  0.3163  0.2111
 1521BOLB   C3B36491  10.026  21.658  28.310 -0.0455  0.1860 -0.1295
 1521BOLB   C4B36492   9.661  21.877  28.497  0.1979 -0.1594 -0.4422
 1521BOLB   NC236493   8.276  23.761  29.115  0.1096  0.1693  0.0088
 1521BOLB   PO236494   8.729  23.803  28.923  0.1817 -0.1534  0.1035
 1521BOLB   GL336495   8.910  23.432  28.730  0.4445  0.0140  0.0411
 1521BOLB   GL436496   8.799  23.022  28.757 -0.0711  0.2867 -0.2046
 1521BOLB   C1C36497   9.292  23.237  28.670 -0.2913  0.0086 -0.2678
 1521BOLB   C2C36498   9.596  22.829  28.724 -0.0875 -0.0254  0.0809
 1521BOLB   C3C36499  10.076  22.717  28.723 -0.3075 -0.4526 -0.1087
 1521BOLB   C4C36500  10.444  22.438  28.588 -0.0814 -0.0794  0.5295
 1521BOLB   C1D36501   8.792  22.636  28.948  0.0448 -0.3262 -0.0522
 1521BOLB   C2D36502   9.189  22.332  29.025  0.2754  0.2339  0.1656
 1521BOLB   C3D36503   9.611  22.461  29.072 -0.0165 -0.1657 -0.0076
 1521BOLB   C4D36504   9.804  22.324  28.709 -0.0631 -0.0485 -0.3403
 1522BOLB   NC136505  14.720  20.491  25.816  0.2065 -0.0250 -0.1118
 1522BOLB   PO136506  14.349  20.551  25.652 -0.5580 -0.3403 -0.1530
 1522BOLB   GL136507  14.503  20.882  25.372  0.1984 -0.0786 -0.1443
 1522BOLB   GL236508  14.621  21.179  25.560 -0.2640  0.1246 -0.3161
 1522BOLB   C1A36509  14.496  21.114  25.003 -0.2269 -0.3009 -0.1169
 1522BOLB   C2A36510  14.580  21.484  24.732  0.2020 -0.1060 -0.1396
 1522BOLB   C3A36511  14.744  21.804  24.428 -0.0334 -0.1766 -0.0911
 1522BOLB   C4A36512  14.848  22.079  24.154 -0.0781  0.1880 -0.3579
 1522BOLB   C1B36513  14.581  21.546  25.301 -0.1054  0.0832  0.5056
 1522BOLB   C2B36514  14.739  21.866  24.980  0.2837  0.2288 -0.0524
 1522BOLB   C3B36515  14.619  22.211  24.740 -0.1815 -0.0948 -0.0502
 1522BOLB   C4B36516  14.436  22.341  24.297  0.0306 -0.0003 -0.0107
 1522BOLB   NC236517  15.405  24.123  23.042  0.0042 -0.3172 -0.1381
 1522BOLB   PO236518  15.755  23.951  23.204  0.3700 -0.0659  0.1254
 1522BOLB   GL336519  15.603  23.626  23.025  0.2869 -0.0621 -0.2257
 1522BOLB   GL436520  15.820  23.398  22.956  0.1732  0.1598  0.1062
 1522BOLB   C1C36521  15.182  23.323  23.226  0.0521 -0.1628  0.2604
 1522BOLB   C2C36522  14.867  23.060  23.337  0.0563 -0.1047  0.1275
 1522BOLB   C3C36523  14.896  22.739  23.698 -0.0778  0.1420  0.1069
 1522BOLB   C4C36524  14.795  22.320  23.847  0.0650  0.1181  0.3143
 1522BOLB   C1D36525  15.783  23.022  22.986  0.0975 -0.3249  0.1241
 1522BOLB   C2D36526  15.654  22.699  23.085 -0.2485  0.0032 -0.1878
 1522BOLB   C3D36527  15.582  22.389  23.393 -0.2838 -0.0655  0.2717
 1522BOLB   C4D36528  15.386  22.162  23.796 -0.0290 -0.0604  0.1111
 1523BOLB   NC136529  17.444  24.595  27.064 -0.1908 -0.3645 -0.1700
 1523BOLB   PO136530  17.493  24.534  27.536  0.0988 -0.4750  0.2316
 1523BOLB   GL136531  17.538  24.089  27.789 -0.2299  0.1402  0.2155
 1523BOLB   GL236532  17.684  24.139  28.073 -0.3469  0.1728 -0.1063
 1523BOLB   C1A36533  17.380  23.760  28.050  0.1071 -0.0134  0.1343
 1523BOLB   C2A36534  17.389  23.444  28.345  0.1304 -0.0641 -0.0587
 1523BOLB   C3A36535  17.437  23.069  28.634 -0.1977 -0.3210  0.1748
 1523BOLB   C4A36536  17.261  22.665  28.674  0.2376  0.2309 -0.2821
 1523BOLB   C1B36537  17.854  23.719  27.769  0.1655  0.1218  0.0588
 1523BOLB   C2B36538  17.651  23.411  27.863  0.2906  0.2233  0.1501
 1523BOLB   C3B36539  17.582  23.054  28.074  0.0152  0.1996 -0.3050
 1523BOLB   C4B36540  17.682  22.695  28.282  0.2763 -0.0865  0.3411
 1523BOLB   NC236541  15.941  21.061  29.659  0.4593  0.0916  0.3092
 1523BOLB   PO236542  16.282  20.892  29.908  0.1333  0.2812 -0.1197
 1523BOLB   GL336543  16.434  21.110  29.561 -0.0059  0.1148  0.2742
 1523BOLB   GL436544  16.701  21.115  29.476 -0.0048  0.3386 -0.2116
 1523BOLB   C1C36545  16.455  21.551  29.461  0.0945 -0.1248  0.2629
 1523BOLB   C2C36546  16.546  21.743  29.088  0.1184  0.0546 -0.0217
 1523BOLB   C3C36547  16.914  22.086  28.994  0.0155  0.4376  0.1905
 1523BOLB   C4C36548  17.145  22.362  28.920  0.0810  0.3966  0.1635
 1523BOLB   C1D36549  16.899  21.433  29.273  0.0626 -0.1907 -0.0131
 1523BOLB   C2D36550  17.233  21.754  29.235 -0.0677 -0.0177 -0.1566
 1523BOLB   C3D36551  17.490  22.109  29.180 -0.3836  0.0219 -0.0018
 1523BOLB   C4D36552  17.593  22.525  29.093  0.2999  0.2155 -0.4812
 1524BOLB   NC136553  13.151   8.032  37.834 -0.2503  0.0302  0.0672
 1524BOLB   PO136554  13.597   8.033  37.665  0.0160  0.0369 -0.0739
 1524BOLB   GL136555  13.530   7.701  38.023  0.2772 -0.2521 -0.2945
 1524BOLB   GL236556  13.703   7.554  38.162  0.1421 -0.0763 -0.2961
 1524BOLB   C1A36557  13.220   7.478  38.249  0.1119  0.0942 -0.2146
 1524BOLB   C2A36558  12.948   7.354  38.526  0.0801  0.2326 -0.0448
 1524BOLB   C3A36559  12.818   6.998  38.605 -0.0559 -0.6569 -0.1580
 1524BOLB   C4A36560  12.697   6.767  39.023  0.1193 -0.2750  0.2637
 1524BOLB   C1B36561  13.705   7.405  38.555 -0.0282  0.0904  0.0012
 1524BOLB   C2B36562  13.655   7.284  39.016  0.0721  0.2190  0.2501
 1524BOLB   C3B36563  13.611   7.209  39.484 -0.0382 -0.2918  0.0343
 1524BOLB   C4B36564  13.425   7.067  39.766  0.1148 -0.2470 -0.0488
 1524BOLB   NC236565  12.293   4.737  40.356  0.0643  0.2557  0.0892
 1524BOLB   PO236566  12.028   5.038  40.586  0.2575  0.0379  0.1471
 1524BOLB   GL336567  12.026   5.365  40.216  0.0039 -0.3918 -0.1808
 1524BOLB   GL436568  12.266   5.250  39.988 -0.1855 -0.1923 -0.0167
 1524BOLB   C1C36569  12.244   5.766  40.085  0.2466 -0.0525 -0.1880
 1524BOLB   C2C36570  12.369   6.086  39.820 -0.0104 -0.1966 -0.1245
 1524BOLB   C3C36571  12.345   6.454  39.683 -0.0474  0.1345 -0.2289
 1524BOLB   C4C36572  12.499   6.617  39.254  0.1228 -0.1785  0.1395
 1524BOLB   C1D36573  12.534   5.548  39.710 -0.1354  0.2371  0.1812
 1524BOLB   C2D36574  12.794   5.822  39.501 -0.1201  0.0617  0.2508
 1524BOLB   C3D36575  13.137   5.967  39.321  0.0177 -0.1010 -0.2790
 1524BOLB   C4D36576  13.319   6.056  38.974 -0.1514  0.2542  0.0129
 1525BOLB   NC136577  23.198   8.689  30.545  0.0102 -0.2125  0.0715
 1525BOLB   PO136578  22.982   8.998  30.933 -0.0509  0.1601 -0.2764
 1525BOLB   GL136579  23.333   8.740  31.046 -0.0459 -0.2727 -0.1505
 1525BOLB   GL236580  23.222   8.458  31.119  0.0994  0.2577  0.1017
 1525BOLB   C1A36581  23.758   8.566  30.968  0.0387 -0.0022 -0.1579
 1525BOLB   C2A36582  24.113   8.315  31.212  0.5051 -0.0583 -0.1624
 1525BOLB   C3A36583  24.301   8.069  31.404  0.0574 -0.4159  0.1096
 1525BOLB   C4A36584  24.629   7.885  31.547  0.2377 -0.3336 -0.5811
 1525BOLB   C1B36585  23.491   8.156  30.981  0.0590 -0.0302  0.0744
 1525BOLB   C2B36586  23.821   7.877  31.153  0.0614  0.3370  0.3122
 1525BOLB   C3B36587  24.023   7.555  31.458  0.0920  0.0342  0.0718
 1525BOLB   C4B36588  24.209   7.311  31.678 -0.1331  0.0751 -0.4728
 1525BOLB   NC236589  26.544   6.520  32.383 -0.2127 -0.0426  0.1635
 1525BOLB   PO236590  26.594   6.462  31.895  0.0542 -0.5257  0.3248
 1525BOLB   GL336591  26.260   6.736  31.966 -0.1366  0.1374 -0.2325
 1525BOLB   GL436592  26.232   6.990  31.686 -0.1503  0.1308  0.2333
 1525BOLB   C1C36593  25.862   6.717  32.083 -0.1964  0.0879  0.0481
 1525BOLB   C2C36594  25.420   6.967  31.994 -0.0938  0.0231  0.1320
 1525BOLB   C3C36595  24.929   7.176  31.945 -0.3449  0.1332 -0.2903
 1525BOLB   C4C36596  24.686   7.558  31.797 -0.1920 -0.0002 -0.1072
 1525BOLB   C1D36597  25.831   6.901  31.568 -0.1875  0.2673  0.0575
 1525BOLB   C2D36598  25.544   7.202  31.477 -0.0020 -0.0652  0.0588
 1525BOLB   C3D36599  25.190   7.463  31.686  0.1278  0.1429  0.0203
 1525BOLB   C4D36600  25.136   7.873  31.641  0.0206 -0.3146 -0.1352
 1526BOLB   NC136601   8.842  10.307  26.412  0.0732  0.0682 -0.0560
 1526BOLB   PO136602   8.735   9.993  26.604  0.3390 -0.0012  0.0721
 1526BOLB   GL136603   8.514   9.867  26.272 -0.0952  0.0807  0.3036
 1526BOLB   GL236604   8.493   9.941  26.053 -0.1182 -0.1456 -0.0605
 1526BOLB   C1A36605   8.180   9.627  26.191  0.3263 -0.0762 -0.0854
 1526BOLB   C2A36606   7.858   9.313  26.194  0.1711  0.2471  0.2801
 1526BOLB   C3A36607   7.564   9.189  26.429  0.1589 -0.0851  0.0824
 1526BOLB   C4A36608   7.356   8.815  26.556  0.0100  0.0900  0.1055
 1526BOLB   C1B36609   8.463  10.029  25.683  0.0269  0.0137 -0.0435
 1526BOLB   C2B36610   8.266  10.140  25.266 -0.0550  0.1894  0.2419
 1526BOLB   C3B36611   7.921  10.050  25.265 -0.0536 -0.3903 -0.0097
 1526BOLB   C4B36612   7.684   9.795  25.140  0.0368 -0.3607  0.0197
 1526BOLB   NC236613   5.299   7.219  25.528 -0.1046  0.1033  0.2184
 1526BOLB   PO236614   5.617   7.448  25.712 -0.0239  0.0139 -0.0165
 1526BOLB   GL336615   5.811   7.825  25.597  0.2470  0.0978 -0.4273
 1526BOLB   GL436616   5.727   8.059  25.469 -0.2953  0.0436  0.1670
 1526BOLB   C1C36617   6.094   7.964  25.934  0.1035  0.1400  0.0405
 1526BOLB   C2C36618   6.448   8.079  26.050 -0.2753 -0.1998  0.1153
 1526BOLB   C3C36619   6.795   8.149  26.357  0.1896  0.1065  0.0358
 1526BOLB   C4C36620   7.164   8.407  26.523 -0.0586  0.3652  0.1387
 1526BOLB   C1D36621   6.168   8.253  25.560 -0.2024 -0.1767 -0.1176
 1526BOLB   C2D36622   6.383   8.640  25.576  0.0094 -0.0418  0.1440
 1526BOLB   C3D36623   6.535   9.021  25.871 -0.1173  0.3415  0.1972
 1526BOLB   C4D36624   6.836   9.264  25.953  0.0398  0.0163 -0.1518
 1527BOLB   NC136625  23.102  14.665  33.274 -0.0094  0.0307 -0.1712
 1527BOLB   PO136626  23.159  14.842  33.676  0.1386  0.4073 -0.0122
 1527BOLB   GL136627  23.571  14.712  33.690 -0.0979 -0.1398  0.1902
 1527BOLB   GL236628  23.521  14.470  33.547 -0.0881  0.0420 -0.2262
 1527BOLB   C1A36629  23.816  15.011  33.940 -0.0782 -0.3021 -0.3150
 1527BOLB   C2A36630  24.008  15.280  33.905 -0.3706 -0.2769 -0.0776
 1527BOLB   C3A36631  24.150  15.682  33.754 -0.1287  0.2545 -0.1279
 1527BOLB   C4A36632  24.530  15.611  33.815 -0.3547  0.0702 -0.1551
 1527BOLB   C1B36633  23.932  14.444  33.621  0.2768 -0.0780  0.0310
 1527BOLB   C2B36634  24.359  14.166  33.653 -0.1448  0.1697 -0.0512
 1527BOLB   C3B36635  24.755  14.272  33.470 -0.0000  0.1473  0.1828
 1527BOLB   C4B36636  25.074  14.093  33.309 -0.0204  0.2991 -0.0625
 1527BOLB   NC236637  25.831  17.532  35.211  0.2704 -0.1251 -0.0197
 1527BOLB   PO236638  25.988  17.094  35.156  0.2364 -0.2958 -0.1517
 1527BOLB   GL336639  25.617  16.912  35.054  0.3374  0.0441 -0.0474
 1527BOLB   GL436640  25.449  16.713  35.347 -0.0010  0.0621  0.0949
 1527BOLB   C1C36641  25.396  16.648  34.839  0.2408 -0.0517  0.0270
 1527BOLB   C2C36642  25.368  16.294  34.567  0.1904 -0.0908  0.0959
 1527BOLB   C3C36643  25.214  15.925  34.318  0.4023 -0.1960  0.1550
 1527BOLB   C4C36644  24.906  15.758  34.023  0.0064  0.0306  0.1230
 1527BOLB   C1D36645  25.336  16.247  35.296  0.4061 -0.0500  0.4014
 1527BOLB   C2D36646  24.971  15.872  35.210  0.0775  0.4006 -0.0108
 1527BOLB   C3D36647  24.701  15.556  35.283  0.0297 -0.1441  0.1361
 1527BOLB   C4D36648  24.505  15.187  35.173  0.3115 -0.2683 -0.1273
 1528BOLB   NC136649   8.743   9.417  27.060  0.2293  0.1568  0.1242
 1528BOLB   PO136650   8.630   9.017  27.298 -0.4518  0.0006 -0.1002
 1528BOLB   GL136651   8.355   9.123  26.925  0.0285 -0.0567  0.0901
 1528BOLB   GL236652   8.128   9.370  26.814  0.0298  0.3502 -0.5140
 1528BOLB   C1A36653   8.234   8.930  26.596 -0.0971 -0.0002 -0.0464
 1528BOLB   C2A36654   8.293   8.653  26.281  0.0856 -0.0916 -0.0903
 1528BOLB   C3A36655   8.165   8.504  25.786  0.1596 -0.5352  0.0059
 1528BOLB   C4A36656   7.976   8.557  25.435  0.1542  0.1336 -0.0082
 1528BOLB   C1B36657   7.834   9.693  26.631 -0.0580  0.0196 -0.2074
 1528BOLB   C2B36658   7.593   9.749  26.306 -0.1719  0.0080 -0.0142
 1528BOLB   C3B36659   7.294   9.581  26.049  0.0523 -0.3142 -0.2447
 1528BOLB   C4B36660   6.956   9.692  25.732  0.0786  0.2296 -0.2313
 1528BOLB   NC236661   5.858   8.753  23.732 -0.0451 -0.0419  0.3730
 1528BOLB   PO236662   6.133   8.496  23.799  0.3232  0.0370 -0.0227
 1528BOLB   GL336663   6.185   8.779  24.115 -0.2263  0.0933 -0.0209
 1528BOLB   GL436664   6.167   9.107  23.991 -0.2083 -0.2107  0.0385
 1528BOLB   C1C36665   6.454   8.688  24.525  0.2896 -0.1250 -0.1807
 1528BOLB   C2C36666   6.795   8.628  24.756 -0.2342  0.0469 -0.2976
 1528BOLB   C3C36667   7.236   8.678  25.037  0.0780  0.1634  0.2634
 1528BOLB   C4C36668   7.521   8.696  25.442 -0.5300 -0.0535  0.2843
 1528BOLB   C1D36669   6.664   9.041  24.032  0.1541  0.1052  0.1724
 1528BOLB   C2D36670   7.070   9.009  23.891 -0.2200  0.2150 -0.0120
 1528BOLB   C3D36671   7.541   9.015  23.929  0.0205 -0.0204  0.1170
 1528BOLB   C4D36672   7.966   9.381  24.063  0.1088  0.2539 -0.3047
 1529BOLB   NC136673  11.570  20.314  26.556  0.1815  0.1828 -0.1364
 1529BOLB   PO136674  11.420  20.029  26.267 -0.0486 -0.3786  0.1355
 1529BOLB   GL136675  11.089  20.263  26.176  0.0025 -0.2212  0.1699
 1529BOLB   GL236676  11.049  20.376  26.462  0.2653 -0.2891  0.0528
 1529BOLB   C1A36677  10.837  20.656  26.100  0.2579  0.0889  0.0638
 1529BOLB   C2A36678  10.538  20.981  26.251 -0.1582  0.3423  0.2716
 1529BOLB   C3A36679  10.103  20.951  25.989  0.2413  0.0002  0.0995
 1529BOLB   C4A36680   9.769  21.289  25.993 -0.0410  0.0481  0.0674
 1529BOLB   C1B36681  10.827  20.767  26.644  0.3905 -0.0335 -0.1472
 1529BOLB   C2B36682  10.846  21.162  26.603 -0.2801 -0.1699  0.3900
 1529BOLB   C3B36683  10.928  21.587  26.478 -0.2808  0.2451  0.0954
 1529BOLB   C4B36684  11.114  21.904  26.675 -0.1135 -0.2742  0.1770
 1529BOLB   NC236685   8.445  23.569  26.008 -0.0675 -0.0808  0.1416
 1529BOLB   PO236686   8.722  23.322  26.014 -0.0008  0.1056 -0.0188
 1529BOLB   GL336687   9.041  23.050  26.159  0.1591 -0.0687  0.0397
 1529BOLB   GL436688   9.168  23.230  26.375 -0.1276 -0.0766 -0.1802
 1529BOLB   C1C36689   9.334  22.681  26.236 -0.0775 -0.1915 -0.4745
 1529BOLB   C2C36690   9.304  22.296  26.342 -0.1051 -0.1016 -0.0451
 1529BOLB   C3C36691   9.511  21.856  26.182 -0.0831 -0.1809  0.2652
 1529BOLB   C4C36692   9.573  21.537  26.134  0.1615 -0.2946  0.0242
 1529BOLB   C1D36693   9.437  22.806  26.692 -0.0682 -0.1357 -0.1539
 1529BOLB   C2D36694   9.262  22.459  26.889  0.0855  0.0111 -0.2062
 1529BOLB   C3D36695   9.289  22.031  26.793  0.0609 -0.0928  0.3454
 1529BOLB   C4D36696   9.515  21.628  26.702 -0.0481 -0.1895  0.2451
 1530BOLB   NC136697  17.568  15.123  38.640 -0.0009  0.0174 -0.1723
 1530BOLB   PO136698  17.726  14.820  39.020  0.0937  0.1457  0.2211
 1530BOLB   GL136699  17.981  14.763  39.439  0.0420 -0.0267  0.0417
 1530BOLB   GL236700  18.097  14.458  39.542  0.0613  0.0380 -0.0965
 1530BOLB   C1A36701  18.041  14.961  39.830 -0.1610 -0.0370 -0.1261
 1530BOLB   C2A36702  17.996  15.183  40.178  0.3466  0.1497 -0.0018
 1530BOLB   C3A36703  17.995  15.582  40.319 -0.3377  0.0085  0.0449
 1530BOLB   C4A36704  18.076  15.982  40.476 -0.0869  0.0584 -0.1393
 1530BOLB   C1B36705  18.444  14.755  39.650 -0.2201  0.2098 -0.1751
 1530BOLB   C2B36706  18.859  14.860  39.882 -0.0488 -0.0578  0.0768
 1530BOLB   C3B36707  19.316  14.719  39.975 -0.2278 -0.2677 -0.0006
 1530BOLB   C4B36708  19.804  14.844  40.001 -0.1115 -0.0190 -0.1017
 1530BOLB   NC236709  19.339  17.342  42.062 -0.1366  0.2282  0.2592
 1530BOLB   PO236710  19.548  17.587  41.824  0.0910  0.0015  0.0260
 1530BOLB   GL336711  19.249  17.433  41.586 -0.0111 -0.2905 -0.1254
 1530BOLB   GL436712  19.461  17.158  41.532  0.2834 -0.2012 -0.4374
 1530BOLB   C1C36713  18.996  17.155  41.323 -0.0839  0.1818  0.2049
 1530BOLB   C2C36714  18.716  16.752  41.199 -0.0650 -0.3466 -0.2117
 1530BOLB   C3C36715  18.637  16.319  40.992 -0.1714  0.0901  0.0551
 1530BOLB   C4C36716  18.230  16.276  40.790 -0.4517 -0.1938 -0.1306
 1530BOLB   C1D36717  19.442  17.145  41.171  0.1641 -0.2453 -0.0147
 1530BOLB   C2D36718  19.255  16.937  40.763  0.1790 -0.1373  0.0535
 1530BOLB   C3D36719  19.149  17.040  40.391 -0.1016 -0.1629  0.1380
 1530BOLB   C4D36720  18.970  17.112  39.948 -0.1107 -0.0168 -0.1011
 1531BOLB   NC136721  15.720  12.870  39.640  0.3620 -0.3659 -0.0535
 1531BOLB   PO136722  16.048  12.989  39.988 -0.0092  0.1223  0.1772
 1531BOLB   GL136723  16.141  12.884  40.347 -0.2656 -0.2380 -0.0691
 1531BOLB   GL236724  16.260  12.680  40.622 -0.0583  0.1080 -0.1680
 1531BOLB   C1A36725  15.912  12.969  40.692  0.0015 -0.0408 -0.0423
 1531BOLB   C2A36726  15.861  13.112  41.231 -0.1182 -0.0320 -0.1364
 1531BOLB   C3A36727  15.675  13.453  41.403  0.1268 -0.2680 -0.1604
 1531BOLB   C4A36728  15.792  13.796  41.528  0.0635  0.2766 -0.0047
 1531BOLB   C1B36729  16.140  12.664  41.004  0.0153  0.1199  0.0595
 1531BOLB   C2B36730  16.091  12.758  41.503 -0.0118 -0.2133 -0.1657
 1531BOLB   C3B36731  15.705  12.981  41.702 -0.0062 -0.0563 -0.0449
 1531BOLB   C4B36732  15.495  13.295  41.865  0.1081  0.0366 -0.1810
 1531BOLB   NC236733  16.719  14.127  43.518  0.0693  0.2137 -0.2291
 1531BOLB   PO236734  16.530  14.524  43.680  0.0842  0.0631  0.0342
 1531BOLB   GL336735  16.503  14.587  43.171  0.0302  0.1088  0.2870
 1531BOLB   GL436736  16.748  14.880  43.034 -0.0881  0.1864  0.0044
 1531BOLB   C1C36737  16.238  14.521  42.816  0.3294 -0.0170  0.0156
 1531BOLB   C2C36738  15.782  14.323  42.570 -0.3234  0.0037 -0.2265
 1531BOLB   C3C36739  15.593  14.401  42.152 -0.0077 -0.2418  0.0415
 1531BOLB   C4C36740  15.660  14.162  41.830  0.2210 -0.0489  0.4164
 1531BOLB   C1D36741  16.499  14.854  42.629  0.0707 -0.0702  0.2392
 1531BOLB   C2D36742  16.673  15.122  42.232  0.1492 -0.2690 -0.0602
 1531BOLB   C3D36743  16.722  15.140  41.784 -0.0314  0.0191  0.0363
 1531BOLB   C4D36744  16.759  15.232  41.335 -0.1581 -0.1745  0.5068
 1532BOLB   NC136745   4.752  17.235  24.761  0.1649 -0.0346  0.1425
 1532BOLB   PO136746   4.953  16.879  24.484 -0.0421 -0.3248  0.3158
 1532BOLB   GL136747   5.278  16.632  24.746 -0.2395 -0.1069  0.2034
 1532BOLB   GL236748   5.333  16.351  24.746  0.1125  0.0143  0.0695
 1532BOLB   C1A36749   5.690  16.779  24.912 -0.2232 -0.2731 -0.0652
 1532BOLB   C2A36750   6.045  16.889  24.866  0.1667 -0.0787  0.0543
 1532BOLB   C3A36751   6.258  16.807  24.464  0.0849  0.3085 -0.1812
 1532BOLB   C4A36752   6.644  16.889  24.347 -0.3432 -0.0795 -0.0260
 1532BOLB   C1B36753   5.806  16.369  24.712  0.0083  0.2348  0.1190
 1532BOLB   C2B36754   6.199  16.249  24.752 -0.0548 -0.4618 -0.2035
 1532BOLB   C3B36755   6.631  16.126  24.763 -0.0746  0.0804 -0.0073
 1532BOLB   C4B36756   6.937  16.328  25.087  0.1611  0.0350  0.4123
 1532BOLB   NC236757   6.060  18.701  22.972 -0.1566  0.1097  0.0337
 1532BOLB   PO236758   6.023  18.725  23.344 -0.1521  0.0371 -0.0045
 1532BOLB   GL336759   6.380  18.592  23.685 -0.5128  0.2810 -0.0325
 1532BOLB   GL436760   6.578  18.798  23.836  0.1567 -0.4610  0.4716
 1532BOLB   C1C36761   6.552  18.181  23.800 -0.2045 -0.4166 -0.3025
 1532BOLB   C2C36762   6.531  17.768  23.573 -0.0044  0.0301  0.1377
 1532BOLB   C3C36763   6.676  17.326  23.645 -0.0956  0.0217 -0.0101
 1532BOLB   C4C36764   6.650  17.028  24.000  0.4047  0.0533  0.0874
 1532BOLB   C1D36765   7.004  18.824  23.778  0.3588  0.1161 -0.1110
 1532BOLB   C2D36766   7.384  18.607  23.984  0.1122 -0.1623  0.0789
 1532BOLB   C3D36767   7.616  18.595  24.314 -0.3032 -0.1414  0.1846
 1532BOLB   C4D36768   7.570  18.462  24.678 -0.2899  0.0808  0.4545
 1533BOLB   NC136769  10.169   8.506  34.105  0.0502 -0.0055  0.0335
 1533BOLB   PO136770   9.898   8.131  33.832 -0.0869  0.0869 -0.0260
 1533BOLB   GL136771   9.728   7.779  33.943 -0.1747  0.0506 -0.1644
 1533BOLB   GL236772   9.836   7.382  33.744 -0.0401 -0.1684 -0.1756
 1533BOLB   C1A36773   9.455   7.745  34.190 -0.2038  0.0239 -0.0203
 1533BOLB   C2A36774   9.090   7.553  34.181  0.1246  0.1134  0.5167
 1533BOLB   C3A36775   8.600   7.366  34.279  0.0481  0.1418 -0.0204
 1533BOLB   C4A36776   8.370   7.099  34.714  0.0307 -0.1327 -0.0077
 1533BOLB   C1B36777   9.711   6.996  33.734  0.1989 -0.1044 -0.0820
 1533BOLB   C2B36778   9.471   6.644  33.818 -0.0522  0.2340  0.4277
 1533BOLB   C3B36779   9.325   6.237  33.785  0.0555 -0.4350  0.3325
 1533BOLB   C4B36780   9.178   5.900  33.677  0.0976  0.0271  0.2373
 1533BOLB   NC236781   6.777   5.493  35.370  0.1780  0.1174  0.2695
 1533BOLB   PO236782   7.045   5.391  34.948  0.3441 -0.0398 -0.3054
 1533BOLB   GL336783   7.094   5.590  34.675  0.0662  0.2729 -0.1554
 1533BOLB   GL436784   6.840   5.818  34.506 -0.2968 -0.2572 -0.2734
 1533BOLB   C1C36785   7.473   5.912  34.633 -0.1810 -0.3408 -0.4580
 1533BOLB   C2C36786   7.860   6.077  34.876  0.0976  0.2487 -0.0865
 1533BOLB   C3C36787   8.000   6.416  35.104  0.1312  0.2041 -0.1251
 1533BOLB   C4C36788   8.036   6.836  34.914 -0.0804 -0.2328  0.2686
 1533BOLB   C1D36789   7.169   5.655  34.232 -0.0242  0.1351  0.0892
 1533BOLB   C2D36790   7.220   5.849  33.791 -0.3170  0.2413 -0.1221
 1533BOLB   C3D36791   7.223   5.878  33.328 -0.1879 -0.0873  0.2717
 1533BOLB   C4D36792   7.350   5.967  32.949  0.2036 -0.1724 -0.4633
 1534BOLB   NC136793  21.026  15.264  36.525 -0.2120 -0.2693  0.0549
 1534BOLB   PO136794  20.862  15.033  36.826  0.1353  0.1119  0.1074
 1534BOLB   GL136795  21.038  15.032  37.333 -0.4496  0.0672 -0.0731
 1534BOLB   GL236796  20.906  15.010  37.648  0.1925  0.0085 -0.1219
 1534BOLB   C1A36797  21.371  15.176  37.610  0.2691 -0.1051  0.3620
 1534BOLB   C2A36798  21.773  15.261  37.787 -0.4731  0.1320  0.3340
 1534BOLB   C3A36799  22.228  15.196  37.849  0.2691  0.0661  0.1610
 1534BOLB   C4A36800  22.644  15.080  38.202 -0.0984  0.1452 -0.0151
 1534BOLB   C1B36801  20.921  15.385  37.752 -0.1734  0.0666 -0.2776
 1534BOLB   C2B36802  21.268  15.659  37.856  0.0122  0.0327 -0.0413
 1534BOLB   C3B36803  21.686  15.712  37.994  0.2512 -0.1626  0.1213
 1534BOLB   C4B36804  22.030  15.773  38.136  0.3189  0.2395 -0.2972
 1534BOLB   NC236805  24.392  14.699  39.918 -0.2789  0.2758 -0.0546
 1534BOLB   PO236806  24.113  14.947  40.144  0.1834 -0.0977 -0.0415
 1534BOLB   GL336807  23.930  15.204  39.819 -0.3375  0.2523  0.1226
 1534BOLB   GL436808  23.996  14.832  39.630 -0.0523  0.4413 -0.0570
 1534BOLB   C1C36809  23.608  15.171  39.523  0.2237 -0.1264 -0.0993
 1534BOLB   C2C36810  23.186  15.141  39.404 -0.1499 -0.0718 -0.0993
 1534BOLB   C3C36811  23.003  15.005  39.041 -0.0076  0.1323 -0.2226
 1534BOLB   C4C36812  22.680  14.947  38.684 -0.0827 -0.2850 -0.1396
 1534BOLB   C1D36813  23.893  14.621  39.270 -0.0376  0.2610 -0.1575
 1534BOLB   C2D36814  23.613  14.332  39.239  0.1689 -0.1188  0.0598
 1534BOLB   C3D36815  23.375  13.946  39.254  0.0578 -0.2849  0.2921
 1534BOLB   C4D36816  23.196  13.535  38.978 -0.2808  0.1587 -0.1388
 1535BOLB   NC136817  23.230  12.575  27.143  0.2202 -0.0750 -0.0852
 1535BOLB   PO136818  23.207  12.117  27.108  0.0947 -0.1549 -0.0641
 1535BOLB   GL136819  23.615  12.287  26.973  0.1312  0.1627  0.1900
 1535BOLB   GL236820  23.763  12.627  27.118  0.0256 -0.0900  0.0518
 1535BOLB   C1A36821  23.957  12.288  26.730  0.1560  0.2303 -0.1967
 1535BOLB   C2A36822  24.245  12.518  26.725 -0.5433  0.0426  0.0378
 1535BOLB   C3A36823  24.314  13.005  26.585 -0.0276  0.0971 -0.1423
 1535BOLB   C4A36824  24.539  13.145  26.300 -0.0116  0.0552  0.1773
 1535BOLB   C1B36825  24.192  12.308  27.184  0.1488  0.2093 -0.0216
 1535BOLB   C2B36826  24.629  12.267  27.170 -0.1389 -0.0338  0.1588
 1535BOLB   C3B36827  24.980  12.579  27.148  0.0647  0.0173 -0.3202
 1535BOLB   C4B36828  25.160  12.663  26.887  0.0421  0.0013  0.1856
 1535BOLB   NC236829  26.748  13.081  25.645 -0.1044  0.1228  0.1241
 1535BOLB   PO236830  26.916  13.384  26.011  0.2829 -0.1613  0.3774
 1535BOLB   GL336831  26.480  13.578  25.888  0.1281  0.0959 -0.0586
 1535BOLB   GL436832  26.339  13.294  25.790  0.1393  0.0269  0.0066
 1535BOLB   C1C36833  25.959  13.639  25.987 -0.1651 -0.0616 -0.0670
 1535BOLB   C2C36834  25.691  13.535  26.108 -0.1297 -0.0935 -0.0392
 1535BOLB   C3C36835  25.328  13.498  26.179  0.0517  0.0354 -0.3254
 1535BOLB   C4C36836  25.016  13.184  26.243  0.0440  0.1925 -0.3161
 1535BOLB   C1D36837  25.910  13.202  25.830 -0.1609 -0.0522 -0.0229
 1535BOLB   C2D36838  25.721  13.019  25.426 -0.2651 -0.0866  0.2300
 1535BOLB   C3D36839  25.666  13.065  24.994  0.0176  0.0791 -0.0123
 1535BOLB   C4D36840  25.971  13.139  24.657  0.2598 -0.0056  0.1039
 1536BOLB   NC136841  13.006   7.135  36.687  0.0445  0.3670 -0.1402
 1536BOLB   PO136842  13.437   7.060  36.839 -0.1185  0.2202  0.0820
 1536BOLB   GL136843  13.604   6.823  37.261  0.0172  0.0681 -0.0910
 1536BOLB   GL236844  13.498   6.569  37.105 -0.5021 -0.1137  0.0354
 1536BOLB   C1A36845  13.461   6.767  37.640 -0.0863 -0.1884 -0.1134
 1536BOLB   C2A36846  13.463   6.337  37.906  0.2107  0.0884 -0.0293
 1536BOLB   C3A36847  13.357   5.945  37.955  0.1363  0.1953  0.0223
 1536BOLB   C4A36848  13.155   5.583  38.177 -0.1557  0.0639 -0.0498
 1536BOLB   C1B36849  13.521   6.239  37.416  0.1146 -0.1177 -0.0875
 1536BOLB   C2B36850  13.548   5.828  37.472  0.1350 -0.0723  0.0121
 1536BOLB   C3B36851  13.404   5.500  37.692 -0.3413  0.0534 -0.1496
 1536BOLB   C4B36852  13.380   5.121  37.881 -0.1668 -0.2194  0.1185
 1536BOLB   NC236853  13.136   3.297  39.470 -0.3246 -0.0979 -0.1867
 1536BOLB   PO236854  12.851   3.344  39.191  0.2561 -0.1959 -0.1851
 1536BOLB   GL336855  12.990   3.712  39.229  0.1281 -0.1458 -0.0271
 1536BOLB   GL436856  13.395   3.723  39.151 -0.0173  0.3216 -0.2007
 1536BOLB   C1C36857  13.196   4.144  39.221 -0.3658 -0.0374  0.1597
 1536BOLB   C2C36858  13.303   4.476  38.944 -0.0388  0.1450 -0.0568
 1536BOLB   C3C36859  13.302   4.828  38.607 -0.0078  0.0477  0.1027
 1536BOLB   C4C36860  13.233   5.182  38.398  0.3302  0.2337  0.2080
 1536BOLB   C1D36861  13.548   4.082  38.784 -0.4023 -0.4512  0.4653
 1536BOLB   C2D36862  13.966   4.163  38.589  0.1743 -0.0437 -0.0734
 1536BOLB   C3D36863  13.994   4.433  38.240  0.0782 -0.1851 -0.0966
 1536BOLB   C4D36864  14.135   4.611  37.859 -0.1627 -0.1782 -0.0576
 1537BOLB   NC136865  13.092  12.069  20.597 -0.0747 -0.3159  0.3599
 1537BOLB   PO136866  12.710  11.863  20.777  0.0102  0.1431 -0.3361
 1537BOLB   GL136867  12.518  11.969  20.407  0.1293  0.1179 -0.1336
 1537BOLB   GL236868  12.801  11.950  20.230 -0.2741  0.2207  0.4064
 1537BOLB   C1A36869  12.319  11.685  20.094 -0.1947 -0.0428  0.0208
 1537BOLB   C2A36870  12.208  11.722  19.744 -0.2082  0.0954 -0.1299
 1537BOLB   C3A36871  12.059  11.516  19.400 -0.1518  0.1406  0.2160
 1537BOLB   C4A36872  11.786  11.520  19.107 -0.0454  0.1446  0.2712
 1537BOLB   C1B36873  12.713  11.750  19.718  0.1466 -0.0230 -0.0318
 1537BOLB   C2B36874  12.937  11.802  19.390 -0.1270  0.0250  0.0512
 1537BOLB   C3B36875  13.062  11.719  18.946  0.1660 -0.3573 -0.4592
 1537BOLB   C4B36876  13.145  11.668  18.470  0.1434  0.1275 -0.1201
 1537BOLB   NC236877  11.610  10.553  17.028  0.2849  0.1788  0.1781
 1537BOLB   PO236878  11.164  10.706  17.022  0.0753 -0.1723 -0.2385
 1537BOLB   GL336879  11.353  11.044  17.336  0.2973  0.0429  0.1386
 1537BOLB   GL436880  11.133  11.317  17.459 -0.1431  0.1838 -0.0239
 1537BOLB   C1C36881  11.658  10.864  17.675  0.0412  0.0862  0.2158
 1537BOLB   C2C36882  11.911  10.952  18.136 -0.0003 -0.0732 -0.0562
 1537BOLB   C3C36883  11.884  11.062  18.590  0.2360 -0.0825  0.2982
 1537BOLB   C4C36884  11.618  11.290  18.803 -0.1725  0.2203 -0.2645
 1537BOLB   C1D36885  11.471  11.307  17.765  0.0170 -0.0036  0.0247
 1537BOLB   C2D36886  11.843  11.401  17.856 -0.1850  0.0037  0.0004
 1537BOLB   C3D36887  12.195  11.399  18.235 -0.0630 -0.0976 -0.1802
 1537BOLB   C4D36888  12.583  11.646  18.388 -0.2106  0.0006  0.3015
 1538BOLB   NC136889  12.915   4.933  28.826 -0.0225 -0.2436  0.0078
 1538BOLB   PO136890  12.612   4.957  28.499 -0.0122 -0.1400  0.0532
 1538BOLB   GL136891  12.293   4.896  28.739 -0.2897 -0.0687  0.3575
 1538BOLB   GL236892  12.058   5.027  28.816  0.0202 -0.4958  0.1598
 1538BOLB   C1A36893  11.971   4.584  28.626 -0.1512  0.4071 -0.1914
 1538BOLB   C2A36894  11.929   4.117  28.557  0.1408 -0.2279 -0.1155
 1538BOLB   C3A36895  11.843   3.741  28.796 -0.0566 -0.4231  0.1310
 1538BOLB   C4A36896  11.469   3.553  28.909  0.1402 -0.0904  0.1635
 1538BOLB   C1B36897  11.659   4.847  28.873  0.1625  0.3128  0.3699
 1538BOLB   C2B36898  11.307   4.587  29.131  0.0008  0.0511  0.1337
 1538BOLB   C3B36899  11.041   4.490  29.414 -0.1677  0.1016  0.1692
 1538BOLB   C4B36900  10.715   4.302  29.569  0.0645 -0.0059  0.2496
 1538BOLB   NC236901   9.725   1.996  29.250 -0.3077 -0.1725  0.0676
 1538BOLB   PO236902   9.441   2.227  29.021 -0.1336  0.0448  0.1810
 1538BOLB   GL336903   9.757   2.530  29.030 -0.1991  0.0820  0.1490
 1538BOLB   GL436904   9.517   2.720  29.309 -0.1065 -0.0022  0.0425
 1538BOLB   C1C36905   9.969   2.795  28.727  0.0919  0.0880 -0.1968
 1538BOLB   C2C36906  10.152   3.220  28.771 -0.4984  0.1817  0.1517
 1538BOLB   C3C36907  10.571   3.388  28.795 -0.1696 -0.0585  0.0068
 1538BOLB   C4C36908  11.001   3.490  28.826 -0.1748  0.0002 -0.1898
 1538BOLB   C1D36909   9.591   3.053  28.937 -0.0512  0.0560  0.3464
 1538BOLB   C2D36910   9.775   3.504  29.009 -0.1942 -0.0665 -0.2287
 1538BOLB   C3D36911   9.966   3.937  29.179 -0.0912  0.5009  0.1024
 1538BOLB   C4D36912  10.293   4.185  29.328  0.1419 -0.1339  0.1256
 1539BOLB   NC136913   9.537  11.102  36.464 -0.1004  0.1803  0.1281
 1539BOLB   PO136914   9.594  11.413  36.715  0.1350 -0.2521  0.1484
 1539BOLB   GL136915   9.155  11.295  36.754 -0.0277 -0.3257 -0.4113
 1539BOLB   GL236916   9.182  11.061  36.834  0.1812  0.1336 -0.1452
 1539BOLB   C1A36917   8.784  11.505  36.925  0.4422  0.1829  0.1176
 1539BOLB   C2A36918   8.564  11.557  37.283  0.4375 -0.1245 -0.0370
 1539BOLB   C3A36919   8.256  11.701  37.635 -0.0971  0.0138  0.1938
 1539BOLB   C4A36920   8.198  11.588  38.007 -0.2173 -0.2923 -0.1707
 1539BOLB   C1B36921   9.004  10.725  36.626  0.1253  0.1170 -0.1414
 1539BOLB   C2B36922   8.489  10.696  36.746 -0.2873  0.1609 -0.3338
 1539BOLB   C3B36923   8.264  10.615  37.125  0.2063 -0.2309 -0.0720
 1539BOLB   C4B36924   7.940  10.779  37.365  0.1384 -0.1428  0.2472
 1539BOLB   NC236925   6.756  12.238  39.876  0.1956 -0.0028  0.1904
 1539BOLB   PO236926   7.071  12.328  40.119 -0.2823  0.2012  0.0961
 1539BOLB   GL336927   7.232  12.097  39.874 -0.1603  0.0525  0.0200
 1539BOLB   GL436928   6.977  11.759  39.740  0.0999 -0.2437  0.1327
 1539BOLB   C1C36929   7.397  11.975  39.498  0.0277 -0.2159 -0.0618
 1539BOLB   C2C36930   7.656  11.869  39.129 -0.3604  0.1582  0.1711
 1539BOLB   C3C36931   7.900  11.807  38.735 -0.1656 -0.3984  0.2021
 1539BOLB   C4C36932   8.273  11.719  38.353  0.0231  0.0101  0.0911
 1539BOLB   C1D36933   7.287  11.477  39.617  0.1265 -0.0012  0.1873
 1539BOLB   C2D36934   7.740  11.498  39.526  0.1237 -0.1788 -0.2069
 1539BOLB   C3D36935   8.095  11.534  39.078  0.1421 -0.2081 -0.0958
 1539BOLB   C4D36936   8.433  11.377  38.790  0.1621 -0.1551 -0.4281
 1540BOLB   NC136937  13.868   9.116  21.176 -0.1307 -0.1230 -0.0372
 1540BOLB   PO136938  14.139   8.872  21.446 -0.3470 -0.0951  0.0306
 1540BOLB   GL136939  14.162   8.573  21.136 -0.0522 -0.0493 -0.0508
 1540BOLB   GL236940  13.965   8.698  20.904  0.1223 -0.2615 -0.0358
 1540BOLB   C1A36941  14.240   8.192  20.856 -0.0249 -0.1798 -0.0463
 1540BOLB   C2A36942  13.948   7.894  20.561  0.2020 -0.0194 -0.2474
 1540BOLB   C3A36943  13.602   7.884  20.198  0.0613  0.1316 -0.2782
 1540BOLB   C4A36944  13.291   7.803  19.945  0.1340  0.3124  0.2279
 1540BOLB   C1B36945  13.658   8.413  20.685 -0.2491  0.0425 -0.2816
 1540BOLB   C2B36946  13.344   8.023  20.610  0.2458 -0.0431  0.0066
 1540BOLB   C3B36947  13.527   7.587  20.547 -0.0837  0.2022  0.0061
 1540BOLB   C4B36948  13.819   7.393  20.268  0.0773 -0.1564  0.1118
 1540BOLB   NC236949  11.770   6.577  18.317  0.0659  0.1740  0.2563
 1540BOLB   PO236950  12.114   6.418  18.564  0.0330 -0.1928  0.0435
 1540BOLB   GL336951  12.141   6.610  18.896 -0.0092 -0.2445  0.1429
 1540BOLB   GL436952  11.862   6.755  19.177  0.2488  0.0569 -0.1346
 1540BOLB   C1C36953  12.356   6.825  19.171 -0.1764  0.0152 -0.2136
 1540BOLB   C2C36954  12.593   6.968  19.355  0.2478 -0.1038 -0.3104
 1540BOLB   C3C36955  12.895   7.219  19.558  0.0021  0.2556  0.1629
 1540BOLB   C4C36956  13.115   7.495  19.763 -0.0290 -0.1599 -0.1058
 1540BOLB   C1D36957  12.113   6.860  19.575 -0.0056 -0.0662 -0.5262
 1540BOLB   C2D36958  12.394   7.129  19.803 -0.1072  0.0474  0.0616
 1540BOLB   C3D36959  12.592   7.267  20.120 -0.0116 -0.1382  0.1888
 1540BOLB   C4D36960  12.637   7.560  20.456  0.1292 -0.0919  0.2613
 1541BOLB   NC136961  11.100  13.301  22.371  0.3501 -0.1332  0.1863
 1541BOLB   PO136962  10.953  13.744  22.542 -0.1004 -0.1791  0.1137
 1541BOLB   GL136963  10.526  13.581  22.236  0.0673 -0.2731 -0.1495
 1541BOLB   GL236964  10.205  13.446  22.429 -0.1426 -0.1194 -0.2772
 1541BOLB   C1A36965  10.363  13.694  21.830  0.1953  0.1057  0.0811
 1541BOLB   C2A36966  10.066  13.577  21.504 -0.1756  0.1085 -0.4016
 1541BOLB   C3A36967   9.744  13.402  21.225  0.0332 -0.0084  0.1001
 1541BOLB   C4A36968   9.444  13.403  20.906 -0.1345  0.0527 -0.2394
 1541BOLB   C1B36969   9.959  13.557  22.028  0.1738 -0.2935 -0.0170
 1541BOLB   C2B36970   9.824  13.181  21.830  0.2380 -0.2111  0.2514
 1541BOLB   C3B36971   9.633  12.943  21.430  0.1031 -0.4914  0.2408
 1541BOLB   C4B36972   9.753  12.912  20.965  0.3025 -0.0521  0.0482
 1541BOLB   NC236973   8.209  14.276  18.956  0.2066 -0.1644 -0.1260
 1541BOLB   PO236974   8.037  13.980  19.219 -0.0018  0.1341 -0.1319
 1541BOLB   GL336975   8.280  14.158  19.505  0.0945 -0.0073  0.2807
 1541BOLB   GL436976   8.130  14.263  19.782  0.1450  0.1756 -0.2359
 1541BOLB   C1C36977   8.508  13.958  19.732  0.3901  0.2010  0.0866
 1541BOLB   C2C36978   8.716  13.565  19.967 -0.1482 -0.1439  0.4360
 1541BOLB   C3C36979   8.975  13.422  20.299  0.2937  0.1088  0.1135
 1541BOLB   C4C36980   9.195  13.439  20.635  0.1674  0.0884 -0.0192
 1541BOLB   C1D36981   8.192  14.373  20.200  0.0080  0.2833  0.0488
 1541BOLB   C2D36982   8.276  14.208  20.722  0.0079  0.1084 -0.1032
 1541BOLB   C3D36983   8.673  14.025  20.823  0.1393 -0.1118 -0.0111
 1541BOLB   C4D36984   8.969  14.008  21.190  0.0746 -0.1488 -0.0457
 1542BOLB   NC136985   9.988  15.246  23.657 -0.2476 -0.2157 -0.4052
 1542BOLB   PO136986   9.985  15.084  23.288  0.0742  0.0824 -0.2375
 1542BOLB   GL136987   9.655  15.140  23.054  0.1623 -0.2447 -0.0062
 1542BOLB   GL236988   9.859  15.062  22.747 -0.2635 -0.1785 -0.2575
 1542BOLB   C1A36989   9.241  15.439  22.796 -0.0181 -0.1473 -0.1524
 1542BOLB   C2A36990   8.804  15.469  22.502 -0.4885 -0.1830 -0.1422
 1542BOLB   C3A36991   8.809  15.136  22.233 -0.0582  0.5006 -0.2798
 1542BOLB   C4A36992   9.034  14.995  21.901 -0.0664  0.3421  0.0257
 1542BOLB   C1B36993   9.591  14.792  22.513  0.1067  0.3009  0.3608
 1542BOLB   C2B36994   9.333  14.660  22.204  0.1917 -0.0267  0.3844
 1542BOLB   C3B36995   9.014  14.529  22.033  0.2921  0.2285 -0.1128
 1542BOLB   C4B36996   8.909  14.236  21.614 -0.0571 -0.1332  0.2659
 1542BOLB   NC236997   7.831  14.488  19.411 -0.0555  0.1266  0.1258
 1542BOLB   PO236998   7.572  14.386  19.799 -0.1716 -0.0087  0.0960
 1542BOLB   GL336999   7.746  14.565  20.217  0.2601  0.3063  0.1466
 1542BOLB   GL437000   7.614  14.831  20.333 -0.1365 -0.1681  0.1316
 1542BOLB   C1C37001   7.888  14.569  20.684 -0.2967 -0.0888  0.0062
 1542BOLB   C2C37002   8.325  14.676  20.809  0.1195  0.2852  0.0040
 1542BOLB   C3C37003   8.664  14.837  21.119 -0.0832  0.0443 -0.1474
 1542BOLB   C4C37004   8.956  14.748  21.430 -0.0132 -0.1307 -0.3624
 1542BOLB   C1D37005   8.156  14.876  20.376  0.3072  0.2234  0.0118
 1542BOLB   C2D37006   8.298  15.185  20.642  0.3073  0.0051 -0.0208
 1542BOLB   C3D37007   8.581  15.302  20.878 -0.2657 -0.0376  0.0762
 1542BOLB   C4D37008   8.921  15.263  21.108 -0.2680 -0.1102 -0.1325
 1543BOLB   NC137009  12.028   7.334  36.305  0.1759 -0.0044 -0.1551
 1543BOLB   PO137010  11.969   6.920  36.337  0.0169 -0.0640 -0.0872
 1543BOLB   GL137011  11.930   6.685  36.603  0.1208 -0.1920 -0.1129
 1543BOLB   GL237012  11.641   6.700  36.750 -0.0277 -0.1767 -0.2084
 1543BOLB   C1A37013  12.075   6.643  37.100  0.1262  0.0961 -0.0026
 1543BOLB   C2A37014  12.128   6.478  37.547 -0.0100 -0.0785  0.0326
 1543BOLB   C3A37015  12.486   6.303  37.928 -0.0933  0.2603 -0.1590
 1543BOLB   C4A37016  12.216   6.117  38.170  0.0289 -0.2971  0.1678
 1543BOLB   C1B37017  11.551   6.373  37.093 -0.2344  0.2359  0.0167
 1543BOLB   C2B37018  11.427   6.120  37.419  0.1604 -0.2869 -0.0219
 1543BOLB   C3B37019  11.262   6.160  37.796 -0.0252  0.0242  0.0729
 1543BOLB   C4B37020  11.411   5.958  38.164  0.4679  0.1834 -0.2128
 1543BOLB   NC237021  10.265   5.025  39.497 -0.2587 -0.0773  0.1866
 1543BOLB   PO237022  10.431   5.100  39.903  0.1512  0.0506 -0.0832
 1543BOLB   GL337023  10.805   5.277  39.700 -0.2102 -0.1689 -0.0065
 1543BOLB   GL437024  11.021   5.399  39.833 -0.0700  0.0393 -0.2058
 1543BOLB   C1C37025  11.019   5.435  39.326 -0.2639  0.0338  0.1149
 1543BOLB   C2C37026  11.404   5.632  39.010  0.0771  0.0236  0.0767
 1543BOLB   C3C37027  11.655   5.656  38.700 -0.2342  0.2423  0.2779
 1543BOLB   C4C37028  11.924   5.944  38.414 -0.2245  0.2338 -0.2665
 1543BOLB   C1D37029  11.289   5.764  39.540 -0.0393 -0.0957  0.0288
 1543BOLB   C2D37030  11.597   5.896  39.509  0.0551 -0.0859 -0.1928
 1543BOLB   C3D37031  11.866   5.986  39.106  0.0230  0.0738 -0.0881
 1543BOLB   C4D37032  11.706   6.346  38.836  0.0317  0.0285  0.2347
 1544BOLB   NC137033  10.932  12.668  23.195  0.1759  0.3932 -0.0619
 1544BOLB   PO137034  10.854  12.348  22.868  0.0690 -0.0699 -0.1779
 1544BOLB   GL137035  10.649  12.151  22.514  0.1800  0.1713  0.0657
 1544BOLB   GL237036  10.633  12.258  22.245  0.2997  0.3006 -0.0167
 1544BOLB   C1A37037  10.402  11.795  22.359 -0.4886 -0.1632  0.1125
 1544BOLB   C2A37038  10.033  11.713  22.282  0.3297  0.2593  0.0430
 1544BOLB   C3A37039   9.759  11.390  21.971  0.0840  0.0563 -0.0605
 1544BOLB   C4A37040   9.607  11.148  21.562  0.0608  0.0881 -0.2253
 1544BOLB   C1B37041  10.324  12.041  21.973 -0.0766  0.5289  0.1056
 1544BOLB   C2B37042   9.872  12.012  21.883 -0.0081 -0.0289 -0.3822
 1544BOLB   C3B37043   9.480  12.191  21.809 -0.0298  0.2918 -0.2978
 1544BOLB   C4B37044   9.124  12.013  21.752 -0.1712  0.2052  0.3219
 1544BOLB   NC237045   8.607  10.723  18.937  0.2077 -0.0912 -0.0603
 1544BOLB   PO237046   8.712  10.592  19.326  0.1133 -0.2605 -0.1886
 1544BOLB   GL337047   8.898  10.588  19.737  0.1061  0.0221  0.0310
 1544BOLB   GL437048   9.196  10.458  19.559  0.0282  0.1662  0.1435
 1544BOLB   C1C37049   9.112  10.356  20.143  0.0800  0.0467 -0.3612
 1544BOLB   C2C37050   9.212  10.445  20.625  0.1157  0.0608  0.0728
 1544BOLB   C3C37051   9.429  10.741  20.817 -0.1931  0.0471 -0.1440
 1544BOLB   C4C37052   9.642  10.904  21.123 -0.2555  0.1083  0.0344
 1544BOLB   C1D37053   9.438  10.676  19.993 -0.0706 -0.2464  0.1090
 1544BOLB   C2D37054   9.743  10.908  20.301 -0.2698  0.3210 -0.0725
 1544BOLB   C3D37055   9.922  10.956  20.608 -0.1274 -0.2994 -0.0400
 1544BOLB   C4D37056  10.329  10.809  20.848  0.0553 -0.0172 -0.4082
 1545BOLB   NC137057  20.811   8.543  21.819 -0.2766  0.0338  0.3072
 1545BOLB   PO137058  21.180   8.819  22.123  0.0515  0.0195 -0.0539
 1545BOLB   GL137059  21.375   8.451  21.903  0.0915 -0.1723 -0.0083
 1545BOLB   GL237060  21.686   8.517  21.696 -0.1606  0.1285  0.0735
 1545BOLB   C1A37061  21.353   8.171  21.578 -0.1802 -0.0094  0.1966
 1545BOLB   C2A37062  21.242   7.761  21.309  0.0793 -0.0363  0.3491
 1545BOLB   C3A37063  21.328   7.334  21.161  0.0549 -0.1399 -0.0661
 1545BOLB   C4A37064  21.154   6.964  21.156 -0.1461 -0.1057  0.0195
 1545BOLB   C1B37065  21.728   8.337  21.341 -0.0113 -0.1367 -0.0551
 1545BOLB   C2B37066  21.913   8.051  21.034  0.0481 -0.0885 -0.2698
 1545BOLB   C3B37067  22.337   7.916  20.937  0.0190  0.0941  0.2285
 1545BOLB   C4B37068  22.428   7.838  20.493  0.0370  0.1375 -0.0355
 1545BOLB   NC237069  23.105   5.665  19.652  0.0493 -0.2716  0.2232
 1545BOLB   PO237070  22.652   5.588  19.777 -0.2572  0.1443  0.1675
 1545BOLB   GL337071  22.605   5.925  20.015 -0.0419  0.0134  0.1638
 1545BOLB   GL437072  22.317   6.123  19.840  0.2073  0.0202  0.1738
 1545BOLB   C1C37073  22.448   6.120  20.346  0.0486  0.0437 -0.0876
 1545BOLB   C2C37074  22.049   6.401  20.469  0.2688  0.0061 -0.2334
 1545BOLB   C3C37075  21.607   6.536  20.737  0.1304  0.2895 -0.3344
 1545BOLB   C4C37076  21.177   6.592  20.934 -0.0655 -0.1962 -0.0174
 1545BOLB   C1D37077  22.062   6.507  19.935 -0.0015 -0.1307 -0.1755
 1545BOLB   C2D37078  22.023   6.949  20.050  0.1946  0.0884 -0.3202
 1545BOLB   C3D37079  22.045   7.297  20.294  0.4949 -0.4126  0.0440
 1545BOLB   C4D37080  21.874   7.601  20.554  0.1073  0.0252  0.1104
 1546BOLB   NC137081  12.861   6.503  23.825 -0.1076  0.1826  0.1198
 1546BOLB   PO137082  13.142   6.274  24.042  0.1096  0.0107  0.0997
 1546BOLB   GL137083  13.401   5.941  24.104  0.2058  0.0371  0.5366
 1546BOLB   GL237084  13.338   5.708  24.407  0.2197  0.3666 -0.2733
 1546BOLB   C1A37085  13.645   5.640  23.987  0.1981 -0.2182 -0.3576
 1546BOLB   C2A37086  13.654   5.150  23.989 -0.2025 -0.0113 -0.3392
 1546BOLB   C3A37087  13.690   4.786  23.883 -0.1467 -0.1865 -0.1328
 1546BOLB   C4A37088  13.595   4.281  23.783  0.1314 -0.1555  0.1105
 1546BOLB   C1B37089  13.194   5.487  24.047  0.0370 -0.0111 -0.1404
 1546BOLB   C2B37090  13.220   5.643  23.617 -0.2288 -0.0844 -0.4315
 1546BOLB   C3B37091  12.961   5.761  23.122 -0.2530 -0.2338  0.3252
 1546BOLB   C4B37092  13.014   5.621  22.755 -0.1969 -0.2941  0.3111
 1546BOLB   NC237093  13.373   2.598  22.184  0.0835  0.0863 -0.0507
 1546BOLB   PO237094  12.969   2.746  22.221  0.1000 -0.0503 -0.2412
 1546BOLB   GL337095  13.257   3.006  22.428 -0.1384 -0.0900 -0.1193
 1546BOLB   GL437096  13.050   3.320  22.293 -0.1877  0.3615  0.3825
 1546BOLB   C1C37097  13.288   3.070  22.753  0.2267 -0.1053  0.0618
 1546BOLB   C2C37098  13.110   3.410  22.869  0.2006 -0.2634  0.0416
 1546BOLB   C3C37099  13.162   3.916  23.075  0.1782 -0.0629 -0.1133
 1546BOLB   C4C37100  13.474   4.067  23.408  0.3748 -0.0812 -0.3960
 1546BOLB   C1D37101  13.475   3.502  22.495  0.0683  0.0944  0.0081
 1546BOLB   C2D37102  13.495   3.899  22.700  0.0510 -0.4361 -0.0833
 1546BOLB   C3D37103  13.833   4.009  23.019  0.1780 -0.1172  0.3024
 1546BOLB   C4D37104  13.949   4.269  23.373  0.4448 -0.0208  0.1478
 1547BOLB   NC137105  17.430  20.031  33.534  0.0850  0.1133 -0.2114
 1547BOLB   PO137106  17.510  19.895  33.108  0.2476  0.2179 -0.0572
 1547BOLB   GL137107  17.780  20.209  33.109  0.0556  0.3459  0.3440
 1547BOLB   GL237108  17.591  20.357  33.221  0.2453 -0.0448 -0.2568
 1547BOLB   C1A37109  18.167  20.426  33.020  0.0546  0.0328  0.0638
 1547BOLB   C2A37110  18.279  20.794  33.283 -0.2311  0.3716 -0.1784
 1547BOLB   C3A37111  18.272  21.112  33.531 -0.3188 -0.4776  0.1021
 1547BOLB   C4A37112  18.369  21.572  33.567  0.1184 -0.2719  0.0082
 1547BOLB   C1B37113  17.767  20.661  33.458  0.1223 -0.0118 -0.3277
 1547BOLB   C2B37114  17.982  20.861  33.863 -0.4308 -0.0440 -0.0338
 1547BOLB   C3B37115  18.078  21.260  33.991 -0.1551 -0.2306 -0.0995
 1547BOLB   C4B37116  18.197  21.752  34.027  0.3562  0.1699  0.2087
 1547BOLB   NC237117  20.276  23.300  33.121 -0.1084 -0.0414 -0.1802
 1547BOLB   PO237118  20.090  23.169  32.728  0.0717  0.0127  0.3281
 1547BOLB   GL337119  19.839  22.863  32.615  0.0141 -0.1959  0.4339
 1547BOLB   GL437120  19.882  22.552  32.524  0.2430  0.1484 -0.0335
 1547BOLB   C1C37121  19.514  22.589  32.832  0.1057  0.0350 -0.3193
 1547BOLB   C2C37122  19.198  22.281  32.839 -0.2245 -0.0716 -0.0233
 1547BOLB   C3C37123  18.979  22.073  33.053 -0.2543  0.2663  0.0241
 1547BOLB   C4C37124  18.670  21.934  33.487  0.0411 -0.1377 -0.0957
 1547BOLB   C1D37125  19.642  22.228  32.460  0.2815 -0.2451  0.7626
 1547BOLB   C2D37126  19.515  21.915  32.615 -0.1850  0.2707  0.1502
 1547BOLB   C3D37127  19.331  21.537  32.584 -0.2759 -0.2271 -0.1541
 1547BOLB   C4D37128  19.238  21.104  32.478  0.1420  0.2464  0.1934
 1548BOLB   NC137129  21.073   8.708  22.598 -0.1716 -0.0233  0.1994
 1548BOLB   PO137130  21.480   8.429  22.480 -0.0148 -0.2862 -0.1947
 1548BOLB   GL137131  21.664   8.172  22.240  0.2972  0.0348 -0.1015
 1548BOLB   GL237132  22.036   8.119  22.263  0.2779  0.2181  0.2244
 1548BOLB   C1A37133  21.746   8.025  21.840 -0.0028 -0.0845  0.0713
 1548BOLB   C2A37134  21.793   7.847  21.480 -0.1775 -0.1709  0.2438
 1548BOLB   C3A37135  21.896   7.513  21.359 -0.0468 -0.4723  0.1595
 1548BOLB   C4A37136  22.046   6.955  21.168  0.0106 -0.1332  0.0064
 1548BOLB   C1B37137  22.375   8.021  21.937 -0.0943 -0.0326 -0.1232
 1548BOLB   C2B37138  22.702   7.852  21.841 -0.1324 -0.1228  0.0408
 1548BOLB   C3B37139  23.029   7.612  21.977  0.0287  0.0728 -0.0049
 1548BOLB   C4B37140  23.249   7.667  22.325 -0.2266  0.0300 -0.1442
 1548BOLB   NC237141  22.811   4.432  20.274 -0.0413  0.1500  0.2146
 1548BOLB   PO237142  22.455   4.668  20.200 -0.2571 -0.2314  0.1851
 1548BOLB   GL337143  22.359   4.963  20.461 -0.0851 -0.3659  0.1447
 1548BOLB   GL437144  22.052   5.072  20.321 -0.3986  0.3242  0.2093
 1548BOLB   C1C37145  22.282   5.268  20.768  0.0774  0.0319 -0.3724
 1548BOLB   C2C37146  22.300   5.781  20.699 -0.2851  0.3248 -0.0602
 1548BOLB   C3C37147  22.171   6.117  20.896  0.2028 -0.0051 -0.0642
 1548BOLB   C4C37148  22.075   6.490  20.993 -0.2365 -0.2410 -0.0645
 1548BOLB   C1D37149  21.971   5.386  20.468 -0.2867 -0.1543 -0.2271
 1548BOLB   C2D37150  21.803   5.783  20.843  0.4941 -0.0426  0.1128
 1548BOLB   C3D37151  21.707   6.138  21.044 -0.0038 -0.2293 -0.0660
 1548BOLB   C4D37152  21.617   6.597  21.224  0.0692 -0.0205  0.3419
 1549BOLB   NC137153  16.112  18.427  36.925  0.2361  0.3945 -0.0271
 1549BOLB   PO137154  15.913  18.758  36.662 -0.0923 -0.0121 -0.0326
 1549BOLB   GL137155  15.911  18.844  37.143  0.0841  0.2322 -0.0459
 1549BOLB   GL237156  16.168  18.727  37.294 -0.6253  0.0247  0.2851
 1549BOLB   C1A37157  15.796  19.168  37.491  0.2905 -0.2411  0.2291
 1549BOLB   C2A37158  15.717  19.452  37.843  0.1404  0.0857  0.1071
 1549BOLB   C3A37159  15.662  19.653  38.225 -0.2521  0.1475  0.1980
 1549BOLB   C4A37160  15.633  19.718  38.669 -0.0191  0.0097 -0.1782
 1549BOLB   C1B37161  16.064  18.813  37.778 -0.1910 -0.1172 -0.1220
 1549BOLB   C2B37162  16.050  19.003  38.104 -0.0702  0.1577  0.1296
 1549BOLB   C3B37163  15.984  19.356  38.445 -0.2002  0.1590 -0.0593
 1549BOLB   C4B37164  16.097  19.837  38.630  0.0836  0.0823 -0.3346
 1549BOLB   NC237165  14.965  21.159  40.538  0.4116  0.1384  0.0895
 1549BOLB   PO237166  15.274  21.136  40.146 -0.2600 -0.2962  0.3997
 1549BOLB   GL337167  15.185  21.024  39.784  0.0206 -0.0993  0.2145
 1549BOLB   GL437168  15.358  20.993  39.579  0.0463  0.1199 -0.1023
 1549BOLB   C1C37169  15.012  20.653  39.654  0.1658 -0.2715  0.0746
 1549BOLB   C2C37170  15.190  20.231  39.590  0.0537  0.0126 -0.0378
 1549BOLB   C3C37171  15.427  19.916  39.483 -0.0227 -0.1710 -0.2411
 1549BOLB   C4C37172  15.518  19.670  39.103  0.0783  0.1586  0.1778
 1549BOLB   C1D37173  15.443  20.602  39.443  0.0019  0.0202  0.0193
 1549BOLB   C2D37174  15.604  20.303  39.191 -0.2156 -0.1090 -0.2758
 1549BOLB   C3D37175  15.509  20.203  38.809 -0.0135  0.2818  0.2198
 1549BOLB   C4D37176  15.752  20.248  38.389  0.3058 -0.5299 -0.2178
 1550BOLB   NC137177  13.170   5.188  30.817 -0.0420  0.0694  0.1080
 1550BOLB   PO137178  13.111   4.904  30.480 -0.3160 -0.3780  0.0311
 1550BOLB   GL137179  13.047   4.510  30.560  0.0115  0.3944 -0.0009
 1550BOLB   GL237180  13.379   4.413  30.428  0.0563  0.0430 -0.0178
 1550BOLB   C1A37181  12.969   4.066  30.621 -0.1388  0.0070 -0.3855
 1550BOLB   C2A37182  13.069   3.811  31.018 -0.5391 -0.3393  0.0273
 1550BOLB   C3A37183  13.096   3.407  31.194  0.3155  0.4609 -0.2622
 1550BOLB   C4A37184  13.093   2.956  31.362 -0.0966  0.0223 -0.0331
 1550BOLB   C1B37185  13.295   4.089  30.186  0.1595 -0.1288 -0.1691
 1550BOLB   C2B37186  13.447   3.763  30.035 -0.3550  0.2894  0.1355
 1550BOLB   C3B37187  13.708   3.524  29.751 -0.1302  0.0155 -0.1468
 1550BOLB   C4B37188  13.995   3.301  29.585 -0.2059 -0.0090  0.0289
 1550BOLB   NC237189  12.545   0.547  32.038 -0.2265  0.1481 -0.0563
 1550BOLB   PO237190  12.811   0.494  31.659 -0.0501 -0.1611  0.1783
 1550BOLB   GL337191  12.672   0.909  31.660 -0.0644 -0.0710 -0.1511
 1550BOLB   GL437192  12.732   1.016  31.962 -0.0733  0.2208  0.1414
 1550BOLB   C1C37193  12.702   1.320  31.587 -0.1860  0.0843  0.1027
 1550BOLB   C2C37194  12.711   1.786  31.611 -0.1566 -0.0234  0.2153
 1550BOLB   C3C37195  12.787   2.210  31.371  0.0285  0.2601  0.0385
 1550BOLB   C4C37196  12.855   2.598  31.279 -0.0111  0.2461 -0.3109
 1550BOLB   C1D37197  12.851   1.389  32.112  0.0135 -0.0688  0.1212
 1550BOLB   C2D37198  12.949   1.722  32.320 -0.1769  0.0057 -0.0848
 1550BOLB   C3D37199  13.000   2.220  32.368  0.2300  0.2549 -0.0765
 1550BOLB   C4D37200  12.899   2.615  32.440 -0.3739  0.1942 -0.3838
 1551BOLB   NC137201  20.382   5.264  31.716 -0.1331  0.0467  0.0624
 1551BOLB   PO137202  20.458   5.023  32.069  0.0633 -0.3106  0.0891
 1551BOLB   GL137203  20.517   4.606  32.285  0.0221 -0.3375 -0.2281
 1551BOLB   GL237204  20.320   4.453  32.573  0.1129  0.0554 -0.1479
 1551BOLB   C1A37205  20.760   4.322  32.231  0.0959 -0.1738  0.1403
 1551BOLB   C2A37206  21.060   4.064  32.032  0.1167 -0.0282  0.0999
 1551BOLB   C3A37207  20.987   3.800  31.678 -0.1283  0.0392  0.1760
 1551BOLB   C4A37208  21.293   3.450  31.519 -0.3500 -0.3351 -0.1681
 1551BOLB   C1B37209  20.390   4.256  32.962  0.0348  0.0421 -0.1981
 1551BOLB   C2B37210  20.537   3.803  33.182  0.1125 -0.0232  0.2360
 1551BOLB   C3B37211  20.539   3.701  33.611 -0.2428  0.3371  0.0319
 1551BOLB   C4B37212  20.617   3.453  33.850 -0.0219  0.2226  0.3528
 1551BOLB   NC237213  21.957   1.051  32.236  0.1016  0.1477  0.0648
 1551BOLB   PO237214  21.786   1.467  32.411  0.2337 -0.1028 -0.2428
 1551BOLB   GL337215  21.740   1.769  32.053 -0.2341  0.0188 -0.0877
 1551BOLB   GL437216  21.450   1.939  32.133 -0.1193  0.0248 -0.4934
 1551BOLB   C1C37217  21.840   2.043  31.770  0.3160  0.0726 -0.1212
 1551BOLB   C2C37218  21.678   2.439  31.616  0.1853 -0.0574 -0.1335
 1551BOLB   C3C37219  21.346   2.670  31.469  0.1395  0.1330  0.1706
 1551BOLB   C4C37220  21.357   3.139  31.702 -0.2178 -0.0750  0.1075
 1551BOLB   C1D37221  21.297   2.355  32.065  0.4303 -0.1046  0.0434
 1551BOLB   C2D37222  21.517   2.766  32.210  0.0656  0.0990  0.0479
 1551BOLB   C3D37223  21.583   3.175  32.206 -0.0810  0.2588 -0.0666
 1551BOLB   C4D37224  21.961   3.452  32.157 -0.4466 -0.2446 -0.2033
 1552BOLB   NC137225  22.953   8.579  28.432 -0.1494  0.1616 -0.2531
 1552BOLB   PO137226  23.087   9.011  28.365 -0.0518 -0.1496  0.2197
 1552BOLB   GL137227  23.407   8.740  28.547  0.0256  0.1480 -0.1120
 1552BOLB   GL237228  23.621   8.965  28.384  0.0792 -0.0417  0.0344
 1552BOLB   C1A37229  23.791   8.749  28.853 -0.6836  0.2801  0.0683
 1552BOLB   C2A37230  24.328   8.768  28.836  0.2472  0.1100 -0.2249
 1552BOLB   C3A37231  24.624   8.444  28.949 -0.1195 -0.1932 -0.0993
 1552BOLB   C4A37232  25.043   8.494  29.019 -0.0173  0.3239 -0.3781
 1552BOLB   C1B37233  23.971   8.950  28.246 -0.0666 -0.2288 -0.1637
 1552BOLB   C2B37234  24.473   8.797  28.179 -0.1093 -0.2818  0.0878
 1552BOLB   C3B37235  24.779   8.463  28.039  0.0967  0.1380 -0.3097
 1552BOLB   C4B37236  24.829   8.091  28.030  0.1722  0.3249  0.0571
 1552BOLB   NC237237   0.219   8.663  28.795  0.2723 -0.0505 -0.2423
 1552BOLB   PO237238   0.201   8.711  28.378  0.0110  0.2122  0.1146
 1552BOLB   GL337239  26.825   8.777  28.334 -0.1433  0.0557  0.0238
 1552BOLB   GL437240  26.678   8.723  28.070 -0.1479 -0.1993 -0.2898
 1552BOLB   C1C37241  26.576   8.622  28.700  0.1206 -0.0779  0.0081
 1552BOLB   C2C37242  26.276   8.657  28.881 -0.1408  0.0435  0.6633
 1552BOLB   C3C37243  25.880   8.558  29.038  0.0729 -0.0265  0.1288
 1552BOLB   C4C37244  25.423   8.472  28.966 -0.0845 -0.0687  0.2657
 1552BOLB   C1D37245  26.290   8.731  28.262  0.2183  0.3997 -0.0597
 1552BOLB   C2D37246  26.046   8.745  28.028 -0.1728  0.1065 -0.0403
 1552BOLB   C3D37247  25.806   8.875  27.695 -0.6521 -0.0699  0.0725
 1552BOLB   C4D37248  25.727   9.236  27.423  0.1399  0.3231  0.4384
 1553BOLB   NC137249  15.790   4.448  29.151 -0.2556 -0.0499 -0.0480
 1553BOLB   PO137250  15.666   4.097  28.934 -0.3962  0.0753 -0.0491
 1553BOLB   GL137251  15.666   3.725  29.148  0.1852  0.1336  0.1882
 1553BOLB   GL237252  15.875   3.596  29.117 -0.2864 -0.0796  0.0465
 1553BOLB   C1A37253  15.523   3.314  29.322 -0.1039 -0.0156  0.2623
 1553BOLB   C2A37254  15.814   2.990  29.142 -0.0191  0.0604  0.0088
 1553BOLB   C3A37255  15.951   2.555  29.120  0.2527 -0.2526 -0.0565
 1553BOLB   C4A37256  16.047   2.091  29.380 -0.0757  0.1555  0.7146
 1553BOLB   C1B37257  16.225   3.204  28.888 -0.2775 -0.1263  0.1687
 1553BOLB   C2B37258  16.276   2.992  28.504 -0.0476  0.0914  0.0402
 1553BOLB   C3B37259  16.331   2.792  28.136 -0.0752 -0.0450 -0.1820
 1553BOLB   C4B37260  16.369   2.369  28.038  0.0886  0.0712  0.2908
 1553BOLB   NC237261  15.669  26.573  29.381 -0.0873  0.0480 -0.1892
 1553BOLB   PO237262  15.818  26.810  29.017  0.1368  0.3350  0.2794
 1553BOLB   GL337263  15.947   0.207  29.071 -0.1257  0.1975 -0.1967
 1553BOLB   GL437264  16.244   0.120  28.964 -0.1226 -0.2031  0.3553
 1553BOLB   C1C37265  15.901   0.694  29.133 -0.0454 -0.1261  0.1432
 1553BOLB   C2C37266  15.909   1.222  29.058  0.3409 -0.1546  0.0542
 1553BOLB   C3C37267  15.764   1.521  29.132 -0.2283 -0.3244 -0.2437
 1553BOLB   C4C37268  15.967   1.718  29.352  0.2386 -0.0907 -0.0575
 1553BOLB   C1D37269  16.273   0.546  28.846  0.1034  0.0388 -0.1238
 1553BOLB   C2D37270  16.367   0.978  28.918  0.1241  0.0242  0.2022
 1553BOLB   C3D37271  16.334   1.440  29.076  0.3787  0.0689  0.0996
 1553BOLB   C4D37272  16.411   1.828  29.156  0.1234  0.0064  0.2016
 1554BOLB   NC137273   9.466   9.907  35.558  0.0093  0.4092 -0.2434
 1554BOLB   PO137274   9.577  10.237  35.828  0.0720  0.2275 -0.0859
 1554BOLB   GL137275   9.316  10.332  36.153 -0.3056 -0.0514  0.5054
 1554BOLB   GL237276   9.049  10.507  36.185  0.1162  0.1368 -0.0115
 1554BOLB   C1A37277   9.162  10.116  36.542 -0.0303 -0.0621  0.2501
 1554BOLB   C2A37278   8.983   9.916  36.764  0.1345  0.0422  0.0852
 1554BOLB   C3A37279   8.754   9.766  36.990 -0.0262 -0.1319 -0.2782
 1554BOLB   C4A37280   8.765   9.261  36.971 -0.1617 -0.1178 -0.0107
 1554BOLB   C1B37281   8.713  10.282  36.467  0.1235  0.7122 -0.0824
 1554BOLB   C2B37282   8.315  10.169  36.562  0.2201 -0.3579 -0.0485
 1554BOLB   C3B37283   7.992  10.412  36.705 -0.2914 -0.0804  0.1006
 1554BOLB   C4B37284   7.960  10.898  36.840  0.1057 -0.0270 -0.1755
 1554BOLB   NC237285   6.614   8.193  38.272 -0.1417 -0.2696  0.2590
 1554BOLB   PO237286   6.903   8.106  38.008  0.0125 -0.0736 -0.0340
 1554BOLB   GL337287   7.176   8.330  37.640  0.0274  0.2389 -0.3387
 1554BOLB   GL437288   7.106   8.030  37.382  0.0294 -0.0528 -0.0675
 1554BOLB   C1C37289   7.609   8.510  37.580 -0.1257 -0.2853 -0.1254
 1554BOLB   C2C37290   8.090   8.484  37.514  0.1343  0.0665 -0.0285
 1554BOLB   C3C37291   8.455   8.589  37.547 -0.2146  0.0644 -0.0488
 1554BOLB   C4C37292   8.705   9.033  37.347  0.0628  0.0257  0.3172
 1554BOLB   C1D37293   7.469   8.021  37.228  0.1514 -0.0404 -0.4495
 1554BOLB   C2D37294   7.758   8.337  37.109  0.0981  0.0122  0.3257
 1554BOLB   C3D37295   7.935   8.847  37.120 -0.2460  0.1313  0.1756
 1554BOLB   C4D37296   7.866   9.217  37.252 -0.1724 -0.1922  0.1951
 1555BOLB   NC137297  23.453  11.860  30.997  0.1873  0.2177  0.0290
 1555BOLB   PO137298  23.698  11.977  31.335 -0.0282 -0.0751  0.1250
 1555BOLB   GL137299  24.057  12.110  31.338 -0.3635 -0.2243 -0.0918
 1555BOLB   GL237300  24.265  12.343  31.582  0.2272  0.2062  0.0029
 1555BOLB   C1A37301  24.421  11.850  31.420  0.2038 -0.0316 -0.0587
 1555BOLB   C2A37302  24.795  11.600  31.499  0.0678  0.1660  0.2302
 1555BOLB   C3A37303  25.038  11.346  31.397  0.3509  0.3627  0.0278
 1555BOLB   C4A37304  25.462  11.235  31.201  0.0371 -0.2457 -0.1529
 1555BOLB   C1B37305  24.729  12.403  31.555  0.2814  0.1194 -0.2510
 1555BOLB   C2B37306  25.104  12.406  31.438  0.0536 -0.1811 -0.2212
 1555BOLB   C3B37307  25.507  12.546  31.516 -0.1430 -0.5100  0.0910
 1555BOLB   C4B37308  25.955  12.386  31.567 -0.3055 -0.1254  0.0135
 1555BOLB   NC237309   1.194  11.262  31.210  0.0641  0.1533 -0.0807
 1555BOLB   PO237310   0.710  11.295  31.062  0.2573 -0.2081  0.1380
 1555BOLB   GL337311   0.227  11.354  31.035  0.1447  0.0839  0.0423
 1555BOLB   GL437312   0.138  11.528  30.635 -0.1853  0.0712  0.2495
 1555BOLB   C1C37313  26.888  11.283  31.077  0.2535  0.1408 -0.0474
 1555BOLB   C2C37314  26.638  11.126  31.221 -0.0531 -0.0509  0.0189
 1555BOLB   C3C37315  26.135  11.140  31.047 -0.2864 -0.0300 -0.0171
 1555BOLB   C4C37316  25.783  11.022  31.190  0.0916  0.0097  0.2069
 1555BOLB   C1D37317  26.738  11.629  30.632 -0.0114 -0.0445 -0.2614
 1555BOLB   C2D37318  26.445  11.908  30.686  0.2824  0.0068 -0.0529
 1555BOLB   C3D37319  26.077  11.930  31.021 -0.0921  0.3961 -0.0599
 1555BOLB   C4D37320  25.750  11.623  31.002 -0.2901 -0.0747  0.2634
 1556BOLB   NC137321  15.410  17.170  21.015 -0.0159 -0.1922  0.1113
 1556BOLB   PO137322  15.099  17.369  20.676 -0.0078 -0.3305 -0.2110
 1556BOLB   GL137323  14.881  17.733  20.679  0.0394 -0.1625 -0.2293
 1556BOLB   GL237324  14.638  17.955  20.757 -0.0378 -0.0065 -0.2571
 1556BOLB   C1A37325  14.891  17.952  20.272 -0.2478 -0.1859  0.0903
 1556BOLB   C2A37326  15.082  18.341  20.046  0.1011 -0.0147  0.1371
 1556BOLB   C3A37327  15.154  18.474  19.681 -0.1916 -0.0204  0.0279
 1556BOLB   C4A37328  15.198  18.441  19.293 -0.0434  0.1625 -0.1739
 1556BOLB   C1B37329  14.474  18.156  20.404  0.3406  0.0240  0.0069
 1556BOLB   C2B37330  14.367  18.310  20.081 -0.0784  0.0596  0.0135
 1556BOLB   C3B37331  14.166  18.541  19.727  0.0407  0.3090 -0.1599
 1556BOLB   C4B37332  14.257  18.298  19.260 -0.2186 -0.1303 -0.3326
 1556BOLB   NC237333  14.239  18.920  17.166  0.0598 -0.1621 -0.1902
 1556BOLB   PO237334  13.943  19.259  17.435 -0.2351  0.0781  0.2977
 1556BOLB   GL337335  14.049  19.139  17.877  0.0094 -0.3033 -0.3934
 1556BOLB   GL437336  13.886  18.893  18.061 -0.1733  0.0337  0.3305
 1556BOLB   C1C37337  14.315  19.195  18.214 -0.0496  0.3363 -0.1607
 1556BOLB   C2C37338  14.545  19.025  18.515 -0.1837  0.2032  0.0447
 1556BOLB   C3C37339  14.670  18.690  18.788  0.0091 -0.3753 -0.0297
 1556BOLB   C4C37340  14.965  18.605  18.957  0.1288 -0.2275 -0.0287
 1556BOLB   C1D37341  13.906  18.511  18.361  0.1691  0.1843  0.2413
 1556BOLB   C2D37342  14.101  18.134  18.459  0.0582 -0.0934  0.2118
 1556BOLB   C3D37343  14.365  18.066  18.667 -0.0844 -0.2355 -0.1454
 1556BOLB   C4D37344  14.624  18.181  18.921  0.0341  0.0091  0.0121
 1557BOLB   NC137345   8.417  13.669  34.784  0.0594  0.0611 -0.0940
 1557BOLB   PO137346   8.175  13.337  34.985  0.5533 -0.2182 -0.0980
 1557BOLB   GL137347   7.896  13.071  35.178  0.2418  0.5322 -0.0622
 1557BOLB   GL237348   7.891  13.300  35.391  0.1093 -0.0949 -0.1881
 1557BOLB   C1A37349   7.427  13.164  35.037 -0.1343 -0.0339 -0.1099
 1557BOLB   C2A37350   7.188  13.507  35.057  0.1095 -0.0240  0.0778
 1557BOLB   C3A37351   6.754  13.504  35.301  0.2294  0.1034 -0.1211
 1557BOLB   C4A37352   6.579  13.625  35.732 -0.2377  0.0240 -0.0664
 1557BOLB   C1B37353   7.750  13.358  35.828  0.1046 -0.2279  0.1591
 1557BOLB   C2B37354   7.589  13.490  36.164  0.1749  0.0625  0.0956
 1557BOLB   C3B37355   7.593  13.682  36.573 -0.1138  0.0811 -0.0689
 1557BOLB   C4B37356   7.741  13.442  36.960  0.2607  0.2179  0.1669
 1557BOLB   NC237357   4.794  13.440  37.405 -0.1387  0.3829  0.0731
 1557BOLB   PO237358   4.958  13.814  37.334 -0.1468  0.5007 -0.1947
 1557BOLB   GL337359   5.175  13.727  37.012  0.1882  0.1614  0.2554
 1557BOLB   GL437360   5.235  13.497  37.018 -0.1135 -0.1298 -0.1273
 1557BOLB   C1C37361   5.628  13.884  36.942 -0.2753 -0.0475  0.3036
 1557BOLB   C2C37362   6.084  13.969  36.809  0.1275  0.1730 -0.2845
 1557BOLB   C3C37363   6.496  13.919  36.555  0.2119  0.1102 -0.0399
 1557BOLB   C4C37364   6.648  13.891  36.137 -0.0809  0.3235  0.0194
 1557BOLB   C1D37365   5.617  13.369  36.738 -0.0656  0.2609 -0.0292
 1557BOLB   C2D37366   6.043  13.467  36.516 -0.2624  0.0396  0.1246
 1557BOLB   C3D37367   6.473  13.462  36.333  0.2156  0.0761 -0.0928
 1557BOLB   C4D37368   6.873  13.484  36.302 -0.0597 -0.0129 -0.1651
 1558BOLB   NC137369  21.931  17.169  32.668 -0.0874  0.1284 -0.0390
 1558BOLB   PO137370  22.190  17.014  32.437  0.3137 -0.1347 -0.0177
 1558BOLB   GL137371  22.625  16.957  32.340 -0.5307 -0.0345 -0.1933
 1558BOLB   GL237372  22.908  16.816  32.627 -0.0618 -0.0571 -0.0763
 1558BOLB   C1A37373  23.112  17.051  32.247 -0.0789  0.1508 -0.0465
 1558BOLB   C2A37374  23.326  17.355  32.051  0.1298  0.0068 -0.0585
 1558BOLB   C3A37375  23.784  17.426  32.031  0.1065  0.3230  0.0522
 1558BOLB   C4A37376  24.162  17.212  32.062  0.0618  0.2799 -0.0477
 1558BOLB   C1B37377  23.161  17.093  32.766 -0.3574  0.1775  0.2004
 1558BOLB   C2B37378  23.380  17.369  33.037 -0.0001  0.2062  0.0795
 1558BOLB   C3B37379  23.764  17.501  33.132 -0.0563 -0.0274 -0.1305
 1558BOLB   C4B37380  23.998  17.180  33.333 -0.1551  0.0607  0.1341
 1558BOLB   NC237381  26.537  18.487  31.878 -0.0826  0.0502 -0.0286
 1558BOLB   PO237382  26.216  18.348  32.227 -0.4420 -0.1596  0.2082
 1558BOLB   GL337383  25.814  18.242  32.260 -0.1703  0.1574  0.1943
 1558BOLB   GL437384  25.783  18.063  32.346 -0.3499  0.2401  0.1206
 1558BOLB   C1C37385  25.521  18.148  31.895 -0.2018  0.1193  0.1559
 1558BOLB   C2C37386  25.068  18.050  31.908  0.0282 -0.0219 -0.1296
 1558BOLB   C3C37387  24.857  17.667  32.074  0.1607 -0.0723  0.3141
 1558BOLB   C4C37388  24.608  17.295  31.932  0.2198 -0.0111  0.0787
 1558BOLB   C1D37389  25.767  17.719  32.498  0.2145  0.0822 -0.0055
 1558BOLB   C2D37390  25.517  17.509  32.777  0.1464  0.3374  0.1301
 1558BOLB   C3D37391  25.408  17.278  33.167  0.3911  0.1350  0.3102
 1558BOLB   C4D37392  25.071  16.875  33.196 -0.0108 -0.1378  0.0848
 1559BOLB   NC137393  11.368  12.512  39.153  0.1286  0.2197  0.1013
 1559BOLB   PO137394  11.555  12.115  39.088  0.4133 -0.2601 -0.4872
 1559BOLB   GL137395  11.347  12.045  39.410  0.1400  0.0496  0.0465
 1559BOLB   GL237396  11.050  12.333  39.489  0.2655 -0.0155  0.3171
 1559BOLB   C1A37397  11.253  11.732  39.625 -0.1683 -0.1417  0.0609
 1559BOLB   C2A37398  10.875  11.782  39.955  0.0006  0.2748 -0.2069
 1559BOLB   C3A37399  10.482  11.671  40.298  0.1266  0.1251 -0.1580
 1559BOLB   C4A37400  10.324  11.199  40.470  0.1617 -0.0716 -0.0077
 1559BOLB   C1B37401  10.759  12.187  39.782 -0.0544 -0.1806 -0.1506
 1559BOLB   C2B37402  10.400  11.929  39.947  0.1129 -0.0336  0.3243
 1559BOLB   C3B37403   9.990  12.006  39.836  0.1277 -0.1387 -0.0177
 1559BOLB   C4B37404   9.734  12.365  39.624  0.1031 -0.1026  0.1233
 1559BOLB   NC237405   8.272  11.561  41.579  0.2783  0.1243 -0.2222
 1559BOLB   PO237406   8.224  11.163  41.475 -0.4841  0.4750  0.2274
 1559BOLB   GL337407   8.641  11.207  41.495  0.1926  0.0336  0.1942
 1559BOLB   GL437408   8.660  11.427  41.215 -0.0050  0.4276 -0.1351
 1559BOLB   C1C37409   9.072  11.157  41.403  0.1673  0.0886  0.2113
 1559BOLB   C2C37410   9.510  11.285  41.172 -0.1792 -0.0898 -0.0607
 1559BOLB   C3C37411   9.610  11.271  40.740  0.2965 -0.1049 -0.3170
 1559BOLB   C4C37412   9.942  11.184  40.607 -0.0943  0.0943 -0.0063
 1559BOLB   C1D37413   8.863  11.630  40.959  0.0635  0.2273  0.0039
 1559BOLB   C2D37414   9.119  11.587  40.635 -0.2555 -0.1884  0.0965
 1559BOLB   C3D37415   9.253  11.650  40.220  0.2645 -0.1245  0.0088
 1559BOLB   C4D37416   9.610  11.665  39.904 -0.1655 -0.0068 -0.2373
 1560BOLB   NC137417   8.225  15.050  33.835  0.0953 -0.1431  0.1239
 1560BOLB   PO137418   8.251  15.067  34.345 -0.0333 -0.1550 -0.0673
 1560BOLB   GL137419   7.889  15.169  34.226 -0.1538 -0.0419 -0.1628
 1560BOLB   GL237420   7.753  15.331  34.483  0.1733  0.0222 -0.0662
 1560BOLB   C1A37421   7.441  15.169  34.149 -0.1907  0.0807 -0.1870
 1560BOLB   C2A37422   7.032  15.263  34.118  0.0042 -0.3182  0.1044
 1560BOLB   C3A37423   6.634  14.949  33.915  0.2088 -0.1533 -0.1926
 1560BOLB   C4A37424   6.220  14.873  33.921  0.1969  0.0684 -0.3494
 1560BOLB   C1B37425   7.395  15.252  34.602 -0.1868  0.3121 -0.1301
 1560BOLB   C2B37426   6.934  15.146  34.564  0.5065 -0.1003 -0.1892
 1560BOLB   C3B37427   6.577  15.320  34.344  0.0017  0.0694  0.0845
 1560BOLB   C4B37428   6.258  15.418  34.297 -0.2112 -0.0179 -0.1307
 1560BOLB   NC237429   4.059  15.549  34.934  0.0635 -0.1504  0.0993
 1560BOLB   PO237430   4.274  15.635  35.242  0.0040 -0.1276  0.0893
 1560BOLB   GL337431   4.525  15.650  34.848 -0.1491 -0.0800  0.0362
 1560BOLB   GL437432   4.460  15.416  34.627  0.2521  0.1932  0.0058
 1560BOLB   C1C37433   4.940  15.564  34.637 -0.2175  0.4143  0.2112
 1560BOLB   C2C37434   5.183  15.492  34.243  0.0937 -0.0497 -0.4204
 1560BOLB   C3C37435   5.639  15.313  34.263 -0.0109 -0.0575 -0.2914
 1560BOLB   C4C37436   5.813  15.088  34.056 -0.0893  0.3590  0.1368
 1560BOLB   C1D37437   4.671  15.227  34.310  0.2432  0.2520  0.2598
 1560BOLB   C2D37438   4.965  15.122  34.031 -0.0713 -0.1201  0.3545
 1560BOLB   C3D37439   5.312  15.000  34.080 -0.0271  0.3469  0.2042
 1560BOLB   C4D37440   5.512  14.759  34.350 -0.0474 -0.0839 -0.3569
 1561BOLB   NC137441   8.014  10.165  27.887  0.1013  0.1571 -0.2809
 1561BOLB   PO137442   8.365   9.948  27.595 -0.1123  0.2870  0.2817
 1561BOLB   GL137443   8.103   9.619  27.338  0.1340  0.1119  0.2640
 1561BOLB   GL237444   8.175   9.376  27.431 -0.0509  0.0853  0.1328
 1561BOLB   C1A37445   7.743   9.515  27.123 -0.1874 -0.0947  0.3800
 1561BOLB   C2A37446   7.515   9.348  26.862 -0.0564  0.0300 -0.0314
 1561BOLB   C3A37447   7.090   9.194  26.742 -0.0300 -0.0321 -0.1754
 1561BOLB   C4A37448   6.846   8.894  26.607  0.1374  0.1618  0.4675
 1561BOLB   C1B37449   7.890   9.028  27.195 -0.1953  0.0718 -0.2632
 1561BOLB   C2B37450   7.762   8.908  26.864  0.0188  0.1303  0.1082
 1561BOLB   C3B37451   7.413   8.790  27.074 -0.3815  0.1931 -0.1344
 1561BOLB   C4B37452   7.153   8.364  27.220 -0.0788  0.0819 -0.2506
 1561BOLB   NC237453   4.643   8.553  26.308 -0.0956  0.0998 -0.1270
 1561BOLB   PO237454   4.802   8.362  26.610 -0.3402  0.2394 -0.1155
 1561BOLB   GL337455   5.186   8.288  26.354 -0.0435 -0.2564  0.1192
 1561BOLB   GL437456   5.174   8.554  26.095  0.1866  0.1215 -0.2670
 1561BOLB   C1C37457   5.581   8.197  26.508  0.1666 -0.0284  0.1044
 1561BOLB   C2C37458   5.862   8.531  26.323 -0.1041  0.0833  0.5302
 1561BOLB   C3C37459   6.300   8.599  26.086 -0.1168  0.0944 -0.6218
 1561BOLB   C4C37460   6.783   8.682  26.245 -0.3403  0.3359 -0.3661
 1561BOLB   C1D37461   5.475   8.824  26.308  0.0327 -0.1049 -0.0136
 1561BOLB   C2D37462   5.602   9.073  26.686  0.1067 -0.0649 -0.0280
 1561BOLB   C3D37463   5.545   9.294  27.090  0.0092  0.2160  0.0540
 1561BOLB   C4D37464   5.291   9.493  27.306  0.4214 -0.0036  0.0730
 1562BOLB   NC137465   7.622  15.838  32.574 -0.0509 -0.2084  0.0589
 1562BOLB   PO137466   7.970  16.069  32.776  0.1157  0.0184  0.2457
 1562BOLB   GL137467   7.599  16.211  32.910  0.0911  0.3370 -0.0431
 1562BOLB   GL237468   7.512  16.423  33.325 -0.2737 -0.0692  0.0416
 1562BOLB   C1A37469   7.156  16.329  32.837 -0.1257 -0.2317 -0.0039
 1562BOLB   C2A37470   6.841  16.517  32.803 -0.1610  0.3846 -0.2578
 1562BOLB   C3A37471   6.541  16.762  32.803  0.0870 -0.2296 -0.1833
 1562BOLB   C4A37472   6.199  17.034  32.664 -0.1161  0.0677 -0.1304
 1562BOLB   C1B37473   7.325  16.647  33.630  0.1006 -0.1448 -0.1318
 1562BOLB   C2B37474   6.915  16.616  33.878  0.2785  0.1204  0.2181
 1562BOLB   C3B37475   6.529  16.364  33.723 -0.0481 -0.2963 -0.0197
 1562BOLB   C4B37476   6.212  16.309  33.812 -0.2408  0.1746  0.0333
 1562BOLB   NC237477   4.064  17.729  32.503 -0.1237  0.3318 -0.0010
 1562BOLB   PO237478   3.862  17.461  32.836  0.2333  0.0977 -0.0605
 1562BOLB   GL337479   4.204  17.340  33.052  0.1310  0.1914 -0.0615
 1562BOLB   GL437480   4.257  17.333  33.376 -0.1551 -0.2385 -0.0813
 1562BOLB   C1C37481   4.656  17.144  33.180  0.2579  0.0302  0.0408
 1562BOLB   C2C37482   5.055  17.254  33.056 -0.1600 -0.3046 -0.0344
 1562BOLB   C3C37483   5.485  17.194  32.921  0.2782  0.1197 -0.0333
 1562BOLB   C4C37484   5.855  17.034  32.801  0.2423 -0.0120  0.2193
 1562BOLB   C1D37485   4.622  17.607  33.080 -0.1682  0.4551 -0.2509
 1562BOLB   C2D37486   4.908  17.650  32.708 -0.1009  0.3414  0.3213
 1562BOLB   C3D37487   5.060  17.859  32.394 -0.1337 -0.0067 -0.3526
 1562BOLB   C4D37488   4.975  18.041  32.004  0.0467  0.1959 -0.4924
 1563BOLB   NC137489  18.735  17.499  36.964  0.2312  0.0804  0.0272
 1563BOLB   PO137490  18.650  17.043  37.158 -0.4310  0.0339  0.0169
 1563BOLB   GL137491  18.684  17.150  37.647 -0.1118  0.0321  0.0873
 1563BOLB   GL237492  18.679  17.467  37.451 -0.0175  0.1652 -0.1119
 1563BOLB   C1A37493  18.921  17.334  38.026 -0.2486 -0.0898 -0.0684
 1563BOLB   C2A37494  18.984  17.402  38.434 -0.2993  0.2334  0.4423
 1563BOLB   C3A37495  19.236  17.341  38.810  0.0129 -0.1674  0.1169
 1563BOLB   C4A37496  19.284  17.365  39.268 -0.1264 -0.1774  0.1241
 1563BOLB   C1B37497  18.887  17.686  37.677  0.2115 -0.1710 -0.0365
 1563BOLB   C2B37498  19.059  17.803  38.116  0.0879  0.0698  0.1949
 1563BOLB   C3B37499  19.193  18.047  38.390  0.4055  0.1518  0.0014
 1563BOLB   C4B37500  19.066  17.979  38.738 -0.0533  0.2685  0.1161
 1563BOLB   NC237501  19.839  19.248  40.573 -0.2582 -0.4734 -0.0410
 1563BOLB   PO237502  20.143  19.144  40.762  0.1696 -0.1480  0.0610
 1563BOLB   GL337503  19.979  18.722  40.591  0.0621 -0.1442 -0.0161
 1563BOLB   GL437504  19.912  18.870  40.266 -0.0315  0.5887  0.2673
 1563BOLB   C1C37505  19.876  18.387  40.325 -0.5112 -0.0065 -0.0067
 1563BOLB   C2C37506  19.772  18.042  39.993  0.0694  0.2600 -0.1656
 1563BOLB   C3C37507  19.686  17.717  39.862  0.2325  0.0178  0.5450
 1563BOLB   C4C37508  19.384  17.553  39.660  0.1070  0.2798 -0.1141
 1563BOLB   C1D37509  19.653  18.829  39.936 -0.1439  0.0682 -0.0556
 1563BOLB   C2D37510  19.458  18.540  39.844  0.1603  0.2917  0.0543
 1563BOLB   C3D37511  19.157  18.104  39.840 -0.0220  0.3003 -0.0352
 1563BOLB   C4D37512  18.830  18.083  39.721  0.0069 -0.5077  0.0608
 1564BOLB   NC137513  16.707  12.151  40.231 -0.1439  0.1454 -0.0860
 1564BOLB   PO137514  16.535  11.863  40.000  0.1899  0.1363  0.2632
 1564BOLB   GL137515  16.337  11.811  40.400 -0.3029  0.2444 -0.3354
 1564BOLB   GL237516  16.580  11.851  40.636 -0.0627  0.1873 -0.3583
 1564BOLB   C1A37517  16.078  11.718  40.750 -0.1720 -0.4107 -0.2036
 1564BOLB   C2A37518  16.142  11.811  41.192  0.1782  0.0562 -0.0421
 1564BOLB   C3A37519  15.911  12.077  41.451  0.2373  0.1880  0.0855
 1564BOLB   C4A37520  15.848  12.104  41.869 -0.1484 -0.0464 -0.0212
 1564BOLB   C1B37521  16.777  11.858  41.004  0.0494 -0.2994  0.0977
 1564BOLB   C2B37522  16.657  11.813  41.408 -0.0202  0.1719  0.3030
 1564BOLB   C3B37523  16.364  11.672  41.704  0.2283 -0.2304 -0.2806
 1564BOLB   C4B37524  16.337  11.588  42.097  0.1115  0.0064 -0.2775
 1564BOLB   NC237525  15.282  11.434  44.769  0.0526 -0.0808  0.0487
 1564BOLB   PO237526  15.375  11.595  44.334 -0.1365  0.1932 -0.0848
 1564BOLB   GL337527  15.276  11.574  43.905 -0.1533 -0.0750 -0.0548
 1564BOLB   GL437528  15.169  11.216  43.889 -0.1946  0.3414 -0.1937
 1564BOLB   C1C37529  15.214  11.468  43.443 -0.0041  0.0916  0.0613
 1564BOLB   C2C37530  15.199  11.678  42.971 -0.2757 -0.0332  0.0362
 1564BOLB   C3C37531  15.507  11.699  42.619 -0.0108 -0.1136 -0.1806
 1564BOLB   C4C37532  15.603  11.955  42.312  0.0674  0.0695 -0.3266
 1564BOLB   C1D37533  15.513  11.033  43.518 -0.3554  0.2214 -0.4640
 1564BOLB   C2D37534  15.778  11.024  43.129  0.1499 -0.0172 -0.1497
 1564BOLB   C3D37535  15.915  11.073  42.667  0.0524  0.2338  0.0326
 1564BOLB   C4D37536  15.809  11.333  42.362  0.2671 -0.2681  0.2494
 1565BOLB   NC137537  15.062   6.060  35.693 -0.2729  0.2817 -0.1791
 1565BOLB   PO137538  14.725   5.768  35.712  0.1861 -0.1734 -0.0387
 1565BOLB   GL137539  14.672   5.354  35.531 -0.1641  0.1213  0.0576
 1565BOLB   GL237540  14.944   5.175  35.322  0.3374 -0.1705  0.0357
 1565BOLB   C1A37541  14.489   5.037  35.587  0.3798 -0.2347  0.1749
 1565BOLB   C2A37542  14.594   4.657  35.687 -0.4732 -0.0333 -0.0821
 1565BOLB   C3A37543  14.805   4.347  35.669 -0.1034 -0.1288  0.1670
 1565BOLB   C4A37544  15.110   3.944  35.690 -0.2725 -0.1343 -0.2719
 1565BOLB   C1B37545  14.995   4.835  35.439 -0.1259 -0.1247  0.0144
 1565BOLB   C2B37546  15.309   4.486  35.573  0.1081  0.2332  0.0179
 1565BOLB   C3B37547  15.609   4.073  35.499  0.0278  0.1351  0.1487
 1565BOLB   C4B37548  15.677   3.672  35.106  0.3127  0.0728  0.1805
 1565BOLB   NC237549  13.854   1.987  36.782 -0.1561  0.2883  0.0776
 1565BOLB   PO237550  14.302   1.833  36.582 -0.2504  0.0332 -0.1740
 1565BOLB   GL337551  14.397   2.199  36.444  0.2016  0.1515  0.2776
 1565BOLB   GL437552  14.071   2.095  36.241  0.0095  0.1226 -0.0765
 1565BOLB   C1C37553  14.703   2.372  36.129 -0.0826  0.1843  0.0065
 1565BOLB   C2C37554  14.685   2.772  35.858  0.0646 -0.0621  0.0553
 1565BOLB   C3C37555  14.810   3.240  35.738  0.0166 -0.1761  0.0706
 1565BOLB   C4C37556  15.025   3.554  35.777  0.0265  0.0408  0.1659
 1565BOLB   C1D37557  13.844   2.522  35.965 -0.2590  0.0859  0.2936
 1565BOLB   C2D37558  13.989   2.804  35.699  0.1949  0.2949 -0.3628
 1565BOLB   C3D37559  14.308   3.097  35.874  0.1645 -0.2360  0.1662
 1565BOLB   C4D37560  14.308   3.163  36.467  0.1350  0.0981  0.1306
 1566BOLB   NC137561  22.637  21.179  30.282 -0.2403 -0.0763  0.1114
 1566BOLB   PO137562  22.949  21.085  30.590 -0.1581 -0.4972 -0.0054
 1566BOLB   GL137563  22.563  20.857  30.704  0.0786 -0.1459 -0.3039
 1566BOLB   GL237564  22.264  20.878  30.513  0.1516 -0.0406 -0.0101
 1566BOLB   C1A37565  22.418  20.397  30.615 -0.3443 -0.1079  0.0340
 1566BOLB   C2A37566  22.097  20.125  30.578 -0.0060  0.0153 -0.0581
 1566BOLB   C3A37567  22.027  19.712  30.504 -0.1248 -0.1693  0.0919
 1566BOLB   C4A37568  22.287  19.571  30.246 -0.3094 -0.0689 -0.3444
 1566BOLB   C1B37569  22.057  20.705  30.790 -0.2626  0.0646  0.0306
 1566BOLB   C2B37570  21.825  20.418  31.026 -0.1401 -0.1589  0.0846
 1566BOLB   C3B37571  21.420  20.194  30.998 -0.0850 -0.3609  0.0870
 1566BOLB   C4B37572  21.073  20.367  31.164  0.0653 -0.0201  0.0522
 1566BOLB   NC237573  23.892  20.348  30.028 -0.2734  0.4328  0.1383
 1566BOLB   PO237574  23.873  20.098  30.353 -0.0837  0.0009 -0.0253
 1566BOLB   GL337575  23.664  19.797  30.364  0.4347 -0.0529 -0.0516
 1566BOLB   GL437576  23.371  19.756  30.604 -0.0518 -0.1310  0.2036
 1566BOLB   C1C37577  23.536  19.413  30.245  0.3331  0.0064  0.0961
 1566BOLB   C2C37578  23.230  19.135  30.068 -0.1438  0.0264 -0.1131
 1566BOLB   C3C37579  22.849  19.187  29.897 -0.0602  0.2715 -0.0089
 1566BOLB   C4C37580  22.471  19.325  30.040  0.3838  0.0448 -0.1007
 1566BOLB   C1D37581  23.174  19.396  30.575 -0.1065 -0.0353  0.0477
 1566BOLB   C2D37582  23.240  18.991  30.592  0.1393  0.0254 -0.0880
 1566BOLB   C3D37583  22.895  18.770  30.270  0.0432  0.2182  0.3483
 1566BOLB   C4D37584  22.580  18.758  29.968  0.4660 -0.1879 -0.1409
 1567BOLB   NC137585   8.094   9.096  28.338 -0.6797  0.0491 -0.1980
 1567BOLB   PO137586   8.203   8.831  28.750  0.1451  0.4759  0.0641
 1567BOLB   GL137587   7.928   8.745  29.097 -0.1035  0.4856  0.0518
 1567BOLB   GL237588   7.798   9.007  29.360  0.0486  0.0353  0.4206
 1567BOLB   C1A37589   7.536   8.573  29.165  0.1503 -0.2057 -0.0717
 1567BOLB   C2A37590   7.122   8.403  29.317  0.2487  0.0401  0.1405
 1567BOLB   C3A37591   6.750   8.531  29.557  0.0655  0.0107  0.1136
 1567BOLB   C4A37592   6.347   8.513  29.686  0.2691 -0.0008 -0.1179
 1567BOLB   C1B37593   7.274   8.898  29.337 -0.1331  0.1219 -0.1537
 1567BOLB   C2B37594   6.908   8.939  29.310 -0.2945 -0.2142  0.1676
 1567BOLB   C3B37595   6.675   9.213  29.095 -0.0671 -0.0400  0.5062
 1567BOLB   C4B37596   6.345   9.462  29.165  0.1662  0.0562 -0.1156
 1567BOLB   NC237597   5.029   6.799  29.525  0.0630  0.2153  0.0875
 1567BOLB   PO237598   5.036   6.568  29.875 -0.0423 -0.0723  0.0819
 1567BOLB   GL337599   5.398   6.869  29.895 -0.2763  0.2361  0.2269
 1567BOLB   GL437600   5.697   6.699  29.998  0.2404  0.1912 -0.2987
 1567BOLB   C1C37601   5.578   7.197  30.108  0.1353  0.2226 -0.1603
 1567BOLB   C2C37602   5.697   7.572  30.129  0.1963 -0.0553 -0.0330
 1567BOLB   C3C37603   5.913   7.853  29.938  0.0159 -0.0564 -0.0795
 1567BOLB   C4C37604   6.095   8.217  29.868 -0.2567 -0.2510 -0.2718
 1567BOLB   C1D37605   6.207   6.641  30.193 -0.0779 -0.0487 -0.0863
 1567BOLB   C2D37606   6.704   6.648  30.079 -0.1102  0.0547  0.1418
 1567BOLB   C3D37607   7.025   6.892  30.100  0.2049  0.0639 -0.3028
 1567BOLB   C4D37608   7.132   6.976  30.551  0.3511  0.0333  0.0126
 1568BOLB   NC137609   9.819   8.067  32.936 -0.2207 -0.1473 -0.0284
 1568BOLB   PO137610   9.817   7.649  32.903  0.1634  0.0591  0.1326
 1568BOLB   GL137611   9.373   7.634  32.931  0.2371  0.0838 -0.1536
 1568BOLB   GL237612   9.128   7.692  32.695  0.0837 -0.1824 -0.1143
 1568BOLB   C1A37613   9.154   7.446  33.195  0.0444  0.2518  0.1284
 1568BOLB   C2A37614   8.959   7.027  33.161  0.0145  0.2232  0.0248
 1568BOLB   C3A37615   8.841   6.616  33.219 -0.1587  0.1123  0.2025
 1568BOLB   C4A37616   8.499   6.349  33.455  0.0958  0.1074 -0.0996
 1568BOLB   C1B37617   8.773   7.499  32.782  0.2503 -0.1353  0.0225
 1568BOLB   C2B37618   8.476   7.178  33.006 -0.1312 -0.3433 -0.2670
 1568BOLB   C3B37619   8.400   6.985  33.469 -0.5672  0.1606  0.0840
 1568BOLB   C4B37620   8.113   6.780  33.696 -0.2314 -0.2760  0.1765
 1568BOLB   NC237621   6.656   5.377  33.937  0.0950  0.3164 -0.3829
 1568BOLB   PO237622   6.401   5.664  34.079 -0.0631 -0.1309  0.0102
 1568BOLB   GL337623   6.549   6.062  34.035  0.0148  0.0295  0.1691
 1568BOLB   GL437624   6.691   6.043  33.647  0.2230  0.1598  0.2730
 1568BOLB   C1C37625   6.960   6.130  34.116 -0.0459  0.1027 -0.2883
 1568BOLB   C2C37626   7.457   6.159  34.112 -0.3162  0.0383  0.0476
 1568BOLB   C3C37627   7.853   5.992  33.913 -0.2212 -0.0821  0.0855
 1568BOLB   C4C37628   8.257   6.055  33.759 -0.0650 -0.2369  0.1858
 1568BOLB   C1D37629   6.980   6.393  33.595  0.2163 -0.1865  0.0317
 1568BOLB   C2D37630   7.263   6.749  33.375 -0.1396 -0.0215 -0.0568
 1568BOLB   C3D37631   7.687   6.733  33.421 -0.3284  0.1482  0.0429
 1568BOLB   C4D37632   7.984   6.354  33.476  0.0988  0.4396 -0.0180
 1569BOLB   NC137633   6.728  17.539  21.870 -0.0134 -0.0843  0.0790
 1569BOLB   PO137634   7.064  17.402  21.582  0.0931  0.0550 -0.0021
 1569BOLB   GL137635   7.367  17.133  21.806  0.1019  0.1371  0.3072
 1569BOLB   GL237636   7.663  17.283  21.921  0.3937  0.4443 -0.1337
 1569BOLB   C1A37637   7.783  16.838  21.745  0.1740 -0.1685 -0.3127
 1569BOLB   C2A37638   8.146  16.738  22.066  0.0105  0.1426 -0.3125
 1569BOLB   C3A37639   8.505  16.528  22.029  0.0569  0.0026 -0.1260
 1569BOLB   C4A37640   8.815  16.326  21.762  0.1620  0.1331 -0.0620
 1569BOLB   C1B37641   7.844  16.995  22.292  0.1977 -0.1069 -0.0632
 1569BOLB   C2B37642   8.253  16.956  22.493  0.0946  0.0070 -0.0517
 1569BOLB   C3B37643   8.692  16.839  22.439 -0.0256 -0.4277 -0.2125
 1569BOLB   C4B37644   8.985  16.693  22.140  0.0697  0.0167  0.2703
 1569BOLB   NC237645   7.288  16.075  20.373 -0.1752 -0.1736  0.3920
 1569BOLB   PO237646   7.576  16.280  20.652  0.3396  0.0550  0.0418
 1569BOLB   GL337647   7.720  15.811  20.541 -0.2696  0.1745  0.2240
 1569BOLB   GL437648   7.604  15.667  20.349 -0.3935  0.3207 -0.0902
 1569BOLB   C1C37649   8.136  15.650  20.531 -0.3928 -0.2954  0.0761
 1569BOLB   C2C37650   8.394  15.829  20.887 -0.6419  0.1717  0.2437
 1569BOLB   C3C37651   8.766  15.845  21.115 -0.1117  0.0725  0.2889
 1569BOLB   C4C37652   8.776  15.972  21.532  0.2610 -0.0557 -0.3429
 1569BOLB   C1D37653   7.816  15.286  20.562  0.0554  0.1554 -0.1872
 1569BOLB   C2D37654   7.759  15.069  20.892  0.1337  0.1874  0.1238
 1569BOLB   C3D37655   7.888  14.694  21.201 -0.1279  0.1460 -0.1436
 1569BOLB   C4D37656   7.537  14.354  21.404 -0.1982  0.1335 -0.0855
 1570BOLB   NC137657  21.499   6.056  28.143  0.2792  0.0666 -0.0955
 1570BOLB   PO137658  21.722   5.946  27.921 -0.0665  0.2160 -0.2630
 1570BOLB   GL137659  22.183   5.848  27.981 -0.0420  0.0453 -0.0969
 1570BOLB   GL237660  22.055   5.550  27.890  0.3883 -0.2049  0.1558
 1570BOLB   C1A37661  22.560   5.816  28.123  0.1257 -0.1571 -0.1619
 1570BOLB   C2A37662  22.669   5.704  28.495 -0.0652 -0.1208  0.1682
 1570BOLB   C3A37663  23.043   5.574  28.685  0.1069  0.0908 -0.1724
 1570BOLB   C4A37664  23.163   5.190  28.761  0.2160  0.1007 -0.0869
 1570BOLB   C1B37665  22.316   5.252  27.758 -0.2383  0.2661 -0.0882
 1570BOLB   C2B37666  22.418   4.926  27.960  0.1243  0.0061 -0.1910
 1570BOLB   C3B37667  22.659   4.536  28.009 -0.4032  0.1743 -0.0849
 1570BOLB   C4B37668  22.989   4.176  27.744 -0.3340 -0.0107  0.0915
 1570BOLB   NC237669  25.421   3.462  28.753  0.0715  0.1639  0.0481
 1570BOLB   PO237670  25.096   3.717  28.814  0.2780  0.1514 -0.0621
 1570BOLB   GL337671  24.822   4.074  28.660  0.0949 -0.4540 -0.0541
 1570BOLB   GL437672  24.748   4.377  28.744  0.0166  0.2784 -0.3619
 1570BOLB   C1C37673  24.440   4.045  28.510 -0.0841  0.2457 -0.0388
 1570BOLB   C2C37674  24.032   4.277  28.503  0.0925  0.0634  0.0522
 1570BOLB   C3C37675  23.604   4.398  28.590 -0.2147 -0.4429  0.1234
 1570BOLB   C4C37676  23.437   4.837  28.731  0.3750  0.0410  0.2681
 1570BOLB   C1D37677  24.315   4.538  28.799  0.1912  0.0511  0.5109
 1570BOLB   C2D37678  23.952   4.459  28.989  0.3912  0.0352  0.0271
 1570BOLB   C3D37679  23.507   4.488  29.081 -0.2601 -0.0943 -0.3928
 1570BOLB   C4D37680  23.086   4.339  29.325  0.1680 -0.0179 -0.4899
 1571BOLB   NC137681  10.478  13.127  37.948 -0.0716 -0.2193  0.1664
 1571BOLB   PO137682  10.601  12.657  38.165 -0.3214 -0.0627 -0.0143
 1571BOLB   GL137683  10.194  12.688  38.163  0.0956 -0.2453  0.1049
 1571BOLB   GL237684  10.142  12.206  38.057  0.1365 -0.2894  0.2850
 1571BOLB   C1A37685   9.792  12.571  38.060  0.0713  0.1932  0.1725
 1571BOLB   C2A37686   9.378  12.603  38.130 -0.1934  0.2604 -0.0128
 1571BOLB   C3A37687   9.081  12.464  38.468  0.0013  0.0684 -0.0243
 1571BOLB   C4A37688   8.732  12.337  38.684  0.3667 -0.1025 -0.2773
 1571BOLB   C1B37689   9.850  12.175  38.377  0.3013 -0.2021 -0.2393
 1571BOLB   C2B37690   9.438  12.137  38.403  0.2727  0.0907  0.1853
 1571BOLB   C3B37691   8.989  11.913  38.543 -0.0114 -0.1612 -0.0163
 1571BOLB   C4B37692   8.896  11.568  38.869 -0.0184  0.1156  0.0497
 1571BOLB   NC237693   7.557  12.762  41.077 -0.0117 -0.0078 -0.1427
 1571BOLB   PO237694   7.712  12.491  40.678  0.1419  0.2151  0.0935
 1571BOLB   GL337695   7.837  12.830  40.477 -0.2076 -0.0917 -0.1514
 1571BOLB   GL437696   8.086  12.815  40.356 -0.0434  0.0063 -0.2415
 1571BOLB   C1C37697   7.790  13.007  40.002 -0.1079 -0.0711 -0.1587
 1571BOLB   C2C37698   8.026  12.800  39.573 -0.1102 -0.0107  0.3028
 1571BOLB   C3C37699   8.304  12.511  39.436  0.3047 -0.2268  0.2331
 1571BOLB   C4C37700   8.526  12.410  39.065 -0.1327  0.0215 -0.0501
 1571BOLB   C1D37701   8.453  12.627  40.475 -0.4615  0.3922  0.1213
 1571BOLB   C2D37702   8.866  12.422  40.486 -0.0627 -0.2216  0.1026
 1571BOLB   C3D37703   9.270  12.671  40.309 -0.0613 -0.1023  0.0332
 1571BOLB   C4D37704   9.619  12.742  40.042 -0.0793  0.2788  0.1787
 1572BOLB   NC137705  16.152   7.714  38.290 -0.0859  0.1738 -0.0162
 1572BOLB   PO137706  15.978   7.398  38.062  0.0755 -0.1360  0.1000
 1572BOLB   GL137707  15.873   7.046  38.216 -0.0670  0.0257 -0.1673
 1572BOLB   GL237708  15.853   6.735  38.005 -0.0029 -0.2977 -0.2895
 1572BOLB   C1A37709  15.921   6.825  38.583 -0.3816  0.2913 -0.5513
 1572BOLB   C2A37710  15.738   6.724  38.915  0.0866 -0.0242 -0.0043
 1572BOLB   C3A37711  15.842   6.419  39.216 -0.1736  0.0376 -0.1557
 1572BOLB   C4A37712  15.978   6.485  39.584 -0.1317 -0.1642  0.0710
 1572BOLB   C1B37713  15.758   6.357  38.338  0.2554 -0.1058 -0.0675
 1572BOLB   C2B37714  15.541   5.949  38.529 -0.2105  0.1200 -0.0381
 1572BOLB   C3B37715  15.439   5.585  38.904  0.2821 -0.1438  0.1055
 1572BOLB   C4B37716  15.641   5.277  39.147 -0.3106  0.0450 -0.2868
 1572BOLB   NC237717  16.201   5.032  41.418 -0.2241 -0.2037 -0.2371
 1572BOLB   PO237718  16.402   4.970  41.123 -0.0132  0.1604 -0.1357
 1572BOLB   GL337719  16.471   5.362  40.832 -0.0173  0.2729 -0.1999
 1572BOLB   GL437720  16.159   5.468  40.727 -0.2246 -0.1341  0.1457
 1572BOLB   C1C37721  16.477   5.840  40.660 -0.0311 -0.3182 -0.0750
 1572BOLB   C2C37722  16.685   5.987  40.305  0.0261  0.0998 -0.1894
 1572BOLB   C3C37723  16.527   6.180  40.000 -0.0769  0.3104  0.0481
 1572BOLB   C4C37724  16.283   6.478  39.873  0.3888  0.1701 -0.1513
 1572BOLB   C1D37725  16.253   5.494  40.317 -0.1974 -0.0292 -0.0992
 1572BOLB   C2D37726  16.584   5.592  40.070 -0.2895 -0.0997 -0.1440
 1572BOLB   C3D37727  16.816   5.855  39.606  0.0202 -0.1879  0.3579
 1572BOLB   C4D37728  17.008   5.976  39.199 -0.2720 -0.0835 -0.0567
 1573BOLB   NC137729   8.019   9.485  30.177 -0.1702 -0.2901  0.0809
 1573BOLB   PO137730   8.274   9.205  30.318 -0.2319  0.1445 -0.0077
 1573BOLB   GL137731   8.143   8.984  30.456  0.2868  0.1419  0.3348
 1573BOLB   GL237732   7.775   9.112  30.401  0.0849 -0.3997  0.2273
 1573BOLB   C1A37733   7.887   8.675  30.661  0.0253  0.2119  0.0820
 1573BOLB   C2A37734   7.526   8.467  30.663  0.1063  0.1495  0.1039
 1573BOLB   C3A37735   7.298   8.220  30.870  0.2566  0.3165 -0.2011
 1573BOLB   C4A37736   6.943   7.963  30.917 -0.2107 -0.3337  0.1134
 1573BOLB   C1B37737   7.453   8.906  30.527 -0.0574  0.4259 -0.0980
 1573BOLB   C2B37738   7.124   8.696  30.846  0.1009 -0.0999  0.2070
 1573BOLB   C3B37739   7.061   8.610  31.324  0.1959 -0.0192  0.3213
 1573BOLB   C4B37740   6.767   8.718  31.641  0.1487 -0.2365  0.0436
 1573BOLB   NC237741   4.664   6.974  31.140  0.0733  0.3396  0.2521
 1573BOLB   PO237742   4.670   7.370  31.314  0.0672  0.1311  0.3821
 1573BOLB   GL337743   4.972   7.642  31.308 -0.2878  0.0471 -0.0884
 1573BOLB   GL437744   4.841   7.807  31.113 -0.1340 -0.0079 -0.2578
 1573BOLB   C1C37745   5.373   7.778  31.188  0.3874 -0.1796  0.1202
 1573BOLB   C2C37746   5.824   7.682  31.013  0.0301  0.0324 -0.0879
 1573BOLB   C3C37747   6.202   7.749  30.832 -0.1202 -0.1577 -0.0227
 1573BOLB   C4C37748   6.549   7.947  30.923 -0.2448 -0.1988  0.0675
 1573BOLB   C1D37749   5.061   7.848  30.851 -0.2480  0.1804 -0.5133
 1573BOLB   C2D37750   5.495   8.009  30.736  0.2442  0.0273  0.1839
 1573BOLB   C3D37751   5.815   8.430  30.771 -0.0472 -0.2936 -0.0874
 1573BOLB   C4D37752   5.782   8.880  30.858  0.0118  0.1148  0.1201
 1574BOLB   NC137753  21.188  14.656  15.816  0.0680  0.1502 -0.2238
 1574BOLB   PO137754  20.846  14.408  15.963 -0.2578  0.3110  0.1851
 1574BOLB   GL137755  20.561  14.195  16.219  0.2022 -0.1493  0.0423
 1574BOLB   GL237756  20.546  14.519  16.449 -0.0020  0.1376 -0.0556
 1574BOLB   C1A37757  20.403  14.011  16.555  0.2298 -0.1512 -0.2005
 1574BOLB   C2A37758  20.148  13.750  16.736 -0.0736  0.1583  0.1181
 1574BOLB   C3A37759  19.889  13.363  16.801 -0.3673 -0.1373  0.0638
 1574BOLB   C4A37760  19.750  12.900  16.764 -0.4536 -0.1314 -0.0816
 1574BOLB   C1B37761  20.769  14.382  16.788 -0.0376 -0.2271 -0.0720
 1574BOLB   C2B37762  20.956  14.148  17.150 -0.1968  0.2596 -0.0067
 1574BOLB   C3B37763  20.872  13.958  17.550  0.3124 -0.0596  0.1561
 1574BOLB   C4B37764  20.730  13.821  17.969  0.1235 -0.0108  0.1657
 1574BOLB   NC237765  19.161  11.673  14.992 -0.1554 -0.0645 -0.1474
 1574BOLB   PO237766  19.034  12.032  14.798 -0.1493  0.1925  0.0455
 1574BOLB   GL337767  19.149  12.327  15.095  0.1745 -0.4044  0.0053
 1574BOLB   GL437768  19.390  12.017  15.265 -0.0035 -0.0126 -0.2519
 1574BOLB   C1C37769  19.369  12.526  15.502 -0.1523  0.2066  0.1311
 1574BOLB   C2C37770  19.612  12.732  15.707  0.1812  0.2126  0.3292
 1574BOLB   C3C37771  19.660  12.743  16.104 -0.1248 -0.4347  0.0038
 1574BOLB   C4C37772  19.619  12.644  16.464  0.1011 -0.3069  0.0793
 1574BOLB   C1D37773  19.274  12.001  15.693  0.1809 -0.1511 -0.2829
 1574BOLB   C2D37774  19.038  11.988  16.021 -0.3469  0.0368  0.3916
 1574BOLB   C3D37775  18.869  12.280  16.298  0.0119 -0.0802 -0.0928
 1574BOLB   C4D37776  18.618  12.662  16.378 -0.0566  0.1399  0.0422
 1575BOLB   NC137777  24.308  13.698  16.989 -0.2003 -0.1210  0.1079
 1575BOLB   PO137778  24.294  13.500  17.308 -0.0533  0.0310  0.3827
 1575BOLB   GL137779  23.895  13.459  17.495  0.2324 -0.2358 -0.0609
 1575BOLB   GL237780  24.132  13.341  17.779 -0.0698 -0.2713 -0.0615
 1575BOLB   C1A37781  23.568  13.321  17.829  0.0106 -0.3757 -0.1455
 1575BOLB   C2A37782  23.152  13.245  17.866  0.2310  0.0733  0.1228
 1575BOLB   C3A37783  22.853  13.166  18.201 -0.4045  0.0858 -0.3117
 1575BOLB   C4A37784  22.948  12.864  18.520 -0.1829 -0.4667  0.0733
 1575BOLB   C1B37785  24.118  13.234  18.085 -0.3014 -0.2113 -0.0132
 1575BOLB   C2B37786  24.198  12.953  18.472  0.1543  0.0406  0.2204
 1575BOLB   C3B37787  24.184  12.660  18.817 -0.0704 -0.3575 -0.1006
 1575BOLB   C4B37788  24.036  12.333  18.878 -0.1850  0.0299 -0.1129
 1575BOLB   NC237789  25.433  11.908  17.953 -0.1937 -0.0183  0.1475
 1575BOLB   PO237790  25.068  11.730  18.154 -0.0120  0.0185  0.0623
 1575BOLB   GL337791  24.606  11.775  18.417 -0.1208  0.1000  0.2204
 1575BOLB   GL437792  24.523  11.693  18.745 -0.0674  0.0128 -0.0562
 1575BOLB   C1C37793  24.280  12.069  18.458 -0.1672  0.1119 -0.2213
 1575BOLB   C2C37794  23.795  12.151  18.455  0.2193  0.0964  0.0997
 1575BOLB   C3C37795  23.378  12.236  18.526 -0.1456  0.0944 -0.0346
 1575BOLB   C4C37796  23.114  12.524  18.731  0.0159  0.0229 -0.1618
 1575BOLB   C1D37797  23.946  11.704  18.496  0.4042  0.1195  0.4361
 1575BOLB   C2D37798  23.583  11.646  18.457  0.2935  0.0691  0.1977
 1575BOLB   C3D37799  23.156  11.850  18.377 -0.0755  0.0696 -0.0514
 1575BOLB   C4D37800  22.670  11.840  18.236 -0.0889 -0.3677 -0.0054
 1576BOLB   NC137801   8.668   9.685  28.659 -0.3098  0.1640  0.1737
 1576BOLB   PO137802   8.170   9.554  28.490  0.2682 -0.1819  0.0281
 1576BOLB   GL137803   7.850   9.484  28.253 -0.1673  0.1928  0.1225
 1576BOLB   GL237804   7.853   9.642  27.888 -0.0926 -0.1101 -0.3129
 1576BOLB   C1A37805   7.478   9.390  28.391  0.1510  0.0063  0.0500
 1576BOLB   C2A37806   7.134   9.472  28.215  0.0572 -0.0746 -0.1715
 1576BOLB   C3A37807   6.642   9.359  28.323  0.0826 -0.0983  0.1007
 1576BOLB   C4A37808   6.243   9.224  28.220  0.1738  0.1969 -0.0323
 1576BOLB   C1B37809   7.433   9.498  27.794  0.0459 -0.1962 -0.1833
 1576BOLB   C2B37810   7.361   9.440  27.386 -0.0132  0.2412 -0.1368
 1576BOLB   C3B37811   7.103   9.541  27.074 -0.2024 -0.1395 -0.0828
 1576BOLB   C4B37812   6.844   9.705  26.886 -0.1307 -0.0010 -0.3398
 1576BOLB   NC237813   4.387   9.719  26.755 -0.2077 -0.1387  0.0031
 1576BOLB   PO237814   4.434   9.357  26.538  0.3019  0.1310  0.3084
 1576BOLB   GL337815   4.831   9.375  26.683  0.3020 -0.0193 -0.2267
 1576BOLB   GL437816   4.970   9.607  26.663 -0.2348  0.0663 -0.1611
 1576BOLB   C1C37817   5.053   9.171  26.981 -0.0586  0.3590  0.2000
 1576BOLB   C2C37818   5.262   8.961  27.380 -0.1775  0.0306  0.0778
 1576BOLB   C3C37819   5.672   8.982  27.581 -0.4392 -0.2148 -0.3685
 1576BOLB   C4C37820   6.020   8.996  27.892 -0.1679 -0.0690  0.2901
 1576BOLB   C1D37821   5.286   9.790  26.934 -0.0401  0.2581 -0.3055
 1576BOLB   C2D37822   5.723   9.944  27.002 -0.1214 -0.3156  0.1501
 1576BOLB   C3D37823   6.140   9.965  27.106 -0.0678  0.0592  0.2262
 1576BOLB   C4D37824   6.495   9.778  27.358 -0.2328 -0.3761  0.2031
 1577BOLB   NC137825   8.215  10.105  32.934  0.2485 -0.1332 -0.0035
 1577BOLB   PO137826   8.059  10.473  33.154  0.0107  0.0915  0.1936
 1577BOLB   GL137827   7.633  10.526  33.283 -0.1682 -0.5192  0.4434
 1577BOLB   GL237828   7.707  10.551  33.608 -0.2118  0.1453  0.1889
 1577BOLB   C1A37829   7.175  10.383  33.194 -0.0914 -0.2506  0.2666
 1577BOLB   C2A37830   6.890   9.985  33.204 -0.1357 -0.0337 -0.2126
 1577BOLB   C3A37831   6.743   9.529  33.336  0.2523 -0.3795 -0.0043
 1577BOLB   C4A37832   6.560   9.205  33.258 -0.3401 -0.1041  0.2819
 1577BOLB   C1B37833   7.337  10.479  33.679  0.0726  0.0336  0.0176
 1577BOLB   C2B37834   6.918  10.280  33.695  0.2492  0.0472 -0.0080
 1577BOLB   C3B37835   6.622  10.004  33.597 -0.0023  0.1132 -0.1225
 1577BOLB   C4B37836   6.318   9.987  33.205 -0.1328 -0.0944  0.1690
 1577BOLB   NC237837   4.869   7.709  34.530 -0.1482 -0.0807 -0.0592
 1577BOLB   PO237838   5.282   7.567  34.483 -0.0275  0.3482 -0.0767
 1577BOLB   GL337839   5.613   7.787  34.271  0.1357  0.3119 -0.0935
 1577BOLB   GL437840   5.803   7.647  34.161  0.2585  0.1874  0.3440
 1577BOLB   C1C37841   5.760   8.132  33.978  0.1340 -0.0635  0.1794
 1577BOLB   C2C37842   5.730   8.514  33.732 -0.1204  0.1475  0.0256
 1577BOLB   C3C37843   6.075   8.685  33.504 -0.2261  0.1896 -0.1168
 1577BOLB   C4C37844   6.299   8.886  33.294 -0.1412  0.0661  0.0535
 1577BOLB   C1D37845   6.042   7.969  34.328 -0.4113 -0.3555 -0.1225
 1577BOLB   C2D37846   6.309   8.201  34.106 -0.0293 -0.2630  0.0543
 1577BOLB   C3D37847   6.498   8.586  33.937 -0.1428  0.1318  0.0967
 1577BOLB   C4D37848   6.623   9.048  34.113 -0.1987  0.4997  0.2640
 1578BOLB   NC137849  16.401   8.974  39.127  0.1658  0.2668 -0.0823
 1578BOLB   PO137850  16.565   9.247  39.386  0.2089  0.0571 -0.2675
 1578BOLB   GL137851  16.930   9.184  39.664  0.0111 -0.3389  0.1566
 1578BOLB   GL237852  17.302   9.143  39.504 -0.0890 -0.1444 -0.1031
 1578BOLB   C1A37853  17.218   8.968  40.043 -0.0461 -0.0888  0.2208
 1578BOLB   C2A37854  17.376   8.760  40.435 -0.1126 -0.0337  0.2155
 1578BOLB   C3A37855  17.396   8.723  40.883  0.2282  0.1687 -0.0343
 1578BOLB   C4A37856  17.770   8.618  41.112 -0.0764 -0.1420 -0.2592
 1578BOLB   C1B37857  17.688   8.923  39.833  0.0209 -0.2779  0.0946
 1578BOLB   C2B37858  17.839   8.903  40.262 -0.3355 -0.1854  0.1767
 1578BOLB   C3B37859  17.795   8.953  40.649  0.0127  0.2500  0.1664
 1578BOLB   C4B37860  17.677   9.059  41.072  0.0976  0.2153  0.2062
 1578BOLB   NC237861  18.629   7.917  43.404 -0.2735 -0.0291  0.0569
 1578BOLB   PO237862  18.549   7.891  42.971 -0.2266 -0.0515  0.1156
 1578BOLB   GL337863  18.354   8.343  42.813 -0.2481 -0.1304  0.1766
 1578BOLB   GL437864  18.617   8.298  42.602  0.0419 -0.0840  0.3756
 1578BOLB   C1C37865  18.133   8.492  42.543  0.1232  0.0825  0.0575
 1578BOLB   C2C37866  18.015   8.738  42.259  0.0555  0.3846 -0.3531
 1578BOLB   C3C37867  18.050   9.026  41.848  0.3520 -0.0209 -0.2294
 1578BOLB   C4C37868  17.989   8.888  41.417 -0.0363 -0.0391 -0.1849
 1578BOLB   C1D37869  18.531   8.281  42.203 -0.1023 -0.1842  0.0772
 1578BOLB   C2D37870  18.744   8.289  41.769  0.2535 -0.1802  0.1391
 1578BOLB   C3D37871  18.935   8.307  41.392  0.2000 -0.1610  0.0163
 1578BOLB   C4D37872  19.072   8.435  41.082 -0.1022 -0.1449  0.0073
 1579BOLB   NC137873  13.379  21.244  28.981 -0.2883 -0.4366 -0.1328
 1579BOLB   PO137874  13.155  21.226  29.373 -0.3773 -0.4153  0.1940
 1579BOLB   GL137875  13.332  21.591  29.377  0.0131  0.1123  0.0875
 1579BOLB   GL237876  13.535  21.707  29.116 -0.0570  0.1295  0.0837
 1579BOLB   C1A37877  13.515  22.058  29.574 -0.0287 -0.1912  0.1140
 1579BOLB   C2A37878  13.564  22.533  29.541  0.4724  0.0276  0.0057
 1579BOLB   C3A37879  13.730  22.890  29.340 -0.2405 -0.0324 -0.3818
 1579BOLB   C4A37880  13.615  23.304  29.131 -0.1765  0.0310  0.0152
 1579BOLB   C1B37881  13.552  22.254  29.107  0.1309  0.1841 -0.1597
 1579BOLB   C2B37882  13.673  22.622  28.825  0.2080 -0.0764 -0.2023
 1579BOLB   C3B37883  13.968  22.953  28.841 -0.2592 -0.0748  0.3164
 1579BOLB   C4B37884  14.274  23.169  28.958 -0.0910 -0.2623 -0.0207
 1579BOLB   NC237885  13.540  25.105  28.721 -0.2361  0.2490 -0.1803
 1579BOLB   PO237886  13.547  25.438  29.092 -0.1652  0.0063  0.2040
 1579BOLB   GL337887  13.656  25.053  29.292 -0.3214 -0.2558 -0.0669
 1579BOLB   GL437888  13.717  25.010  29.599  0.1030 -0.0535  0.2453
 1579BOLB   C1C37889  13.469  24.618  29.336 -0.0678 -0.1393  0.3203
 1579BOLB   C2C37890  13.224  24.219  29.235  0.2512 -0.4725  0.0197
 1579BOLB   C3C37891  13.125  23.879  28.961  0.0284  0.2828 -0.1357
 1579BOLB   C4C37892  13.369  23.543  28.988  0.0377 -0.1017 -0.0873
 1579BOLB   C1D37893  14.114  24.861  29.386 -0.2148 -0.0094  0.3019
 1579BOLB   C2D37894  14.268  24.501  29.172  0.4298  0.1955  0.0385
 1579BOLB   C3D37895  14.114  24.069  29.272  0.1477 -0.1335 -0.1591
 1579BOLB   C4D37896  13.934  23.668  29.029 -0.2767 -0.1406  0.1534
 1580BOLB   NC137897  13.180  19.812  35.805 -0.1111 -0.1767  0.0848
 1580BOLB   PO137898  13.455  19.939  35.417  0.0168 -0.0433 -0.1124
 1580BOLB   GL137899  13.257  20.367  35.332 -0.1158  0.1915  0.1344
 1580BOLB   GL237900  13.233  20.475  35.055  0.1583  0.0167 -0.0292
 1580BOLB   C1A37901  13.216  20.719  35.583 -0.1721 -0.1725  0.0540
 1580BOLB   C2A37902  13.299  21.187  35.482  0.0965 -0.0351  0.0629
 1580BOLB   C3A37903  13.169  21.693  35.300 -0.1043  0.0582 -0.1792
 1580BOLB   C4A37904  12.814  21.796  35.495  0.2281 -0.1712  0.0611
 1580BOLB   C1B37905  12.880  20.792  35.013  0.1793  0.1405 -0.0988
 1580BOLB   C2B37906  12.840  21.228  34.997 -0.0846 -0.0378 -0.6895
 1580BOLB   C3B37907  12.663  21.485  35.122 -0.0649  0.0836 -0.1440
 1580BOLB   C4B37908  12.333  21.533  35.484  0.0414 -0.0657 -0.3883
 1580BOLB   NC237909  11.988  23.515  37.438 -0.2445  0.1974  0.3385
 1580BOLB   PO237910  12.422  23.644  37.405  0.0299  0.3042 -0.0661
 1580BOLB   GL337911  12.321  23.249  36.939  0.1086 -0.0447  0.1809
 1580BOLB   GL437912  12.002  23.168  36.929 -0.2055  0.3730 -0.2238
 1580BOLB   C1C37913  12.400  22.842  36.798  0.4594  0.4012  0.2628
 1580BOLB   C2C37914  12.378  22.699  36.395 -0.1764  0.2170  0.4023
 1580BOLB   C3C37915  12.269  22.316  36.082 -0.0992  0.1005  0.4195
 1580BOLB   C4C37916  12.440  21.978  35.800  0.3076 -0.1554  0.2008
 1580BOLB   C1D37917  12.015  23.075  36.529 -0.0487  0.1214 -0.1752
 1580BOLB   C2D37918  11.843  22.806  36.375  0.3794  0.0371 -0.2363
 1580BOLB   C3D37919  12.013  22.690  35.962  0.2529 -0.3109 -0.0667
 1580BOLB   C4D37920  12.114  22.334  35.578 -0.1728  0.1417 -0.0817
 1581BOLB   NC137921  22.507   7.954  24.786 -0.2050 -0.0621 -0.0466
 1581BOLB   PO137922  22.333   7.844  24.349 -0.0909 -0.1298 -0.0826
 1581BOLB   GL137923  22.692   7.768  24.223 -0.0539  0.0969  0.0353
 1581BOLB   GL237924  22.963   7.726  24.399 -0.1918  0.1300 -0.1191
 1581BOLB   C1A37925  22.793   7.689  23.775 -0.2437 -0.1201  0.0312
 1581BOLB   C2A37926  22.650   7.197  23.607 -0.3897 -0.0469  0.0748
 1581BOLB   C3A37927  22.754   6.907  23.372 -0.1762 -0.2460  0.1264
 1581BOLB   C4A37928  22.885   6.680  23.085  0.1584  0.0851  0.0147
 1581BOLB   C1B37929  23.030   7.319  24.131  0.0340 -0.1696 -0.2625
 1581BOLB   C2B37930  23.091   7.061  23.881 -0.0611 -0.0138  0.2678
 1581BOLB   C3B37931  23.198   7.034  23.356  0.0594  0.2764  0.0712
 1581BOLB   C4B37932  23.276   7.346  23.070 -0.1360  0.0414 -0.3902
 1581BOLB   NC237933  25.150   5.599  22.736  0.0100  0.2178  0.0451
 1581BOLB   PO237934  24.818   5.530  22.448  0.1325  0.1502  0.3643
 1581BOLB   GL337935  24.496   5.830  22.539 -0.0093  0.4837  0.1499
 1581BOLB   GL437936  24.328   5.525  22.622 -0.1972  0.1029 -0.1710
 1581BOLB   C1C37937  24.108   6.041  22.745  0.4221 -0.3743  0.0543
 1581BOLB   C2C37938  23.848   6.263  23.057 -0.2126  0.4988  0.3508
 1581BOLB   C3C37939  23.455   6.430  23.257  0.0513  0.2266  0.1241
 1581BOLB   C4C37940  23.217   6.668  22.996  0.1328  0.1736 -0.2765
 1581BOLB   C1D37941  24.282   5.652  23.015 -0.0764 -0.3322  0.0481
 1581BOLB   C2D37942  24.023   5.854  23.318  0.0436 -0.0404 -0.0221
 1581BOLB   C3D37943  23.811   6.066  23.599 -0.1916 -0.0274 -0.1327
 1581BOLB   C4D37944  23.440   6.287  23.718  0.2947 -0.1800  0.0568
 1582BOLB   NC137945  18.087   5.768  35.423 -0.3492 -0.0039  0.2078
 1582BOLB   PO137946  17.834   5.768  35.045  0.1738  0.1234  0.1740
 1582BOLB   GL137947  17.949   5.333  35.124  0.0930 -0.0857 -0.0921
 1582BOLB   GL237948  17.767   5.340  35.285 -0.2130  0.3919  0.0334
 1582BOLB   C1A37949  18.064   4.949  35.330  0.2762  0.0319  0.2121
 1582BOLB   C2A37950  18.303   4.640  35.552 -0.2108 -0.0136 -0.2063
 1582BOLB   C3A37951  18.468   4.300  35.727  0.0146  0.2042 -0.1871
 1582BOLB   C4A37952  18.302   3.978  36.005  0.0413 -0.1943  0.2692
 1582BOLB   C1B37953  17.577   4.994  35.409  0.2131 -0.2424  0.2589
 1582BOLB   C2B37954  17.724   4.729  35.665  0.3069  0.1243  0.2821
 1582BOLB   C3B37955  17.819   4.372  35.878  0.1385  0.1810 -0.2281
 1582BOLB   C4B37956  18.120   4.596  36.008 -0.2258 -0.1809  0.0658
 1582BOLB   NC237957  19.326   2.522  37.896 -0.1850  0.0673  0.3919
 1582BOLB   PO237958  18.786   2.476  37.682 -0.1224 -0.3694  0.0202
 1582BOLB   GL337959  18.633   2.685  37.364  0.2358  0.2227  0.0609
 1582BOLB   GL437960  18.534   2.938  37.429  0.2978  0.0680  0.5092
 1582BOLB   C1C37961  18.669   2.607  36.928  0.0064 -0.2674 -0.0816
 1582BOLB   C2C37962  18.612   2.847  36.509  0.1098 -0.0863 -0.0449
 1582BOLB   C3C37963  18.475   3.055  36.095  0.0261  0.0093 -0.3306
 1582BOLB   C4C37964  18.368   3.528  36.106 -0.0389 -0.1752  0.0444
 1582BOLB   C1D37965  18.441   3.153  36.932  0.1798 -0.0330 -0.2621
 1582BOLB   C2D37966  18.263   3.247  36.532  0.0528  0.1460  0.2585
 1582BOLB   C3D37967  17.881   3.515  36.313  0.0552  0.2008  0.0056
 1582BOLB   C4D37968  17.764   3.940  36.165  0.4255 -0.1592 -0.0159
 1583BOLB   NC137969  15.756  14.612  39.455  0.1289 -0.0129 -0.4033
 1583BOLB   PO137970  15.744  14.587  39.844  0.0328 -0.5598  0.2659
 1583BOLB   GL137971  15.665  14.761  40.272 -0.2209 -0.0013 -0.2691
 1583BOLB   GL237972  15.394  14.913  40.310 -0.2055  0.3718 -0.2116
 1583BOLB   C1A37973  15.755  15.006  40.664 -0.1942  0.0093  0.0030
 1583BOLB   C2A37974  16.099  15.029  41.015 -0.0366  0.0366 -0.1575
 1583BOLB   C3A37975  16.325  15.021  41.445  0.4488  0.2235  0.5924
 1583BOLB   C4A37976  16.319  14.961  41.895  0.3016  0.0226 -0.1028
 1583BOLB   C1B37977  15.274  15.168  40.640  0.1754  0.1522 -0.1869
 1583BOLB   C2B37978  14.908  15.380  40.989  0.0050 -0.0875 -0.1108
 1583BOLB   C3B37979  14.645  15.889  41.052 -0.1440 -0.0176  0.1517
 1583BOLB   C4B37980  14.648  16.158  40.703 -0.0531 -0.0309  0.0976
 1583BOLB   NC237981  17.912  14.960  43.601  0.3804 -0.3322 -0.4279
 1583BOLB   PO237982  18.064  14.509  43.714 -0.1250 -0.2360  0.0576
 1583BOLB   GL337983  17.921  14.524  43.243 -0.2987 -0.1237 -0.1188
 1583BOLB   GL437984  17.947  14.919  43.143 -0.0955  0.2209 -0.1600
 1583BOLB   C1C37985  17.681  14.543  42.832 -0.1191 -0.0807  0.0734
 1583BOLB   C2C37986  17.466  14.477  42.440  0.3695 -0.0712 -0.2685
 1583BOLB   C3C37987  16.989  14.451  42.287  0.1323 -0.1044 -0.3582
 1583BOLB   C4C37988  16.706  14.528  41.997 -0.0239 -0.2076  0.3343
 1583BOLB   C1D37989  18.157  14.960  42.811 -0.3494 -0.1104  0.0887
 1583BOLB   C2D37990  17.968  14.844  42.403  0.0024  0.0138 -0.0254
 1583BOLB   C3D37991  17.619  14.739  42.067  0.0876  0.1530  0.1378
 1583BOLB   C4D37992  17.374  14.305  41.894  0.0975  0.2302  0.0841
 1584BOLB   NC137993  11.729   7.662  36.017 -0.2105 -0.1325 -0.3162
 1584BOLB   PO137994  11.558   7.862  36.333  0.1440 -0.2661 -0.0395
 1584BOLB   GL137995  11.454   7.483  36.556 -0.0057  0.1304 -0.0885
 1584BOLB   GL237996  11.528   7.148  36.488  0.0451 -0.1298  0.3045
 1584BOLB   C1A37997  11.208   7.297  36.895 -0.1576  0.0197 -0.2976
 1584BOLB   C2A37998  10.811   6.901  37.130 -0.1091 -0.1369  0.0018
 1584BOLB   C3A37999  10.577   6.682  37.513  0.0585  0.2084 -0.1737
 1584BOLB   C4A38000  10.340   6.328  37.690 -0.2707 -0.1141  0.1146
 1584BOLB   C1B38001  11.195   6.874  36.622  0.0202 -0.1612  0.2079
 1584BOLB   C2B38002  10.702   6.717  36.563 -0.2024  0.1155 -0.1269
 1584BOLB   C3B38003  10.404   6.472  36.685 -0.3344  0.2281 -0.0951
 1584BOLB   C4B38004  10.044   6.118  36.695  0.0461 -0.0071  0.2592
 1584BOLB   NC238005   8.364   4.543  38.535 -0.0062 -0.2037 -0.1267
 1584BOLB   PO238006   8.796   4.731  38.367  0.0518 -0.3708 -0.1558
 1584BOLB   GL338007   9.151   4.984  38.186  0.2170 -0.1316 -0.0971
 1584BOLB   GL438008   9.333   4.763  38.144  0.3951  0.0684  0.2658
 1584BOLB   C1C38009   9.448   5.194  37.858  0.2176 -0.3072  0.1318
 1584BOLB   C2C38010   9.575   5.495  37.594 -0.0837 -0.2515  0.0859
 1584BOLB   C3C38011   9.958   5.688  37.557 -0.2521 -0.3314  0.1076
 1584BOLB   C4C38012  10.200   5.988  37.400  0.0049 -0.1738 -0.2551
 1584BOLB   C1D38013   9.765   4.786  38.055 -0.0540 -0.0577  0.1768
 1584BOLB   C2D38014  10.154   4.768  37.952 -0.0167  0.0318 -0.2582
 1584BOLB   C3D38015  10.455   5.035  37.899  0.0221  0.2173  0.0931
 1584BOLB   C4D38016  10.522   5.331  38.066  0.0978 -0.1549  0.0643
 1585BOLB   NC138017  21.409  15.695  35.801  0.0084  0.0425 -0.0757
 1585BOLB   PO138018  21.576  16.148  35.612 -0.1172 -0.0551 -0.1206
 1585BOLB   GL138019  21.936  16.126  35.937  0.4134  0.2111  0.3035
 1585BOLB   GL238020  22.224  15.914  35.792 -0.0605  0.0408 -0.1189
 1585BOLB   C1A38021  22.307  16.257  36.232 -0.1522 -0.0329 -0.0667
 1585BOLB   C2A38022  22.408  16.400  36.613 -0.3126 -0.0325 -0.2281
 1585BOLB   C3A38023  22.202  16.458  37.092 -0.0463  0.3688  0.1077
 1585BOLB   C4A38024  22.228  16.714  37.490  0.0243 -0.2934 -0.0706
 1585BOLB   C1B38025  22.672  16.159  35.825  0.2387  0.4219 -0.0919
 1585BOLB   C2B38026  22.894  16.394  36.271  0.0661 -0.3137  0.3264
 1585BOLB   C3B38027  23.072  16.782  36.152  0.0018 -0.0959  0.0505
 1585BOLB   C4B38028  23.420  16.949  36.079  0.0869 -0.2509  0.0846
 1585BOLB   NC238029  23.767  16.698  39.472  0.1413 -0.3022  0.2085
 1585BOLB   PO238030  23.797  16.873  39.104  0.1235  0.0272 -0.1681
 1585BOLB   GL338031  23.373  16.818  39.140 -0.0982  0.0785  0.2385
 1585BOLB   GL438032  23.376  16.534  39.169  0.3657 -0.0947 -0.0442
 1585BOLB   C1C38033  23.032  16.893  38.873  0.2098  0.1318  0.1996
 1585BOLB   C2C38034  22.828  16.855  38.412 -0.2366  0.0979 -0.2129
 1585BOLB   C3C38035  22.486  16.883  38.246  0.0613  0.0444 -0.1335
 1585BOLB   C4C38036  22.363  16.844  37.898  0.1631 -0.2642 -0.0570
 1585BOLB   C1D38037  23.147  16.415  38.873 -0.0430  0.3200 -0.3631
 1585BOLB   C2D38038  22.989  16.410  38.510  0.0899 -0.0564  0.0803
 1585BOLB   C3D38039  23.132  16.582  38.124 -0.3175 -0.0930 -0.0358
 1585BOLB   C4D38040  22.839  16.660  37.888 -0.0538 -0.0426  0.0477
 1586BOLB   NC138041  13.569  21.544  31.114  0.1729  0.1875  0.0506
 1586BOLB   PO138042  13.232  21.434  30.849  0.4723 -0.3530  0.4970
 1586BOLB   GL138043  13.221  21.888  30.882 -0.0205 -0.1162 -0.0612
 1586BOLB   GL238044  13.082  21.841  31.158  0.1575 -0.1429 -0.2965
 1586BOLB   C1A38045  12.993  22.246  30.887 -0.0603  0.0918 -0.1888
 1586BOLB   C2A38046  13.063  22.553  31.069  0.0691  0.0918  0.0242
 1586BOLB   C3A38047  12.996  23.047  31.035  0.0642 -0.1883  0.0888
 1586BOLB   C4A38048  12.635  23.325  30.836 -0.1526 -0.1348  0.0909
 1586BOLB   C1B38049  13.329  22.198  31.333 -0.1451 -0.3815  0.0674
 1586BOLB   C2B38050  13.546  22.487  31.304  0.1666 -0.0294 -0.0947
 1586BOLB   C3B38051  13.520  22.905  31.307  0.1469  0.0559  0.0524
 1586BOLB   C4B38052  13.317  23.283  31.350 -0.2467  0.2324  0.2504
 1586BOLB   NC238053  10.680  24.808  31.127  0.4879 -0.0025  0.2110
 1586BOLB   PO238054  10.926  24.712  30.765 -0.0402 -0.0654 -0.2592
 1586BOLB   GL338055  11.016  24.339  30.913  0.3195 -0.0294  0.1280
 1586BOLB   GL438056  10.811  24.137  30.837  0.2236 -0.0425  0.0845
 1586BOLB   C1C38057  11.334  24.114  30.692  0.1090 -0.4428  0.2656
 1586BOLB   C2C38058  11.738  24.013  30.521 -0.3031 -0.3383  0.1421
 1586BOLB   C3C38059  12.107  23.859  30.597 -0.0535  0.0338  0.0776
 1586BOLB   C4C38060  12.368  23.661  30.768 -0.1764 -0.0698  0.2276
 1586BOLB   C1D38061  10.943  23.658  30.795 -0.1908  0.0826 -0.0130
 1586BOLB   C2D38062  10.781  23.213  30.865  0.1799 -0.3308  0.0594
 1586BOLB   C3D38063  11.113  22.943  31.022  0.0252  0.1566 -0.2949
 1586BOLB   C4D38064  11.501  23.019  31.017  0.0991 -0.1110  0.0455
 1587BOLB   NC138065  18.581   4.164  29.079  0.1753 -0.3476  0.2204
 1587BOLB   PO138066  18.823   4.172  29.409  0.2407  0.0624 -0.0558
 1587BOLB   GL138067  18.695   3.779  29.422 -0.3275 -0.0784 -0.0768
 1587BOLB   GL238068  18.718   3.690  29.117  0.1460 -0.1409 -0.1538
 1587BOLB   C1A38069  18.862   3.397  29.545 -0.0320 -0.0605 -0.0008
 1587BOLB   C2A38070  19.080   3.026  29.359 -0.2144 -0.2388 -0.2587
 1587BOLB   C3A38071  19.012   2.624  29.205  0.0145  0.1308 -0.1925
 1587BOLB   C4A38072  19.031   2.230  29.145 -0.0791  0.1931  0.0903
 1587BOLB   C1B38073  19.023   3.395  28.985 -0.2035  0.0337 -0.0674
 1587BOLB   C2B38074  19.443   3.128  29.023  0.1765  0.1026  0.0343
 1587BOLB   C3B38075  19.863   2.862  29.224  0.1365  0.0386  0.1249
 1587BOLB   C4B38076  19.977   2.532  29.536 -0.0742 -0.0097  0.2875
 1587BOLB   NC238077  18.589   0.049  28.382 -0.0867 -0.1330 -0.0120
 1587BOLB   PO238078  18.963   0.071  28.667 -0.0284  0.2128 -0.1558
 1587BOLB   GL338079  18.772   0.449  28.641  0.3525  0.2762  0.1990
 1587BOLB   GL438080  18.471   0.525  28.376  0.1765 -0.2566  0.3694
 1587BOLB   C1C38081  18.784   0.951  28.515 -0.2488 -0.1206  0.1496
 1587BOLB   C2C38082  18.944   1.428  28.610  0.1065 -0.0585  0.1553
 1587BOLB   C3C38083  19.047   1.767  28.609 -0.2303  0.0653  0.0993
 1587BOLB   C4C38084  19.045   2.096  28.806 -0.0370  0.3861 -0.1413
 1587BOLB   C1D38085  18.204   0.815  28.363  0.1057  0.3185  0.3256
 1587BOLB   C2D38086  18.042   1.225  28.141  0.0726  0.0038  0.0113
 1587BOLB   C3D38087  18.076   1.587  28.250 -0.1144 -0.0789  0.0567
 1587BOLB   C4D38088  18.378   1.996  28.268 -0.1218  0.4516  0.5397
 1588BOLB   NC138089  22.745  14.254  31.678 -0.0013 -0.1605  0.0492
 1588BOLB   PO138090  22.665  14.612  31.374 -0.1018  0.1479  0.2627
 1588BOLB   GL138091  23.092  14.514  31.381 -0.0608 -0.0625  0.2131
 1588BOLB   GL238092  23.248  14.844  31.272  0.0269  0.2364 -0.3877
 1588BOLB   C1A38093  23.518  14.560  31.532  0.2336 -0.3984  0.2463
 1588BOLB   C2A38094  23.965  14.619  31.710 -0.1617 -0.1613 -0.2060
 1588BOLB   C3A38095  24.312  14.973  31.704 -0.0065 -0.2000  0.1455
 1588BOLB   C4A38096  24.666  15.083  31.645 -0.1968 -0.0654  0.0189
 1588BOLB   C1B38097  23.687  14.967  31.334 -0.1926 -0.1328 -0.1643
 1588BOLB   C2B38098  24.123  15.128  31.221  0.1204 -0.0303  0.1968
 1588BOLB   C3B38099  24.364  14.870  30.802  0.2332 -0.1749 -0.0199
 1588BOLB   C4B38100  24.734  14.687  30.666  0.1061 -0.1230  0.1370
 1588BOLB   NC238101  26.802  15.397  33.052 -0.1853 -0.0402  0.1106
 1588BOLB   PO238102  26.813  15.560  32.625  0.0140 -0.1784  0.1791
 1588BOLB   GL338103  26.666  15.150  32.551  0.0646  0.2492 -0.1067
 1588BOLB   GL438104  26.816  14.920  32.727 -0.1778  0.1915  0.1234
 1588BOLB   C1C38105  26.240  15.090  32.243 -0.1987 -0.0200 -0.0440
 1588BOLB   C2C38106  25.963  15.063  31.820  0.2827 -0.0402 -0.2448
 1588BOLB   C3C38107  25.516  15.087  31.748 -0.2086  0.2927  0.1803
 1588BOLB   C4C38108  25.059  15.172  31.793  0.2184 -0.0130  0.1720
 1588BOLB   C1D38109  26.641  14.718  32.388 -0.2017  0.1632  0.0552
 1588BOLB   C2D38110  26.345  14.469  32.505  0.2566  0.0755  0.0488
 1588BOLB   C3D38111  26.035  14.269  32.369 -0.1909 -0.0382  0.4271
 1588BOLB   C4D38112  25.599  14.193  32.232  0.2643  0.0355  0.3087
 1589BOLB   NC138113  23.967  11.899  30.900 -0.1144 -0.2952  0.1205
 1589BOLB   PO138114  24.195  11.781  30.460  0.1404 -0.0860 -0.3710
 1589BOLB   GL138115  24.496  12.084  30.510 -0.1413 -0.0110  0.1567
 1589BOLB   GL238116  24.787  11.968  30.637 -0.0486  0.2195  0.3621
 1589BOLB   C1A38117  24.722  12.448  30.662 -0.0230 -0.1416 -0.4034
 1589BOLB   C2A38118  24.899  12.834  30.722  0.0647  0.0623  0.3464
 1589BOLB   C3A38119  25.052  13.096  30.565  0.1313  0.6385  0.3710
 1589BOLB   C4A38120  25.376  13.368  30.628  0.1348 -0.1718  0.0506
 1589BOLB   C1B38121  25.185  11.827  30.613 -0.0841 -0.0303 -0.0091
 1589BOLB   C2B38122  25.312  11.405  30.699  0.0379 -0.0405  0.2668
 1589BOLB   C3B38123  25.653  11.120  30.703 -0.2398  0.2028 -0.0687
 1589BOLB   C4B38124  25.938  10.749  30.735 -0.1643  0.0657 -0.2941
 1589BOLB   NC238125   0.606  13.686  30.398 -0.1701  0.1903  0.2065
 1589BOLB   PO238126   0.594  13.798  29.961  0.4045  0.3300 -0.2168
 1589BOLB   GL338127   0.194  13.600  30.074  0.0004 -0.1731 -0.1102
 1589BOLB   GL438128   0.196  13.278  30.018  0.0610 -0.0773  0.1130
 1589BOLB   C1C38129  26.880  13.608  30.024  0.3111  0.1286  0.1938
 1589BOLB   C2C38130  26.503  13.455  30.156 -0.3243 -0.0156  0.1366
 1589BOLB   C3C38131  26.245  13.604  30.485 -0.2068  0.0700 -0.1317
 1589BOLB   C4C38132  25.840  13.307  30.509  0.0934 -0.0947 -0.1567
 1589BOLB   C1D38133  26.867  13.033  30.156  0.0730 -0.1125  0.0117
 1589BOLB   C2D38134  26.585  12.704  30.199  0.1142  0.1098 -0.0285
 1589BOLB   C3D38135  26.252  12.534  30.082  0.0416  0.1365 -0.3676
 1589BOLB   C4D38136  25.974  12.373  29.838  0.1790 -0.0693  0.1227
 1590BOLB   NC138137  20.173   2.671  38.555  0.2526  0.2121 -0.0077
 1590BOLB   PO138138  20.123   3.176  38.375 -0.0385  0.1318  0.0959
 1590BOLB   GL138139  19.977   3.416  38.011  0.4312  0.1926 -0.0143
 1590BOLB   GL238140  20.166   3.672  37.880 -0.0162  0.2289 -0.1871
 1590BOLB   C1A38141  19.686   3.603  37.916 -0.2478 -0.0006 -0.0055
 1590BOLB   C2A38142  19.598   4.100  37.696 -0.2767  0.1298 -0.1264
 1590BOLB   C3A38143  19.313   4.180  37.422  0.0628 -0.0441  0.0241
 1590BOLB   C4A38144  19.048   4.348  37.112  0.1909 -0.0281  0.3436
 1590BOLB   C1B38145  20.123   4.076  37.747  0.0261 -0.2908  0.4340
 1590BOLB   C2B38146  19.891   4.502  37.576  0.0517  0.1013  0.1803
 1590BOLB   C3B38147  19.550   4.631  37.426  0.0731  0.3050  0.7143
 1590BOLB   C4B38148  19.390   4.737  37.121 -0.0459 -0.3225  0.0988
 1590BOLB   NC238149  20.045   1.996  35.821  0.0139  0.2593 -0.1133
 1590BOLB   PO238150  19.978   2.179  36.197  0.0170  0.1176  0.1953
 1590BOLB   GL338151  19.574   2.414  36.179 -0.3107  0.3607 -0.0598
 1590BOLB   GL438152  19.638   2.416  35.927  0.1313 -0.0072 -0.3626
 1590BOLB   C1C38153  19.485   2.856  36.147 -0.4523 -0.0062 -0.0101
 1590BOLB   C2C38154  19.259   3.310  36.211  0.1708 -0.0947 -0.0240
 1590BOLB   C3C38155  19.256   3.664  36.596 -0.0571 -0.0387  0.1030
 1590BOLB   C4C38156  19.062   3.998  36.753 -0.0397  0.2459 -0.1002
 1590BOLB   C1D38157  19.730   2.512  35.417 -0.0142  0.2210  0.1204
 1590BOLB   C2D38158  19.656   2.752  35.084  0.1819 -0.1474 -0.1151
 1590BOLB   C3D38159  19.470   3.152  34.940 -0.2263 -0.0542  0.2922
 1590BOLB   C4D38160  19.196   3.437  34.914 -0.0460 -0.0340  0.0037
 1591BOLB   NC138161  20.754   5.107  29.001 -0.1226  0.0059 -0.0445
 1591BOLB   PO138162  20.405   5.039  28.761  0.0317 -0.1425 -0.2148
 1591BOLB   GL138163  20.710   4.642  28.771  0.1611 -0.2242  0.1932
 1591BOLB   GL238164  20.495   4.365  28.886 -0.1788  0.0040 -0.1469
 1591BOLB   C1A38165  20.833   4.060  28.693 -0.0331  0.2236 -0.3863
 1591BOLB   C2A38166  20.752   3.656  28.620  0.2370 -0.1694 -0.3651
 1591BOLB   C3A38167  20.751   3.218  28.777 -0.2014  0.1199 -0.2453
 1591BOLB   C4A38168  20.843   2.784  28.874  0.1021 -0.1227  0.0484
 1591BOLB   C1B38169  20.378   3.980  28.980 -0.3038 -0.1444 -0.1238
 1591BOLB   C2B38170  20.433   3.566  28.992 -0.1040  0.2215  0.0029
 1591BOLB   C3B38171  20.307   3.228  28.701  0.0310  0.3107  0.2330
 1591BOLB   C4B38172  20.439   2.914  28.492 -0.0476 -0.0221  0.1431
 1591BOLB   NC238173  22.591   1.157  29.647  0.0156  0.1793 -0.1472
 1591BOLB   PO238174  22.345   1.420  29.369 -0.0566  0.0014 -0.0910
 1591BOLB   GL338175  22.122   1.670  29.458  0.1398  0.1405 -0.0247
 1591BOLB   GL438176  21.881   1.474  29.434 -0.0195 -0.0186 -0.1280
 1591BOLB   C1C38177  21.838   1.957  29.270 -0.0750 -0.0339  0.0750
 1591BOLB   C2C38178  21.660   2.084  28.911 -0.4473  0.0237 -0.1749
 1591BOLB   C3C38179  21.339   2.236  28.666  0.2302  0.0610 -0.0433
 1591BOLB   C4C38180  20.940   2.386  28.668 -0.0121  0.2182  0.1311
 1591BOLB   C1D38181  21.717   1.761  29.790  0.0954 -0.0833  0.0425
 1591BOLB   C2D38182  21.626   2.178  29.719 -0.1010  0.2569  0.2603
 1591BOLB   C3D38183  21.586   2.475  29.289 -0.0620  0.1161 -0.0429
 1591BOLB   C4D38184  21.306   2.641  28.963 -0.0039 -0.0417 -0.2938
 1592BOLB   NC138185  10.628  12.644  22.545 -0.0896  0.1203 -0.0114
 1592BOLB   PO138186  10.684  13.018  22.364  0.1847 -0.0662  0.0671
 1592BOLB   GL138187  10.406  13.086  22.095  0.1963  0.1792  0.0229
 1592BOLB   GL238188  10.314  12.761  22.052 -0.3852  0.0536 -0.2241
 1592BOLB   C1A38189  10.235  13.026  21.638  0.0774 -0.2119 -0.1171
 1592BOLB   C2A38190  10.148  13.128  21.200  0.2667  0.0022  0.1660
 1592BOLB   C3A38191  10.174  12.924  20.796 -0.0294  0.1860 -0.0334
 1592BOLB   C4A38192  10.072  12.556  20.711 -0.0885 -0.3510 -0.0926
 1592BOLB   C1B38193  10.427  12.478  21.690 -0.0956  0.0024 -0.1451
 1592BOLB   C2B38194  10.163  12.165  21.498 -0.1581  0.3066  0.1703
 1592BOLB   C3B38195   9.778  12.121  21.386 -0.0129 -0.0736  0.0736
 1592BOLB   C4B38196   9.346  12.042  21.290 -0.1279  0.0535 -0.0286
 1592BOLB   NC238197   7.921  11.154  19.533  0.2439 -0.1522 -0.0160
 1592BOLB   PO238198   8.290  11.420  19.540  0.0131 -0.2558 -0.2026
 1592BOLB   GL338199   8.568  11.681  19.537 -0.0337 -0.0944 -0.0134
 1592BOLB   GL438200   8.657  11.733  19.200  0.2962 -0.1738  0.0245
 1592BOLB   C1C38201   8.820  11.961  19.715  0.2533  0.0345 -0.1587
 1592BOLB   C2C38202   9.222  12.111  19.832 -0.0986  0.0570  0.3160
 1592BOLB   C3C38203   9.514  12.379  19.981 -0.2993 -0.1435 -0.0658
 1592BOLB   C4C38204   9.886  12.348  20.380 -0.1963  0.1553  0.2202
 1592BOLB   C1D38205   9.018  11.614  19.426  0.1083 -0.1108  0.0886
 1592BOLB   C2D38206   9.281  11.556  19.666  0.0357  0.5284  0.1162
 1592BOLB   C3D38207   9.637  11.804  19.781 -0.0402  0.1817 -0.2269
 1592BOLB   C4D38208   9.928  12.128  19.814 -0.2476  0.2411 -0.1559
 1593BOLB   NC138209  12.436  17.441  37.382 -0.0120 -0.0853 -0.0288
 1593BOLB   PO138210  12.804  17.744  37.123  0.1213 -0.2447 -0.0990
 1593BOLB   GL138211  12.502  17.947  37.191  0.0264  0.1840 -0.1261
 1593BOLB   GL238212  12.311  17.907  37.385 -0.0407  0.1431  0.3336
 1593BOLB   C1A38213  12.334  18.361  37.479  0.3987  0.1779  0.1095
 1593BOLB   C2A38214  12.322  18.578  37.788 -0.1401  0.3773  0.1283
 1593BOLB   C3A38215  12.339  18.856  37.963 -0.0380  0.1021  0.0971
 1593BOLB   C4A38216  12.471  19.341  38.057  0.1619  0.2065 -0.2156
 1593BOLB   C1B38217  12.009  18.009  37.715 -0.4786  0.0196  0.4374
 1593BOLB   C2B38218  11.969  18.323  38.043  0.1473  0.0916  0.1234
 1593BOLB   C3B38219  12.059  18.623  38.279 -0.2052 -0.0880  0.1584
 1593BOLB   C4B38220  12.435  18.926  38.428  0.0567  0.1644 -0.0361
 1593BOLB   NC238221  12.355  20.351  40.330 -0.0094 -0.0742  0.0432
 1593BOLB   PO238222  11.964  20.183  40.159 -0.0931 -0.0976  0.0767
 1593BOLB   GL338223  11.811  19.768  39.883 -0.1153  0.2474 -0.1225
 1593BOLB   GL438224  11.813  19.650  40.196  0.1485 -0.0106  0.3133
 1593BOLB   C1C38225  11.778  19.507  39.485 -0.0283  0.3421  0.0392
 1593BOLB   C2C38226  12.045  19.441  39.230 -0.0635  0.1846  0.0536
 1593BOLB   C3C38227  12.386  19.467  38.898  0.0071 -0.0228 -0.0563
 1593BOLB   C4C38228  12.549  19.442  38.481 -0.2174  0.0363  0.1730
 1593BOLB   C1D38229  11.650  19.222  40.222  0.0365 -0.0961 -0.1169
 1593BOLB   C2D38230  11.863  18.795  40.220 -0.0799 -0.2900  0.0850
 1593BOLB   C3D38231  12.151  18.487  40.026 -0.1990 -0.0865  0.1147
 1593BOLB   C4D38232  12.393  18.215  39.860  0.1588 -0.0981 -0.1536
 1594BOLB   NC138233  19.396  18.376  28.927 -0.1501  0.1374  0.0512
 1594BOLB   PO138234  19.838  18.168  29.191 -0.2157  0.0085 -0.0510
 1594BOLB   GL138235  20.188  18.379  29.062  0.1169  0.2994  0.0510
 1594BOLB   GL238236  20.200  18.390  28.727 -0.0901  0.0118  0.3104
 1594BOLB   C1A38237  20.630  18.586  29.035  0.0511 -0.0915 -0.1403
 1594BOLB   C2A38238  21.000  18.538  28.909  0.2319 -0.2477 -0.2689
 1594BOLB   C3A38239  21.374  18.397  28.691  0.0718 -0.0224 -0.0779
 1594BOLB   C4A38240  21.825  18.320  28.669 -0.1144  0.3033  0.1500
 1594BOLB   C1B38241  20.617  18.445  28.491 -0.1116  0.1242 -0.0968
 1594BOLB   C2B38242  20.992  18.576  28.371 -0.1237  0.0239  0.1340
 1594BOLB   C3B38243  21.130  18.792  28.182 -0.0045 -0.0125  0.0223
 1594BOLB   C4B38244  21.453  18.935  27.920 -0.0672  0.0023 -0.1901
 1594BOLB   NC238245  23.947  19.642  28.119 -0.0418  0.0109 -0.1008
 1594BOLB   PO238246  24.018  19.634  27.718  0.1022  0.3827 -0.0992
 1594BOLB   GL338247  23.767  19.252  27.794 -0.4001 -0.3591 -0.1299
 1594BOLB   GL438248  23.534  19.385  28.094 -0.0705  0.2693  0.0623
 1594BOLB   C1C38249  23.297  19.038  27.909  0.0039 -0.0476  0.0614
 1594BOLB   C2C38250  22.986  18.866  28.108 -0.0894 -0.4377  0.0295
 1594BOLB   C3C38251  22.662  18.713  28.446  0.2821 -0.0317  0.0143
 1594BOLB   C4C38252  22.240  18.460  28.544 -0.0538 -0.0698 -0.1542
 1594BOLB   C1D38253  23.214  19.422  28.339  0.0063 -0.0378 -0.0419
 1594BOLB   C2D38254  23.168  19.509  28.673  0.4288 -0.1825 -0.1000
 1594BOLB   C3D38255  22.847  19.723  28.930 -0.2260 -0.1432  0.2586
 1594BOLB   C4D38256  22.514  19.766  29.275  0.0890 -0.1708  0.0455
 1595BOLB   NC138257  14.845  17.548  21.463 -0.2130  0.1047 -0.1660
 1595BOLB   PO138258  14.896  17.154  21.157 -0.2748  0.0297 -0.0833
 1595BOLB   GL138259  14.587  17.200  20.715 -0.1082  0.2475  0.0121
 1595BOLB   GL238260  14.612  17.026  20.473 -0.2062  0.0776 -0.3946
 1595BOLB   C1A38261  14.406  17.507  20.438 -0.1851 -0.2022  0.2236
 1595BOLB   C2A38262  14.058  17.785  20.263  0.2248 -0.0077  0.0237
 1595BOLB   C3A38263  13.796  18.161  20.115 -0.1291  0.1745  0.1818
 1595BOLB   C4A38264  13.454  18.376  20.007 -0.0094  0.1197 -0.1059
 1595BOLB   C1B38265  14.451  16.962  20.004  0.0626  0.0097 -0.1076
 1595BOLB   C2B38266  14.334  17.202  19.563  0.1413 -0.0683  0.1714
 1595BOLB   C3B38267  14.469  17.611  19.292 -0.1190 -0.0817 -0.3352
 1595BOLB   C4B38268  14.613  17.660  18.838  0.2119  0.0832  0.1047
 1595BOLB   NC238269  11.950  19.407  17.944 -0.5149 -0.0956  0.0324
 1595BOLB   PO238270  12.370  19.505  18.182 -0.0084 -0.0304 -0.0065
 1595BOLB   GL338271  12.575  19.253  18.464 -0.0626  0.2230  0.2716
 1595BOLB   GL438272  12.540  18.914  18.583 -0.1826  0.0082  0.1398
 1595BOLB   C1C38273  12.952  19.194  18.693  0.0992 -0.0301 -0.5763
 1595BOLB   C2C38274  13.184  18.990  18.934 -0.2509 -0.4046  0.2171
 1595BOLB   C3C38275  13.433  18.781  19.261  0.0380  0.0133 -0.1591
 1595BOLB   C4C38276  13.427  18.570  19.608 -0.1330  0.2490  0.0206
 1595BOLB   C1D38277  12.697  18.958  18.999  0.3753  0.0905 -0.1403
 1595BOLB   C2D38278  12.944  18.862  19.366 -0.1745 -0.0412  0.4630
 1595BOLB   C3D38279  13.111  18.994  19.783  0.1329  0.2389 -0.3986
 1595BOLB   C4D38280  13.374  19.094  20.188  0.2208 -0.2683  0.1034
 1596BOLB   NC138281  15.195   9.946  39.888  0.2127  0.0833  0.1301
 1596BOLB   PO138282  15.269   9.432  39.783  0.0094 -0.1694 -0.0543
 1596BOLB   GL138283  14.996   9.182  40.108 -0.0947 -0.1798 -0.2741
 1596BOLB   GL238284  14.588   9.237  40.150  0.1389  0.1615  0.3607
 1596BOLB   C1A38285  14.910   9.279  40.569  0.1039  0.2564  0.2088
 1596BOLB   C2A38286  14.602   9.122  40.857  0.1403 -0.3405  0.0384
 1596BOLB   C3A38287  14.491   8.809  41.151 -0.0550 -0.2153  0.1274
 1596BOLB   C4A38288  14.324   8.760  41.568  0.0755  0.0791  0.2424
 1596BOLB   C1B38289  14.294   9.082  40.481  0.1521  0.0458  0.4716
 1596BOLB   C2B38290  14.157   8.823  40.774  0.1032  0.0975  0.0801
 1596BOLB   C3B38291  14.162   8.445  41.097  0.0874 -0.1184 -0.0541
 1596BOLB   C4B38292  13.877   8.262  41.496 -0.4206  0.1528 -0.0013
 1596BOLB   NC238293  14.197   7.030  43.159 -0.0878  0.0369  0.2057
 1596BOLB   PO238294  14.311   7.112  42.747  0.0043 -0.0915 -0.2867
 1596BOLB   GL338295  14.374   7.170  42.393 -0.1294  0.1202  0.1970
 1596BOLB   GL438296  14.429   6.952  42.157  0.1959  0.4348 -0.0457
 1596BOLB   C1C38297  14.568   7.450  42.184 -0.0617 -0.2313  0.0803
 1596BOLB   C2C38298  14.464   7.745  41.807 -0.1935  0.0783 -0.1401
 1596BOLB   C3C38299  14.249   8.137  41.960 -0.2915 -0.1481 -0.0474
 1596BOLB   C4C38300  14.231   8.564  41.954 -0.0257 -0.0536 -0.0368
 1596BOLB   C1D38301  14.845   7.101  42.005  0.0269  0.1514  0.0456
 1596BOLB   C2D38302  14.903   7.466  41.815  0.0877 -0.1007  0.0195
 1596BOLB   C3D38303  14.776   7.680  41.393 -0.1494  0.0691 -0.1763
 1596BOLB   C4D38304  14.831   7.823  40.917  0.0445 -0.2217 -0.0822
 1597BOLB   NC138305  16.847  19.454  36.002  0.1870 -0.1113  0.3318
 1597BOLB   PO138306  16.413  19.546  36.345  0.1747 -0.5023  0.4132
 1597BOLB   GL138307  16.709  19.802  36.329 -0.0551 -0.0110 -0.0692
 1597BOLB   GL238308  16.888  19.684  36.453 -0.1156  0.1777 -0.2857
 1597BOLB   C1A38309  16.833  20.165  36.235 -0.1506 -0.1302  0.1045
 1597BOLB   C2A38310  16.756  20.576  36.314  0.2495  0.1734 -0.0757
 1597BOLB   C3A38311  16.716  20.509  36.798 -0.3990  0.1215 -0.1618
 1597BOLB   C4A38312  16.716  20.952  37.064 -0.2255  0.2008  0.3477
 1597BOLB   C1B38313  17.256  19.950  36.359 -0.3117  0.1804 -0.2738
 1597BOLB   C2B38314  17.578  20.053  36.481 -0.3631 -0.2775  0.1148
 1597BOLB   C3B38315  17.970  20.201  36.553 -0.0919 -0.1309 -0.1268
 1597BOLB   C4B38316  18.498  20.135  36.552  0.1728 -0.0761  0.2769
 1597BOLB   NC238317  17.577  22.942  37.846 -0.4466  0.0420  0.0530
 1597BOLB   PO238318  17.206  22.826  37.642 -0.2187 -0.2869  0.0728
 1597BOLB   GL338319  17.119  22.451  37.676  0.1099 -0.6160  0.0846
 1597BOLB   GL438320  17.292  22.427  37.300  0.2635 -0.0758  0.2448
 1597BOLB   C1C38321  16.885  22.111  37.692  0.1880  0.2320  0.0600
 1597BOLB   C2C38322  17.041  21.751  37.857 -0.4999 -0.2088 -0.0753
 1597BOLB   C3C38323  17.143  21.337  37.649 -0.0963  0.2162  0.0797
 1597BOLB   C4C38324  17.097  21.028  37.305  0.2803  0.1470  0.0346
 1597BOLB   C1D38325  16.922  22.223  37.160  0.1217  0.0706 -0.0594
 1597BOLB   C2D38326  16.906  21.797  36.859  0.1143 -0.1018  0.1160
 1597BOLB   C3D38327  16.760  21.404  36.747 -0.1989  0.1696 -0.1817
 1597BOLB   C4D38328  16.880  21.099  36.306 -0.0158 -0.0111  0.3061
 1598BOLB   NC138329  12.539  18.644  22.726  0.0052  0.0848 -0.0875
 1598BOLB   PO138330  12.432  18.224  22.665 -0.1650 -0.0418  0.0560
 1598BOLB   GL138331  12.084  18.350  22.445 -0.0726  0.0708  0.3240
 1598BOLB   GL238332  11.728  18.369  22.588 -0.2852 -0.0010  0.0054
 1598BOLB   C1A38333  11.946  18.484  22.135  0.2315 -0.2174 -0.0217
 1598BOLB   C2A38334  11.897  18.883  22.040 -0.1897  0.1520 -0.1022
 1598BOLB   C3A38335  11.724  19.196  21.934 -0.1750 -0.0069 -0.4508
 1598BOLB   C4A38336  11.579  19.611  21.804 -0.0193  0.1102 -0.0553
 1598BOLB   C1B38337  11.588  18.748  22.451  0.0786  0.0205 -0.1087
 1598BOLB   C2B38338  11.374  18.911  22.128 -0.1156  0.1121 -0.1049
 1598BOLB   C3B38339  11.029  18.820  21.835  0.0892  0.0726 -0.2942
 1598BOLB   C4B38340  10.685  18.728  21.904 -0.0384  0.1421  0.0660
 1598BOLB   NC238341  10.472  20.887  20.439  0.0954  0.0194 -0.0387
 1598BOLB   PO238342  10.852  20.781  20.168  0.4179 -0.2546  0.3148
 1598BOLB   GL338343  11.063  20.795  20.539 -0.0288  0.0195  0.2047
 1598BOLB   GL438344  11.268  20.469  20.686  0.2248  0.2128  0.1277
 1598BOLB   C1C38345  10.955  20.663  20.969  0.0265  0.1547 -0.6482
 1598BOLB   C2C38346  11.273  20.422  21.186 -0.1940  0.0025  0.2170
 1598BOLB   C3C38347  11.540  20.146  21.286  0.0640  0.3579  0.2026
 1598BOLB   C4C38348  11.612  19.744  21.430 -0.0702 -0.1625  0.0373
 1598BOLB   C1D38349  11.098  20.083  20.796  0.0035 -0.2108 -0.2604
 1598BOLB   C2D38350  11.115  19.866  21.214  0.0139 -0.0760 -0.2158
 1598BOLB   C3D38351  11.141  19.699  21.627 -0.1686  0.0369  0.2414
 1598BOLB   C4D38352  11.151  19.492  21.975  0.2057  0.3408  0.0518
 1599BOLB   NC138353  11.838  19.731  25.043 -0.2919 -0.1784 -0.2147
 1599BOLB   PO138354  11.404  19.515  24.995  0.2434 -0.1025  0.3951
 1599BOLB   GL138355  11.461  20.019  24.900 -0.3004 -0.0358 -0.0159
 1599BOLB   GL238356  11.682  20.317  25.041 -0.0011  0.1995  0.0147
 1599BOLB   C1A38357  11.197  20.350  24.833  0.3599  0.0381  0.0355
 1599BOLB   C2A38358  11.184  20.710  24.755 -0.1849  0.1205 -0.0708
 1599BOLB   C3A38359  11.044  21.141  24.712 -0.3698  0.0932  0.2385
 1599BOLB   C4A38360  10.931  21.574  24.702 -0.1350  0.0267  0.2590
 1599BOLB   C1B38361  11.608  20.708  25.164  0.2371  0.2011 -0.3117
 1599BOLB   C2B38362  11.363  21.075  25.175  0.0822  0.5090 -0.2345
 1599BOLB   C3B38363  11.217  21.465  25.099  0.0260 -0.1978  0.3686
 1599BOLB   C4B38364  11.193  21.980  25.109 -0.1882  0.1185  0.0430
 1599BOLB   NC238365  10.585  23.541  23.679 -0.1074  0.0687 -0.1486
 1599BOLB   PO238366  10.557  23.326  23.276  0.2149 -0.3382  0.0469
 1599BOLB   GL338367  10.694  23.055  23.360  0.3418 -0.1919 -0.0054
 1599BOLB   GL438368  10.766  22.817  23.122  0.0419 -0.1285 -0.0597
 1599BOLB   C1C38369  10.822  22.857  23.778  0.0982  0.2328 -0.0964
 1599BOLB   C2C38370  10.907  22.490  24.081 -0.0663 -0.0165 -0.0939
 1599BOLB   C3C38371  10.699  22.133  24.098  0.1189  0.0216 -0.3126
 1599BOLB   C4C38372  10.907  21.773  24.309  0.0022  0.1974  0.0226
 1599BOLB   C1D38373  11.101  22.601  23.288 -0.2443  0.0516  0.2532
 1599BOLB   C2D38374  11.256  22.455  23.670 -0.4351  0.0566 -0.1068
 1599BOLB   C3D38375  11.271  22.101  23.963 -0.2614  0.1402  0.0859
 1599BOLB   C4D38376  11.447  21.888  24.233  0.1765 -0.0264 -0.1027
 1600BOLB   NC138377  21.863  11.317  36.905  0.3614 -0.0694  0.1259
 1600BOLB   PO138378  21.937  10.960  37.157 -0.2547 -0.0323  0.4089
 1600BOLB   GL138379  22.248  11.039  37.543 -0.0370 -0.0384 -0.3972
 1600BOLB   GL238380  22.137  10.764  37.658 -0.2967 -0.0942  0.0804
 1600BOLB   C1A38381  22.537  11.073  37.900  0.0723  0.2365 -0.1960
 1600BOLB   C2A38382  22.905  11.129  37.937 -0.0351 -0.1370 -0.1236
 1600BOLB   C3A38383  23.162  10.838  37.839 -0.1545 -0.2839  0.1850
 1600BOLB   C4A38384  23.479  10.693  38.001 -0.0259 -0.0127  0.1455
 1600BOLB   C1B38385  22.303  10.400  37.910 -0.0389  0.1246  0.0219
 1600BOLB   C2B38386  22.465  10.047  37.846  0.1253 -0.1485 -0.0844
 1600BOLB   C3B38387  22.500   9.686  38.111 -0.0320 -0.3205 -0.0514
 1600BOLB   C4B38388  22.352   9.465  38.476 -0.0749  0.0766 -0.1004
 1600BOLB   NC238389  25.438  10.122  39.599 -0.3255 -0.1142 -0.2382
 1600BOLB   PO238390  25.370   9.869  39.192 -0.0853  0.0043  0.0169
 1600BOLB   GL338391  25.002  10.093  39.256 -0.0739 -0.2253 -0.1901
 1600BOLB   GL438392  24.687   9.868  39.300 -0.0090 -0.0443 -0.2083
 1600BOLB   C1C38393  24.621  10.311  39.032 -0.1442 -0.0961  0.0414
 1600BOLB   C2C38394  24.219  10.341  38.947 -0.0044  0.1918 -0.3240
 1600BOLB   C3C38395  23.839  10.420  38.708  0.0700 -0.1433  0.1462
 1600BOLB   C4C38396  23.692  10.485  38.347  0.1661 -0.0308  0.0769
 1600BOLB   C1D38397  24.627   9.844  38.913 -0.0600  0.0497  0.0568
 1600BOLB   C2D38398  24.453   9.922  38.540  0.1724  0.1403  0.0825
 1600BOLB   C3D38399  24.155  10.028  38.286  0.2437 -0.0407  0.1184
 1600BOLB   C4D38400  23.707  10.012  38.365 -0.4035  0.0102 -0.2140
 1601BOLB   NC138401  13.512   7.473  37.043  0.6138 -0.0478  0.0228
 1601BOLB   PO138402  13.037   7.636  36.990 -0.0311  0.5223  0.2463
 1601BOLB   GL138403  13.058   7.203  37.223  0.1049  0.0082 -0.3771
 1601BOLB   GL238404  13.068   6.917  37.127  0.2584 -0.2144 -0.3670
 1601BOLB   C1A38405  12.868   7.103  37.605 -0.0687  0.1344  0.1940
 1601BOLB   C2A38406  12.740   6.746  37.974  0.0059 -0.1007  0.1125
 1601BOLB   C3A38407  12.629   6.539  38.360 -0.2721  0.0206  0.0196
 1601BOLB   C4A38408  12.445   6.378  38.645 -0.1758  0.1212  0.1666
 1601BOLB   C1B38409  13.082   6.520  37.475 -0.2576 -0.0869  0.4171
 1601BOLB   C2B38410  12.989   6.273  37.789 -0.1189 -0.1069 -0.1771
 1601BOLB   C3B38411  12.822   5.974  38.055  0.2777 -0.0066 -0.1619
 1601BOLB   C4B38412  12.636   5.616  38.187  0.2287 -0.3263 -0.1745
 1601BOLB   NC238413  11.559   5.231  40.383 -0.1120  0.0497  0.0766
 1601BOLB   PO238414  11.396   5.022  40.009  0.3448 -0.1325 -0.2492
 1601BOLB   GL338415  11.499   5.346  39.828 -0.0333  0.0794 -0.0329
 1601BOLB   GL438416  11.596   5.575  39.958 -0.0101 -0.1154 -0.1070
 1601BOLB   C1C38417  11.489   5.327  39.415  0.0076  0.2043 -0.2037
 1601BOLB   C2C38418  11.817   5.476  39.168 -0.1227 -0.2438  0.0535
 1601BOLB   C3C38419  12.161   5.466  38.922 -0.2215 -0.3083  0.0296
 1601BOLB   C4C38420  12.326   5.903  38.700 -0.2526 -0.0240 -0.0278
 1601BOLB   C1D38421  11.965   5.519  39.712  0.1979 -0.0378  0.1129
 1601BOLB   C2D38422  12.195   5.789  39.441  0.0202 -0.0186 -0.0142
 1601BOLB   C3D38423  12.407   6.116  39.225 -0.1326 -0.5261 -0.2746
 1601BOLB   C4D38424  12.771   6.173  38.963  0.0248 -0.0474  0.1513
 1602BOLB   NC138425  10.554   9.596  24.301 -0.2488  0.1149 -0.0346
 1602BOLB   PO138426  10.302   9.830  24.322 -0.1860  0.2025 -0.1649
 1602BOLB   GL138427   9.831   9.877  24.358  0.1502 -0.4066  0.3261
 1602BOLB   GL238428   9.586  10.233  24.309  0.0481  0.0142 -0.1076
 1602BOLB   C1A38429   9.525   9.790  23.962 -0.1652 -0.2351  0.0265
 1602BOLB   C2A38430   9.212   9.844  23.627  0.1501 -0.1945  0.2955
 1602BOLB   C3A38431   8.950   9.590  23.358  0.2506 -0.2636 -0.1745
 1602BOLB   C4A38432   8.616   9.373  23.483 -0.0386 -0.1009 -0.2802
 1602BOLB   C1B38433   9.305  10.384  24.026 -0.2080  0.1366  0.1066
 1602BOLB   C2B38434   8.971  10.394  23.671 -0.0280  0.0447 -0.3271
 1602BOLB   C3B38435   8.564  10.489  23.425  0.3080 -0.0090 -0.1344
 1602BOLB   C4B38436   8.108  10.565  23.395  0.0061  0.1715 -0.0001
 1602BOLB   NC238437   6.315   8.132  23.407 -0.0075 -0.2395  0.5226
 1602BOLB   PO238438   6.387   8.261  22.939 -0.1796  0.1710 -0.1921
 1602BOLB   GL338439   6.782   8.337  23.187 -0.1458 -0.1333  0.0869
 1602BOLB   GL438440   7.081   8.333  23.037 -0.3833  0.0305 -0.0286
 1602BOLB   C1C38441   7.240   8.223  23.479 -0.1702 -0.2281  0.0118
 1602BOLB   C2C38442   7.704   8.397  23.572 -0.2614 -0.4177 -0.1532
 1602BOLB   C3C38443   8.091   8.697  23.622  0.1271 -0.0427 -0.0566
 1602BOLB   C4C38444   8.198   9.130  23.638 -0.0655  0.0036 -0.2142
 1602BOLB   C1D38445   7.526   8.456  23.099  0.3365  0.2352 -0.0529
 1602BOLB   C2D38446   7.890   8.740  23.054 -0.2495  0.3731 -0.1229
 1602BOLB   C3D38447   8.265   9.040  23.162  0.0594 -0.0582 -0.0236
 1602BOLB   C4D38448   8.556   9.380  23.000  0.0775 -0.0581 -0.1253
 1603BOLB   NC138449   8.605  14.764  33.581 -0.0668 -0.3754  0.0406
 1603BOLB   PO138450   8.229  14.882  33.390  0.0425 -0.0979 -0.0325
 1603BOLB   GL138451   7.774  14.865  33.584  0.1110  0.0266 -0.2059
 1603BOLB   GL238452   7.634  15.069  33.754 -0.1998 -0.1474 -0.2498
 1603BOLB   C1A38453   7.437  14.581  33.607  0.1867 -0.0725  0.3025
 1603BOLB   C2A38454   6.984  14.548  33.792  0.1978  0.1875 -0.2232
 1603BOLB   C3A38455   6.508  14.465  33.606 -0.1221  0.1028  0.1360
 1603BOLB   C4A38456   6.070  14.528  33.597  0.3682  0.2219  0.1978
 1603BOLB   C1B38457   7.212  15.008  33.734 -0.1175 -0.2433  0.6217
 1603BOLB   C2B38458   6.913  15.160  33.515 -0.0126 -0.2973 -0.3950
 1603BOLB   C3B38459   6.444  15.097  33.479  0.0785 -0.0964 -0.1391
 1603BOLB   C4B38460   5.929  15.103  33.434 -0.0377  0.0479 -0.1006
 1603BOLB   NC238461   3.828  13.937  34.002 -0.0560 -0.0451 -0.0086
 1603BOLB   PO238462   3.753  14.386  34.004 -0.4129  0.4635 -0.6306
 1603BOLB   GL338463   4.110  14.356  33.933  0.0117  0.0304 -0.2432
 1603BOLB   GL438464   4.251  14.715  34.097  0.4314  0.0972 -0.2155
 1603BOLB   C1C38465   4.365  14.398  33.579  0.1008 -0.0567 -0.2325
 1603BOLB   C2C38466   4.796  14.429  33.477  0.0343 -0.1404 -0.0296
 1603BOLB   C3C38467   5.272  14.546  33.538 -0.0061 -0.2698  0.1219
 1603BOLB   C4C38468   5.658  14.659  33.740  0.2098  0.0883 -0.1836
 1603BOLB   C1D38469   4.603  14.711  33.954  0.3020  0.0433 -0.2314
 1603BOLB   C2D38470   5.036  14.550  33.985 -0.0034  0.1591 -0.0867
 1603BOLB   C3D38471   5.425  14.345  34.040  0.0105  0.3400 -0.0223
 1603BOLB   C4D38472   5.713  13.976  34.023 -0.1443 -0.0069  0.1113
 1604BOLB   NC138473  14.797  19.236  36.489 -0.4325 -0.1024  0.0764
 1604BOLB   PO138474  14.458  19.302  36.233  0.0821  0.2892  0.1320
 1604BOLB   GL138475  14.276  19.487  36.494  0.0126  0.0308  0.0001
 1604BOLB   GL238476  13.919  19.462  36.559 -0.0168 -0.1069 -0.0472
 1604BOLB   C1A38477  14.404  19.698  36.851  0.0440  0.1287 -0.0307
 1604BOLB   C2A38478  14.143  20.001  37.144 -0.1860 -0.0222  0.0024
 1604BOLB   C3A38479  14.265  20.368  37.375 -0.1543  0.0817 -0.0881
 1604BOLB   C4A38480  14.536  20.652  37.459 -0.0247 -0.4074 -0.1953
 1604BOLB   C1B38481  13.799  19.707  36.828 -0.3555 -0.3951  0.2105
 1604BOLB   C2B38482  13.450  19.852  37.115 -0.1011  0.0204  0.1700
 1604BOLB   C3B38483  13.060  20.032  37.166 -0.0410  0.2966 -0.2487
 1604BOLB   C4B38484  12.615  20.234  37.140 -0.0710  0.1679  0.5557
 1604BOLB   NC238485  14.827  22.657  39.182  0.1456 -0.4259  0.0179
 1604BOLB   PO238486  14.662  22.240  39.230 -0.0367  0.0956  0.1328
 1604BOLB   GL338487  14.591  21.944  38.937 -0.3047  0.0220 -0.2509
 1604BOLB   GL438488  14.299  22.076  38.850 -0.0264  0.4067 -0.1558
 1604BOLB   C1C38489  14.770  21.585  38.702  0.0834  0.1462 -0.1619
 1604BOLB   C2C38490  14.715  21.172  38.399  0.1854 -0.1556 -0.2663
 1604BOLB   C3C38491  14.601  21.102  38.012 -0.5260  0.0811 -0.4295
 1604BOLB   C4C38492  14.828  20.800  37.749 -0.1645 -0.3317 -0.0662
 1604BOLB   C1D38493  14.320  21.859  38.387  0.3330  0.1701  0.2353
 1604BOLB   C2D38494  14.665  21.602  38.195  0.1526 -0.2114  0.1259
 1604BOLB   C3D38495  14.866  21.531  37.872  0.0516 -0.2830  0.1259
 1604BOLB   C4D38496  15.179  21.189  37.759  0.3523 -0.3154 -0.0114
 1605BOLB   NC138497  16.632  18.418  36.870 -0.1262  0.0851 -0.4143
 1605BOLB   PO138498  16.382  18.064  37.072  0.0769 -0.1067  0.2182
 1605BOLB   GL138499  16.517  18.273  37.371  0.0919  0.0259 -0.1502
 1605BOLB   GL238500  16.532  18.192  37.680  0.2264 -0.2646 -0.0079
 1605BOLB   C1A38501  16.507  18.687  37.718 -0.0468  0.1422 -0.1019
 1605BOLB   C2A38502  16.536  19.022  37.967  0.1205 -0.4056  0.1342
 1605BOLB   C3A38503  16.906  19.186  38.146 -0.2549 -0.1401  0.2326
 1605BOLB   C4A38504  17.057  19.620  38.110 -0.0565  0.5229  0.1542
 1605BOLB   C1B38505  16.634  18.250  38.051 -0.0534  0.3432 -0.2383
 1605BOLB   C2B38506  16.899  18.492  38.404 -0.3457  0.2446 -0.0839
 1605BOLB   C3B38507  17.012  18.961  38.675  0.0573 -0.2392 -0.1768
 1605BOLB   C4B38508  16.912  19.409  38.590  0.3620 -0.1339  0.0781
 1605BOLB   NC238509  18.366  21.344  39.606 -0.0798  0.2260 -0.0436
 1605BOLB   PO238510  18.062  21.090  39.351 -0.0865 -0.2662 -0.1668
 1605BOLB   GL338511  18.152  20.739  39.143  0.0227 -0.1778  0.0321
 1605BOLB   GL438512  17.918  20.555  39.314  0.0407 -0.1124  0.0067
 1605BOLB   C1C38513  18.169  20.557  38.746 -0.1123  0.0845  0.3297
 1605BOLB   C2C38514  17.903  20.388  38.410 -0.2296  0.1293 -0.0004
 1605BOLB   C3C38515  17.904  19.971  38.258 -0.4824 -0.2409 -0.1823
 1605BOLB   C4C38516  17.417  19.791  38.146  0.0980 -0.0752 -0.1644
 1605BOLB   C1D38517  18.114  20.170  39.156  0.0052  0.0458  0.0278
 1605BOLB   C2D38518  18.137  20.064  38.675 -0.3362  0.2206 -0.0957
 1605BOLB   C3D38519  18.217  19.644  38.567  0.0512 -0.2769 -0.1361
 1605BOLB   C4D38520  18.175  19.437  38.184  0.2122 -0.1582 -0.1024
 1606BOLB   NC138521   9.493  10.724  35.126  0.1568 -0.0784 -0.1187
 1606BOLB   PO138522   9.508  10.670  35.514  0.0541  0.1622  0.2638
 1606BOLB   GL138523   9.099  10.315  35.639 -0.2025  0.1384 -0.0980
 1606BOLB   GL238524   9.069  10.054  35.812  0.0388 -0.1908 -0.1685
 1606BOLB   C1A38525   8.671  10.297  35.703  0.0324 -0.2385 -0.1381
 1606BOLB   C2A38526   8.348  10.042  35.589 -0.2597 -0.1325 -0.0345
 1606BOLB   C3A38527   7.908   9.802  35.650 -0.0160 -0.1100 -0.1636
 1606BOLB   C4A38528   7.418   9.662  35.806  0.1213 -0.0409  0.0110
 1606BOLB   C1B38529   8.867   9.882  36.147  0.4525  0.1104 -0.3609
 1606BOLB   C2B38530   8.589   9.745  36.477 -0.2207 -0.3064  0.0301
 1606BOLB   C3B38531   8.423   9.515  36.679  0.0884  0.1704 -0.3477
 1606BOLB   C4B38532   8.297   9.347  37.114 -0.3244 -0.1495 -0.1008
 1606BOLB   NC238533   5.289   9.217  36.620  0.2202 -0.1140 -0.0930
 1606BOLB   PO238534   5.353   9.636  36.584  0.2921  0.3564  0.0439
 1606BOLB   GL338535   5.565   9.860  36.374 -0.2617 -0.0932  0.1405
 1606BOLB   GL438536   5.832   9.996  36.483 -0.1925  0.1069  0.0847
 1606BOLB   C1C38537   5.880  10.034  35.946 -0.1114 -0.0658  0.0795
 1606BOLB   C2C38538   6.214  10.185  35.691 -0.0652  0.1651 -0.0888
 1606BOLB   C3C38539   6.630   9.941  35.557  0.1212  0.0070  0.1671
 1606BOLB   C4C38540   7.029   9.615  35.599  0.0425 -0.0733 -0.4729
 1606BOLB   C1D38541   6.267  10.096  36.284  0.2808 -0.0834  0.0502
 1606BOLB   C2D38542   6.683  10.187  36.128  0.2772 -0.2938  0.1721
 1606BOLB   C3D38543   7.016  10.184  35.808 -0.2412 -0.0776  0.1198
 1606BOLB   C4D38544   7.350   9.998  35.410 -0.4304  0.3038 -0.1579
 1607BOLB   NC138545   8.820  14.305  34.876  0.0792  0.0383 -0.2406
 1607BOLB   PO138546   8.637  14.669  35.111  0.2337 -0.1026  0.1394
 1607BOLB   GL138547   8.339  14.694  35.461 -0.0129 -0.0281 -0.1316
 1607BOLB   GL238548   8.353  14.907  35.760  0.1757 -0.0614 -0.1176
 1607BOLB   C1A38549   7.947  14.728  35.591 -0.1591  0.1105 -0.5487
 1607BOLB   C2A38550   7.551  14.752  35.726  0.1265 -0.1854  0.1788
 1607BOLB   C3A38551   7.198  14.976  36.014  0.2734 -0.0414 -0.1884
 1607BOLB   C4A38552   6.977  15.358  35.957  0.0076  0.0539  0.2510
 1607BOLB   C1B38553   7.989  14.976  36.000  0.0643 -0.0915 -0.1680
 1607BOLB   C2B38554   7.802  15.400  36.076  0.0194 -0.1033 -0.0124
 1607BOLB   C3B38555   7.405  15.669  35.972  0.0494  0.2376  0.1479
 1607BOLB   C4B38556   7.033  15.687  36.354 -0.1128 -0.0056  0.0935
 1607BOLB   NC238557   4.794  15.096  36.793  0.2314  0.1298  0.0648
 1607BOLB   PO238558   4.909  15.500  36.883 -0.0911 -0.0925  0.2161
 1607BOLB   GL338559   5.262  15.216  36.827  0.0487  0.0082  0.0245
 1607BOLB   GL438560   5.440  15.285  37.183  0.0382 -0.0079 -0.1985
 1607BOLB   C1C38561   5.545  15.395  36.576  0.3105 -0.0458  0.0737
 1607BOLB   C2C38562   6.047  15.297  36.483  0.0262 -0.1318  0.1124
 1607BOLB   C3C38563   6.383  15.330  36.371  0.3367  0.0993  0.3009
 1607BOLB   C4C38564   6.593  15.411  36.035  0.3106 -0.0042 -0.0774
 1607BOLB   C1D38565   5.806  15.639  36.996  0.0392  0.2976 -0.2210
 1607BOLB   C2D38566   5.936  15.763  36.517  0.2012  0.4131 -0.1976
 1607BOLB   C3D38567   6.233  15.792  36.178 -0.1027  0.1931  0.1361
 1607BOLB   C4D38568   6.572  15.933  36.057  0.1328  0.2251  0.3455
 1608BOLB   NC138569   8.202  16.996  27.741 -0.1999 -0.1816 -0.1433
 1608BOLB   PO138570   8.175  16.536  27.892  0.3814  0.1963 -0.0006
 1608BOLB   GL138571   7.781  16.582  27.558 -0.5097 -0.2727  0.0384
 1608BOLB   GL238572   7.579  16.469  27.500 -0.0325 -0.2006 -0.0707
 1608BOLB   C1A38573   7.421  16.901  27.301  0.1200 -0.0436  0.2097
 1608BOLB   C2A38574   7.072  17.131  27.052  0.1327 -0.0940  0.2736
 1608BOLB   C3A38575   6.612  17.140  27.034 -0.1033 -0.1351  0.0457
 1608BOLB   C4A38576   6.333  17.077  26.653  0.1838 -0.2928  0.0708
 1608BOLB   C1B38577   7.296  16.387  27.258  0.0197 -0.0114  0.0555
 1608BOLB   C2B38578   7.080  16.044  27.090 -0.1888 -0.1027  0.3104
 1608BOLB   C3B38579   6.722  15.662  26.934 -0.0373 -0.2273  0.3701
 1608BOLB   C4B38580   6.284  15.526  26.603 -0.4508  0.1573  0.0719
 1608BOLB   NC238581   4.536  17.761  25.687 -0.2365 -0.3551 -0.0976
 1608BOLB   PO238582   4.864  17.999  25.705  0.1118 -0.1160  0.1165
 1608BOLB   GL338583   4.967  17.459  25.711 -0.0759  0.4773  0.1416
 1608BOLB   GL438584   4.855  17.145  26.008 -0.0758  0.1797  0.1492
 1608BOLB   C1C38585   5.162  17.067  25.607 -0.2910 -0.1773 -0.2525
 1608BOLB   C2C38586   5.394  16.899  25.931 -0.2614 -0.0528 -0.4768
 1608BOLB   C3C38587   5.713  17.158  26.131  0.0324  0.1865 -0.1447
 1608BOLB   C4C38588   6.132  17.180  26.266 -0.2502  0.0431 -0.0127
 1608BOLB   C1D38589   5.058  16.855  26.321 -0.0728  0.0067 -0.0316
 1608BOLB   C2D38590   5.366  16.679  26.578  0.2195 -0.0573  0.2038
 1608BOLB   C3D38591   5.799  16.669  26.716  0.1095  0.2691 -0.1200
 1608BOLB   C4D38592   6.048  16.461  26.982  0.2385 -0.0701  0.1805
 1609BOLB   NC138593  15.123  20.718  33.565 -0.0707  0.2802 -0.0527
 1609BOLB   PO138594  15.044  20.746  33.148 -0.1932  0.0210  0.2205
 1609BOLB   GL138595  14.951  21.124  33.275 -0.0392  0.0500  0.2201
 1609BOLB   GL238596  15.010  21.218  33.524 -0.0934 -0.1806  0.1699
 1609BOLB   C1A38597  14.766  21.591  33.248  0.0865 -0.1124 -0.0998
 1609BOLB   C2A38598  14.673  21.984  33.381  0.2427  0.1019 -0.1643
 1609BOLB   C3A38599  14.622  22.399  33.377  0.1693 -0.3059 -0.2591
 1609BOLB   C4A38600  14.531  22.827  33.343  0.0412  0.1389  0.2837
 1609BOLB   C1B38601  14.994  21.612  33.787 -0.1699 -0.2648 -0.0884
 1609BOLB   C2B38602  15.083  21.883  34.130  0.2402  0.0775  0.0315
 1609BOLB   C3B38603  14.904  22.260  34.269  0.2168 -0.1159  0.2819
 1609BOLB   C4B38604  14.956  22.687  34.321  0.1160 -0.1826 -0.1809
 1609BOLB   NC238605  14.099  25.555  33.059 -0.0120  0.2516 -0.0376
 1609BOLB   PO238606  13.842  25.257  33.087  0.1573 -0.1610 -0.2530
 1609BOLB   GL338607  14.156  24.880  33.330  0.3108 -0.0412 -0.3946
 1609BOLB   GL438608  14.135  24.727  33.663  0.3033  0.0329  0.1344
 1609BOLB   C1C38609  14.328  24.443  33.216 -0.0261  0.0525  0.0886
 1609BOLB   C2C38610  14.581  24.137  33.129 -0.1129 -0.3525 -0.2979
 1609BOLB   C3C38611  14.710  23.711  33.256 -0.2270  0.0640 -0.0670
 1609BOLB   C4C38612  14.546  23.306  33.266 -0.2356  0.0642 -0.2782
 1609BOLB   C1D38613  14.479  24.459  33.795  0.2039 -0.0954 -0.3205
 1609BOLB   C2D38614  14.533  24.196  33.633 -0.0829 -0.0373 -0.0168
 1609BOLB   C3D38615  14.911  23.944  33.682  0.0635 -0.1895 -0.2573
 1609BOLB   C4D38616  15.026  23.525  33.653 -0.1644 -0.0443 -0.0636
 1610BOLB   NC138617  14.151  18.710  37.046  0.1278  0.0630 -0.0972
 1610BOLB   PO138618  14.217  18.346  37.376  0.0970 -0.0309 -0.2582
 1610BOLB   GL138619  14.288  18.716  37.596  0.0701  0.1484  0.1077
 1610BOLB   GL238620  14.123  18.958  37.471 -0.1015 -0.0237 -0.0827
 1610BOLB   C1A38621  14.381  18.890  37.954 -0.1263  0.0740  0.6081
 1610BOLB   C2A38622  14.562  19.104  38.241  0.0784 -0.2216  0.0448
 1610BOLB   C3A38623  14.720  19.201  38.607  0.0180  0.0235 -0.0442
 1610BOLB   C4A38624  14.650  19.409  38.993  0.0829  0.0213  0.1685
 1610BOLB   C1B38625  14.019  19.354  37.789 -0.1798  0.0628 -0.0166
 1610BOLB   C2B38626  14.270  19.521  38.163 -0.2682  0.0278 -0.3332
 1610BOLB   C3B38627  14.239  19.367  38.572  0.1471  0.0464 -0.0906
 1610BOLB   C4B38628  13.842  19.144  38.809 -0.0286  0.0652  0.0638
 1610BOLB   NC238629  15.540  21.141  41.325 -0.1018  0.1732 -0.3875
 1610BOLB   PO238630  15.480  20.735  41.038  0.1334 -0.2761 -0.2011
 1610BOLB   GL338631  15.271  20.332  40.810  0.0890 -0.4326  0.0368
 1610BOLB   GL438632  15.557  20.283  40.517  0.2661  0.0323 -0.1232
 1610BOLB   C1C38633  15.088  20.273  40.425  0.3235 -0.0759  0.1005
 1610BOLB   C2C38634  14.942  20.104  40.040  0.1847 -0.1346  0.1140
 1610BOLB   C3C38635  14.831  19.883  39.684 -0.0865 -0.2012 -0.0070
 1610BOLB   C4C38636  14.800  19.692  39.327  0.1453 -0.2746  0.0476
 1610BOLB   C1D38637  15.425  20.101  40.118  0.1146  0.0771  0.0758
 1610BOLB   C2D38638  15.265  19.756  39.908  0.1481  0.1561 -0.0701
 1610BOLB   C3D38639  15.172  19.501  39.633 -0.1809  0.2353 -0.2833
 1610BOLB   C4D38640  15.258  19.052  39.673  0.2833  0.1856  0.0206
 1611BOLB   NC138641   9.785   7.426  30.506  0.0387 -0.1796 -0.1652
 1611BOLB   PO138642   9.550   7.767  30.616  0.2033  0.1357 -0.1858
 1611BOLB   GL138643   9.262   7.512  30.616  0.2095 -0.0405  0.3130
 1611BOLB   GL238644   9.447   7.296  30.820  0.1774  0.0211 -0.0743
 1611BOLB   C1A38645   8.939   7.166  30.769  0.0161 -0.0160 -0.2899
 1611BOLB   C2A38646   8.617   6.838  30.850 -0.0213  0.0044 -0.0500
 1611BOLB   C3A38647   8.334   6.611  30.928 -0.0217  0.2666 -0.4201
 1611BOLB   C4A38648   8.251   6.272  30.594  0.2804  0.1385 -0.0631
 1611BOLB   C1B38649   9.182   7.186  31.236  0.1081  0.0342 -0.1351
 1611BOLB   C2B38650   8.777   7.191  31.310  0.0066  0.2231 -0.0828
 1611BOLB   C3B38651   8.319   7.372  31.581  0.2086 -0.1821  0.1618
 1611BOLB   C4B38652   7.851   7.426  31.672 -0.2163 -0.2347 -0.2760
 1611BOLB   NC238653   6.753   4.602  29.390 -0.0676 -0.1234  0.0324
 1611BOLB   PO238654   6.371   4.889  29.618  0.0362 -0.2322  0.3158
 1611BOLB   GL338655   6.673   5.113  29.564 -0.0841  0.2644  0.1137
 1611BOLB   GL438656   6.812   5.161  29.250 -0.0545 -0.2395 -0.1749
 1611BOLB   C1C38657   6.982   5.368  29.854 -0.0796  0.0774 -0.1383
 1611BOLB   C2C38658   7.324   5.583  29.965  0.2015 -0.1124  0.0976
 1611BOLB   C3C38659   7.704   5.808  30.074 -0.1414 -0.0813 -0.0792
 1611BOLB   C4C38660   8.035   6.028  30.211 -0.1402 -0.2661  0.4481
 1611BOLB   C1D38661   7.238   5.242  29.346  0.0726 -0.0916  0.0098
 1611BOLB   C2D38662   7.645   5.361  29.201  0.3211 -0.0829 -0.0016
 1611BOLB   C3D38663   8.132   5.496  29.172 -0.0050 -0.2314 -0.0122
 1611BOLB   C4D38664   8.599   5.456  29.055  0.0708 -0.0893  0.1517
 1612BOLB   NC138665  13.814  14.824  20.469  0.0334  0.3542 -0.1038
 1612BOLB   PO138666  14.017  15.253  20.394  0.1082  0.0787 -0.3002
 1612BOLB   GL138667  13.783  15.113  20.096 -0.1091  0.1505  0.3378
 1612BOLB   GL238668  13.490  14.968  20.123 -0.0394 -0.3980  0.0175
 1612BOLB   C1A38669  13.745  14.978  19.649  0.2477 -0.0371 -0.1689
 1612BOLB   C2A38670  13.455  14.893  19.403 -0.2010  0.3062  0.0801
 1612BOLB   C3A38671  13.600  15.030  19.081  0.1283 -0.1307 -0.0255
 1612BOLB   C4A38672  13.667  15.097  18.608 -0.2453  0.1584  0.2655
 1612BOLB   C1B38673  13.121  15.161  19.973  0.1986 -0.1283  0.1274
 1612BOLB   C2B38674  12.885  15.399  19.732 -0.1920 -0.3485  0.1149
 1612BOLB   C3B38675  12.827  15.808  19.610 -0.2779  0.0645 -0.0374
 1612BOLB   C4B38676  12.879  16.041  19.191 -0.3426  0.3677 -0.1731
 1612BOLB   NC238677  13.307  16.049  16.429  0.2059 -0.2319 -0.2294
 1612BOLB   PO238678  13.056  15.719  16.567  0.0597  0.1346  0.0187
 1612BOLB   GL338679  13.263  15.376  16.542  0.0540  0.0890 -0.0092
 1612BOLB   GL438680  13.142  15.126  16.470 -0.3051 -0.2616 -0.1237
 1612BOLB   C1C38681  13.609  15.284  16.869  0.2204  0.0685 -0.0016
 1612BOLB   C2C38682  13.595  15.162  17.236 -0.2900  0.2913  0.2730
 1612BOLB   C3C38683  13.598  15.020  17.616  0.1410  0.0894 -0.4453
 1612BOLB   C4C38684  13.647  15.217  18.068 -0.0482  0.1928 -0.1011
 1612BOLB   C1D38685  13.169  14.986  16.858  0.1386  0.3659 -0.0143
 1612BOLB   C2D38686  13.380  14.728  17.175  0.1025  0.0016  0.2408
 1612BOLB   C3D38687  13.405  14.552  17.533 -0.1007 -0.0424  0.0629
 1612BOLB   C4D38688  13.784  14.560  17.734 -0.1606 -0.2679  0.2947
 1613BOLB   NC138689   7.462  16.436  31.223  0.1338  0.4340 -0.1274
 1613BOLB   PO138690   7.357  16.444  30.705  0.0691  0.2223  0.1958
 1613BOLB   GL138691   7.094  16.296  30.976  0.1671  0.1288 -0.0066
 1613BOLB   GL238692   6.959  16.209  30.651 -0.1072  0.1880 -0.4340
 1613BOLB   C1A38693   6.651  16.274  31.188  0.1323 -0.0005 -0.1601
 1613BOLB   C2A38694   6.239  16.125  31.009 -0.1645 -0.2972  0.1911
 1613BOLB   C3A38695   5.949  15.899  30.659 -0.1423  0.0096 -0.5902
 1613BOLB   C4A38696   5.577  16.040  30.489  0.3579  0.0377 -0.1033
 1613BOLB   C1B38697   6.499  16.356  30.597  0.2112  0.0642  0.3602
 1613BOLB   C2B38698   6.145  16.251  30.352  0.2201  0.3101  0.1843
 1613BOLB   C3B38699   5.946  16.245  29.939 -0.1874 -0.2089  0.0537
 1613BOLB   C4B38700   6.001  16.277  29.482  0.2815 -0.2324  0.0197
 1613BOLB   NC238701   3.292  17.296  30.361 -0.0444  0.4798  0.1884
 1613BOLB   PO238702   3.681  17.360  30.566 -0.1895 -0.4866  0.0013
 1613BOLB   GL338703   4.147  17.229  30.654  0.1334  0.2274  0.0870
 1613BOLB   GL438704   4.470  17.377  30.781  0.1063  0.3595  0.0196
 1613BOLB   C1C38705   4.383  16.863  30.862  0.1085 -0.1653  0.4128
 1613BOLB   C2C38706   4.577  16.544  30.976  0.0313 -0.1396  0.0732
 1613BOLB   C3C38707   4.880  16.282  30.729 -0.1423  0.0004  0.1547
 1613BOLB   C4C38708   5.235  15.983  30.531  0.0600 -0.2365  0.1013
 1613BOLB   C1D38709   4.976  17.385  30.740  0.0774  0.4351 -0.0160
 1613BOLB   C2D38710   5.427  17.374  30.661  0.3909 -0.1398  0.1381
 1613BOLB   C3D38711   5.853  17.586  30.873  0.0039 -0.0729 -0.1247
 1613BOLB   C4D38712   6.233  17.593  31.109  0.1677  0.3497 -0.2441
 1614BOLB   NC138713  13.596  19.142  36.152 -0.0206  0.3011  0.3083
 1614BOLB   PO138714  13.430  18.867  36.490  0.1319 -0.0645  0.3934
 1614BOLB   GL138715  13.261  19.172  36.675 -0.1214  0.1390 -0.0838
 1614BOLB   GL238716  13.387  19.464  36.518 -0.1842 -0.1522 -0.0802
 1614BOLB   C1A38717  12.867  19.060  36.944  0.2022  0.1572 -0.0584
 1614BOLB   C2A38718  12.437  19.133  37.084 -0.2415  0.1737 -0.1450
 1614BOLB   C3A38719  11.990  19.290  37.305 -0.0114  0.3059 -0.1015
 1614BOLB   C4A38720  11.730  19.439  37.540 -0.2090  0.0612  0.1677
 1614BOLB   C1B38721  13.315  19.878  36.643  0.1838  0.0653 -0.0166
 1614BOLB   C2B38722  13.110  20.160  36.577  0.1740  0.0785  0.1866
 1614BOLB   C3B38723  12.915  20.648  36.448  0.2291  0.3129 -0.1803
 1614BOLB   C4B38724  12.741  20.968  36.197 -0.1946  0.0441  0.1653
 1614BOLB   NC238725  11.704  20.856  39.825  0.2867  0.2528  0.2776
 1614BOLB   PO238726  11.805  21.026  39.372  0.0290 -0.1603 -0.3157
 1614BOLB   GL338727  11.710  20.842  38.941  0.0580  0.0050  0.1353
 1614BOLB   GL438728  12.045  20.750  38.990 -0.2623  0.0230 -0.0517
 1614BOLB   C1C38729  11.601  20.481  38.818 -0.3343 -0.0540  0.0136
 1614BOLB   C2C38730  11.684  20.060  38.657  0.1530  0.2329  0.1832
 1614BOLB   C3C38731  11.639  19.834  38.332 -0.4675 -0.0127 -0.0300
 1614BOLB   C4C38732  11.617  19.674  37.866 -0.0170 -0.2806  0.2918
 1614BOLB   C1D38733  12.201  20.380  38.706  0.0821  0.0722 -0.1537
 1614BOLB   C2D38734  12.442  20.320  38.246 -0.0347  0.0681 -0.1254
 1614BOLB   C3D38735  12.528  20.108  37.709  0.1015  0.3307 -0.0561
 1614BOLB   C4D38736  12.787  19.833  37.512  0.2736  0.3039  0.2074
 1615BOLB   NC138737   7.984  17.389  30.224  0.0139 -0.0898 -0.2364
 1615BOLB   PO138738   8.060  17.800  30.500 -0.1355 -0.0414 -0.0132
 1615BOLB   GL138739   7.732  18.109  30.654 -0.0477 -0.0228  0.2606
 1615BOLB   GL238740   7.543  17.985  30.890  0.1222  0.1252  0.0721
 1615BOLB   C1A38741   7.309  18.022  30.381 -0.1047  0.0285 -0.3417
 1615BOLB   C2A38742   7.001  18.084  30.260 -0.1237 -0.1945  0.1467
 1615BOLB   C3A38743   6.632  18.203  30.087  0.1445 -0.2370  0.0954
 1615BOLB   C4A38744   6.120  18.300  30.223 -0.2089  0.0089  0.2341
 1615BOLB   C1B38745   7.191  17.859  30.922 -0.0382  0.0095  0.0386
 1615BOLB   C2B38746   6.704  17.782  30.980 -0.2179  0.0755 -0.1333
 1615BOLB   C3B38747   6.367  18.065  31.066  0.1763  0.0977 -0.1844
 1615BOLB   C4B38748   6.022  18.358  31.350 -0.0066 -0.1422 -0.3710
 1615BOLB   NC238749   3.933  18.663  30.803 -0.1051 -0.1246  0.0957
 1615BOLB   PO238750   3.991  18.204  30.935  0.1903  0.1925  0.1053
 1615BOLB   GL338751   4.400  18.105  31.160 -0.0210 -0.1326 -0.0740
 1615BOLB   GL438752   4.573  17.733  31.118  0.3463 -0.1257 -0.1257
 1615BOLB   C1C38753   4.871  18.121  31.146 -0.4038  0.1835 -0.0530
 1615BOLB   C2C38754   5.121  17.898  30.877 -0.2013 -0.1209 -0.1607
 1615BOLB   C3C38755   5.513  17.935  30.751 -0.3281  0.2802  0.3062
 1615BOLB   C4C38756   5.905  17.969  30.506 -0.0945 -0.0578 -0.0874
 1615BOLB   C1D38757   5.012  17.534  31.216  0.0408 -0.2648 -0.1947
 1615BOLB   C2D38758   5.332  17.239  31.132  0.2289 -0.1203  0.0663
 1615BOLB   C3D38759   5.808  17.167  31.199  0.3319 -0.0412 -0.4366
 1615BOLB   C4D38760   6.031  17.086  30.777  0.2489 -0.1900  0.1556
 1616BOLB   NC138761  18.135   2.516  20.975 -0.4617 -0.1694 -0.0495
 1616BOLB   PO138762  17.834   2.351  21.279 -0.1276 -0.1410 -0.1300
 1616BOLB   GL138763  17.996   2.759  21.427 -0.1487 -0.0638  0.1389
 1616BOLB   GL238764  17.743   2.873  21.261  0.3095 -0.2298 -0.0216
 1616BOLB   C1A38765  18.308   2.986  21.709  0.3216 -0.2821 -0.1294
 1616BOLB   C2A38766  18.606   3.194  21.980  0.0744 -0.2635 -0.2043
 1616BOLB   C3A38767  18.609   3.549  22.181 -0.1796 -0.2347  0.0152
 1616BOLB   C4A38768  18.683   3.769  22.524  0.2195 -0.4176 -0.1012
 1616BOLB   C1B38769  17.843   3.202  21.567  0.2855  0.0108  0.2564
 1616BOLB   C2B38770  18.134   3.454  21.875  0.1964  0.2345 -0.1160
 1616BOLB   C3B38771  18.068   3.747  22.052 -0.0743  0.1011  0.0078
 1616BOLB   C4B38772  17.801   4.053  22.265  0.0180 -0.0908 -0.0847
 1616BOLB   NC238773  19.653   2.046  22.678  0.1450 -0.2401  0.0684
 1616BOLB   PO238774  19.323   2.131  22.302 -0.1828  0.1625 -0.0810
 1616BOLB   GL338775  19.317   2.459  22.409 -0.3885 -0.0717  0.2179
 1616BOLB   GL438776  19.013   2.542  22.453 -0.4580 -0.0333 -0.0522
 1616BOLB   C1C38777  19.419   2.853  22.596 -0.2416 -0.0090  0.1060
 1616BOLB   C2C38778  19.551   3.207  22.757  0.0020  0.2191 -0.0254
 1616BOLB   C3C38779  19.432   3.671  22.770  0.2991  0.1271  0.2410
 1616BOLB   C4C38780  19.058   3.830  22.642  0.1501 -0.0361  0.2074
 1616BOLB   C1D38781  18.931   2.947  22.384 -0.3343  0.3263  0.1749
 1616BOLB   C2D38782  18.762   3.223  22.562 -0.3142 -0.1823 -0.0494
 1616BOLB   C3D38783  18.919   3.417  22.862 -0.2357 -0.2667 -0.0917
 1616BOLB   C4D38784  19.022   3.694  23.150 -0.0232 -0.0614 -0.0925
 1617BOLB   NC138785  22.312   8.700  32.122 -0.2827  0.2925 -0.0723
 1617BOLB   PO138786  22.559   8.683  32.363 -0.1276 -0.2878  0.0985
 1617BOLB   GL138787  22.918   8.408  32.490 -0.0283  0.1622  0.0448
 1617BOLB   GL238788  23.176   8.557  32.696 -0.1547  0.3874 -0.0556
 1617BOLB   C1A38789  23.133   8.055  32.741 -0.0926 -0.1662  0.2160
 1617BOLB   C2A38790  23.525   7.922  32.814 -0.0594  0.1074 -0.0104
 1617BOLB   C3A38791  23.899   7.850  32.630 -0.1192 -0.0606  0.3808
 1617BOLB   C4A38792  24.313   7.805  32.539 -0.3839  0.0543 -0.2282
 1617BOLB   C1B38793  23.502   8.430  32.907  0.0415  0.1065 -0.5059
 1617BOLB   C2B38794  24.003   8.421  32.768  0.0031  0.0007 -0.0043
 1617BOLB   C3B38795  24.370   8.189  32.808  0.1735 -0.2465  0.1057
 1617BOLB   C4B38796  24.465   7.801  32.985  0.3138 -0.1417  0.3444
 1617BOLB   NC238797   0.252   7.161  32.059  0.4415  0.3173 -0.1696
 1617BOLB   PO238798  26.835   7.236  32.047 -0.2934 -0.0553  0.0318
 1617BOLB   GL338799  26.362   7.191  32.144 -0.3556 -0.2226  0.2416
 1617BOLB   GL438800  26.170   7.042  32.372  0.2056  0.2563 -0.1641
 1617BOLB   C1C38801  25.853   7.223  32.008 -0.1715  0.0429  0.1249
 1617BOLB   C2C38802  25.422   7.417  32.149 -0.2059 -0.0237 -0.0355
 1617BOLB   C3C38803  24.988   7.523  32.315  0.1707  0.3292 -0.2318
 1617BOLB   C4C38804  24.762   7.689  32.549  0.2661  0.3045  0.1767
 1617BOLB   C1D38805  25.666   6.990  32.433  0.1165  0.1528  0.1337
 1617BOLB   C2D38806  25.255   7.022  32.462  0.2457  0.2633  0.3962
 1617BOLB   C3D38807  24.862   7.013  32.459 -0.3282  0.0690  0.2722
 1617BOLB   C4D38808  24.584   7.323  32.279 -0.0077 -0.1338 -0.1756
 1618BOLB   NC138809  15.420  21.028  29.581 -0.1990  0.1680  0.0957
 1618BOLB   PO138810  15.318  20.966  29.289  0.3511  0.2836  0.1147
 1618BOLB   GL138811  15.269  21.398  29.205  0.0032 -0.1854 -0.2481
 1618BOLB   GL238812  14.882  21.555  29.207  0.4058  0.0121 -0.3698
 1618BOLB   C1A38813  15.395  21.777  29.194 -0.1572 -0.0892 -0.0971
 1618BOLB   C2A38814  15.438  22.140  29.281  0.2351  0.3361 -0.2514
 1618BOLB   C3A38815  15.588  22.528  29.362  0.0624 -0.0075  0.0018
 1618BOLB   C4A38816  15.785  22.865  29.311  0.0567 -0.1533 -0.0732
 1618BOLB   C1B38817  14.954  21.927  29.219  0.2656 -0.2589 -0.1689
 1618BOLB   C2B38818  14.967  22.221  29.123 -0.1870 -0.0359 -0.0189
 1618BOLB   C3B38819  15.315  22.448  28.893 -0.0955  0.0656 -0.5098
 1618BOLB   C4B38820  15.482  22.792  28.856  0.0651  0.0264 -0.0651
 1618BOLB   NC238821  16.829  25.704  28.934 -0.2109  0.0741  0.0170
 1618BOLB   PO238822  16.705  25.196  28.906  0.1084  0.2899  0.0918
 1618BOLB   GL338823  16.610  24.739  28.998 -0.0988 -0.2042 -0.4015
 1618BOLB   GL438824  16.507  24.565  29.394 -0.0558 -0.0140 -0.1493
 1618BOLB   C1C38825  16.591  24.287  29.006  0.2373  0.0596 -0.3375
 1618BOLB   C2C38826  16.311  24.034  28.920 -0.1378  0.1038 -0.0721
 1618BOLB   C3C38827  16.026  23.661  28.934 -0.1053  0.0123 -0.0367
 1618BOLB   C4C38828  15.976  23.254  29.198 -0.0039 -0.1041 -0.1639
 1618BOLB   C1D38829  16.437  24.086  29.463 -0.2885 -0.1736  0.0600
 1618BOLB   C2D38830  16.627  23.764  29.680 -0.0274  0.0484  0.0561
 1618BOLB   C3D38831  16.508  23.330  29.756 -0.2203 -0.1491 -0.0405
 1618BOLB   C4D38832  16.282  22.936  29.534  0.2240  0.0208  0.0487
 1619BOLB   NC138833  15.385  14.919  39.819 -0.1180  0.1167  0.3092
 1619BOLB   PO138834  14.874  15.007  39.609 -0.0658 -0.6527  0.0487
 1619BOLB   GL138835  14.770  15.265  39.980 -0.1582 -0.0659  0.4351
 1619BOLB   GL238836  15.144  15.323  40.004 -0.4149  0.2798 -0.3167
 1619BOLB   C1A38837  14.898  15.371  40.462 -0.2121 -0.2158  0.2895
 1619BOLB   C2A38838  15.020  15.738  40.659  0.1275 -0.0916  0.0390
 1619BOLB   C3A38839  15.238  15.879  41.030 -0.0735 -0.2564 -0.1168
 1619BOLB   C4A38840  15.585  15.802  41.234  0.0789 -0.2068  0.0999
 1619BOLB   C1B38841  15.236  15.728  40.236 -0.0134  0.1756  0.0971
 1619BOLB   C2B38842  15.278  16.122  40.349  0.2969 -0.3328 -0.1629
 1619BOLB   C3B38843  15.365  16.555  40.314  0.0554 -0.0155  0.0114
 1619BOLB   C4B38844  15.327  16.988  40.345 -0.3289  0.0903  0.1404
 1619BOLB   NC238845  14.909  15.400  43.606  0.1833  0.0912 -0.1690
 1619BOLB   PO238846  15.193  15.792  43.363 -0.1630 -0.1736  0.0074
 1619BOLB   GL338847  15.152  15.424  43.103 -0.0282  0.1049  0.0099
 1619BOLB   GL438848  14.939  15.262  43.116  0.2279  0.2434  0.0874
 1619BOLB   C1C38849  15.316  15.296  42.755  0.0419  0.2893 -0.3201
 1619BOLB   C2C38850  15.434  15.221  42.234  0.2269  0.2832  0.0002
 1619BOLB   C3C38851  15.521  15.278  41.839  0.0201 -0.1049  0.0444
 1619BOLB   C4C38852  15.566  15.543  41.538 -0.0965 -0.0115  0.2557
 1619BOLB   C1D38853  14.827  15.172  42.660  0.3205  0.3950 -0.0607
 1619BOLB   C2D38854  14.967  15.032  42.270  0.2143  0.1543  0.1263
 1619BOLB   C3D38855  15.188  14.822  41.849  0.3238  0.0511 -0.0537
 1619BOLB   C4D38856  15.430  14.661  41.641 -0.2336 -0.0059  0.0036
 1620BOLB   NC138857   8.726  17.864  31.699 -0.0543 -0.2299  0.1900
 1620BOLB   PO138858   8.280  18.001  31.618  0.1332  0.3567  0.2663
 1620BOLB   GL138859   7.965  18.303  31.490 -0.1875 -0.2265 -0.0775
 1620BOLB   GL238860   7.794  18.164  31.372 -0.2074 -0.3713 -0.0757
 1620BOLB   C1A38861   7.582  18.533  31.630 -0.1314 -0.2116  0.2217
 1620BOLB   C2A38862   7.308  18.803  31.596 -0.0587  0.0545 -0.0039
 1620BOLB   C3A38863   6.979  18.725  31.442 -0.3160 -0.1441 -0.1132
 1620BOLB   C4A38864   6.593  18.978  31.424  0.1600  0.2344 -0.3205
 1620BOLB   C1B38865   7.309  18.108  31.405 -0.0152  0.3676  0.2494
 1620BOLB   C2B38866   7.024  18.224  31.184  0.0206 -0.1887  0.2862
 1620BOLB   C3B38867   6.589  18.497  31.092  0.0157  0.1713  0.0977
 1620BOLB   C4B38868   6.350  18.786  31.032  0.0654 -0.1276  0.2738
 1620BOLB   NC238869   4.640  19.749  31.032 -0.3074 -0.1631 -0.0235
 1620BOLB   PO238870   4.619  20.043  30.728 -0.0019 -0.0561 -0.2449
 1620BOLB   GL338871   5.034  20.093  30.626  0.0370 -0.1483 -0.0171
 1620BOLB   GL438872   5.089  19.841  30.304  0.1564 -0.0659  0.0580
 1620BOLB   C1C38873   5.412  19.871  30.724  0.2845  0.2992  0.0254
 1620BOLB   C2C38874   5.590  19.788  31.150  0.0323  0.0058  0.2333
 1620BOLB   C3C38875   5.817  19.418  31.361  0.1230 -0.1120 -0.2130
 1620BOLB   C4C38876   6.225  19.236  31.529 -0.3284  0.0601 -0.1331
 1620BOLB   C1D38877   5.479  19.944  30.211 -0.0581  0.2389  0.0759
 1620BOLB   C2D38878   5.859  19.650  30.241 -0.4832 -0.0192 -0.0085
 1620BOLB   C3D38879   6.129  19.304  30.430  0.0019  0.2272  0.0809
 1620BOLB   C4D38880   6.608  19.164  30.606  0.1058 -0.5611 -0.0320
 1621BOLB   NC138881  15.944  13.084  19.092 -0.0580  0.4667 -0.4504
 1621BOLB   PO138882  15.740  13.367  19.220 -0.0332 -0.1653  0.1490
 1621BOLB   GL138883  15.763  13.455  18.802  0.0323 -0.2748 -0.0432
 1621BOLB   GL238884  15.482  13.225  18.758  0.0595  0.0882 -0.2608
 1621BOLB   C1A38885  15.470  13.653  18.442 -0.1196  0.0081 -0.2192
 1621BOLB   C2A38886  15.080  13.692  18.155  0.1236 -0.3183 -0.1175
 1621BOLB   C3A38887  14.704  13.590  17.876  0.2170  0.0268 -0.0094
 1621BOLB   C4A38888  14.284  13.690  17.790  0.0801 -0.1415  0.1275
 1621BOLB   C1B38889  15.201  13.257  18.493 -0.1806  0.1872 -0.1262
 1621BOLB   C2B38890  14.871  13.153  18.163 -0.1227 -0.0416 -0.1506
 1621BOLB   C3B38891  14.733  12.824  17.897 -0.2296  0.2957  0.0905
 1621BOLB   C4B38892  14.696  12.764  17.505 -0.1075  0.1733  0.1149
 1621BOLB   NC238893  13.072  13.925  15.896 -0.1151 -0.0381  0.0075
 1621BOLB   PO238894  12.971  14.355  15.953 -0.0794  0.0170  0.1414
 1621BOLB   GL338895  12.989  14.192  16.406  0.2119 -0.3610 -0.1953
 1621BOLB   GL438896  13.231  14.024  16.438  0.2296 -0.1356  0.0253
 1621BOLB   C1C38897  13.174  14.432  16.701 -0.3882 -0.0172  0.0633
 1621BOLB   C2C38898  13.531  14.265  17.038 -0.1435 -0.0093 -0.1560
 1621BOLB   C3C38899  13.764  14.137  17.437  0.0705 -0.0074  0.1124
 1621BOLB   C4C38900  14.091  14.013  17.744  0.1856  0.0614 -0.1195
 1621BOLB   C1D38901  13.648  13.955  16.610  0.1648  0.0553 -0.1195
 1621BOLB   C2D38902  13.739  13.808  16.943  0.0717  0.3908  0.3677
 1621BOLB   C3D38903  14.083  13.580  17.259  0.0223  0.0985 -0.2928
 1621BOLB   C4D38904  14.414  13.265  17.225 -0.0806  0.1257 -0.2408
 1622BOLB   NC138905  22.279  13.691  26.808  0.0478  0.2730  0.1397
 1622BOLB   PO138906  22.399  13.343  26.983 -0.0232  0.0681 -0.2790
 1622BOLB   GL138907  22.783  13.648  26.880  0.0985  0.4168 -0.1450
 1622BOLB   GL238908  23.046  13.490  26.960 -0.1573 -0.0179  0.0226
 1622BOLB   C1A38909  22.963  14.060  27.161  0.0861 -0.3191 -0.3417
 1622BOLB   C2A38910  23.356  14.265  27.256 -0.1773 -0.1562  0.0733
 1622BOLB   C3A38911  23.831  14.350  27.638  0.0821 -0.0766  0.0934
 1622BOLB   C4A38912  24.377  14.278  27.586  0.1708  0.2426 -0.2638
 1622BOLB   C1B38913  23.306  13.803  26.883  0.3076  0.0923 -0.0193
 1622BOLB   C2B38914  23.616  13.920  27.133 -0.3027  0.2733 -0.1576
 1622BOLB   C3B38915  23.883  14.286  27.180  0.0180 -0.1783 -0.4238
 1622BOLB   C4B38916  24.297  14.545  27.154  0.2970 -0.2219  0.2618
 1622BOLB   NC238917  26.153  16.241  28.021 -0.0114  0.3075  0.1911
 1622BOLB   PO238918  26.223  15.751  27.843 -0.0660 -0.1788 -0.1885
 1622BOLB   GL338919  25.836  15.739  27.865  0.3836  0.2160  0.0044
 1622BOLB   GL438920  25.766  15.971  27.618  0.2749 -0.0423 -0.4084
 1622BOLB   C1C38921  25.461  15.570  27.801 -0.3634 -0.0617 -0.2066
 1622BOLB   C2C38922  25.253  15.225  27.581  0.1902 -0.0127  0.0691
 1622BOLB   C3C38923  24.959  14.922  27.573 -0.2083 -0.2609  0.0034
 1622BOLB   C4C38924  24.783  14.476  27.672  0.0759 -0.2321  0.1691
 1622BOLB   C1D38925  25.309  16.153  27.570  0.2885  0.0842  0.0976
 1622BOLB   C2D38926  24.918  16.290  27.764  0.0947  0.0250 -0.4963
 1622BOLB   C3D38927  24.570  16.059  27.806 -0.1385 -0.0450 -0.1041
 1622BOLB   C4D38928  24.243  15.888  27.678  0.2245 -0.1246  0.2476
 1623BOLB   NC138929  13.839  11.785  39.338  0.1462 -0.1698  0.0982
 1623BOLB   PO138930  13.550  11.975  39.537 -0.0649 -0.2436 -0.0790
 1623BOLB   GL138931  13.306  11.884  39.932 -0.0665  0.2660  0.0347
 1623BOLB   GL238932  12.929  11.868  40.005 -0.2194 -0.0924 -0.2485
 1623BOLB   C1A38933  13.310  11.871  40.327 -0.0023  0.2117 -0.1816
 1623BOLB   C2A38934  13.576  11.931  40.752 -0.3139  0.1586 -0.3060
 1623BOLB   C3A38935  13.526  11.927  41.146  0.0402  0.1013 -0.1782
 1623BOLB   C4A38936  13.162  12.047  41.432  0.0330  0.0502  0.3228
 1623BOLB   C1B38937  12.783  11.805  40.391  0.0726  0.2141  0.1463
 1623BOLB   C2B38938  12.502  11.490  40.730 -0.2087  0.0032 -0.0433
 1623BOLB   C3B38939  12.222  11.173  40.791 -0.2034  0.0296  0.1885
 1623BOLB   C4B38940  11.772  11.052  40.905  0.2138  0.0145 -0.0806
 1623BOLB   NC238941  12.445  10.945  43.741 -0.1185 -0.0267  0.4903
 1623BOLB   PO238942  12.208  11.414  43.587 -0.2089  0.1286 -0.0664
 1623BOLB   GL338943  12.322  11.479  43.160 -0.1060 -0.2461  0.0767
 1623BOLB   GL438944  12.496  11.827  43.144 -0.0910  0.1604 -0.1359
 1623BOLB   C1C38945  12.634  11.493  42.812 -0.1482 -0.0004  0.2721
 1623BOLB   C2C38946  12.726  11.857  42.529  0.0066  0.1385 -0.3958
 1623BOLB   C3C38947  12.817  12.036  42.171  0.1013 -0.1175  0.3757
 1623BOLB   C4C38948  13.035  12.240  41.820 -0.1765  0.1053 -0.2434
 1623BOLB   C1D38949  12.343  11.982  42.785 -0.2171 -0.0228 -0.0995
 1623BOLB   C2D38950  12.307  12.110  42.473  0.1577  0.2399  0.0998
 1623BOLB   C3D38951  12.364  12.225  42.024  0.2387  0.0427 -0.2521
 1623BOLB   C4D38952  12.605  12.365  41.674 -0.1730 -0.2616  0.1031
 1624BOLB   NC138953  13.518  21.330  29.816  0.0437 -0.1839 -0.0722
 1624BOLB   PO138954  13.699  21.287  29.362  0.1539  0.2278  0.2043
 1624BOLB   GL138955  13.984  21.639  29.577  0.0459 -0.3531  0.3441
 1624BOLB   GL238956  13.805  21.765  29.801  0.2433  0.1908 -0.4473
 1624BOLB   C1A38957  14.015  22.039  29.394  0.1478 -0.2412 -0.0664
 1624BOLB   C2A38958  14.030  22.422  29.458 -0.4189  0.1267 -0.3989
 1624BOLB   C3A38959  14.186  22.759  29.491  0.0836 -0.1284  0.0360
 1624BOLB   C4A38960  14.088  23.188  29.601 -0.0213 -0.1506  0.1320
 1624BOLB   C1B38961  13.873  22.102  30.005 -0.1966  0.4403 -0.2423
 1624BOLB   C2B38962  14.021  22.586  29.947  0.0652  0.2245  0.3633
 1624BOLB   C3B38963  13.925  23.011  30.079  0.1905 -0.1080  0.0177
 1624BOLB   C4B38964  13.636  23.455  30.100  0.3586 -0.0323  0.1950
 1624BOLB   NC238965  13.110  25.067  29.157 -0.0844 -0.1297 -0.0254
 1624BOLB   PO238966  12.867  25.157  29.568  0.0283  0.1158  0.0447
 1624BOLB   GL338967  13.091  24.837  29.638 -0.0640  0.1448  0.0206
 1624BOLB   GL438968  12.946  24.590  29.418  0.1090  0.0452  0.0762
 1624BOLB   C1C38969  13.282  24.556  29.929  0.2036  0.3869 -0.2681
 1624BOLB   C2C38970  13.449  24.221  30.048 -0.3733 -0.1483  0.0459
 1624BOLB   C3C38971  13.441  23.819  29.841 -0.1129 -0.2369 -0.0213
 1624BOLB   C4C38972  13.796  23.581  29.644  0.3179 -0.0273 -0.0200
 1624BOLB   C1D38973  13.033  24.148  29.676 -0.4741  0.0867  0.1239
 1624BOLB   C2D38974  13.055  23.734  29.411 -0.3902  0.0675 -0.2322
 1624BOLB   C3D38975  13.330  23.434  29.562  0.2240 -0.2284  0.1697
 1624BOLB   C4D38976  13.546  23.067  29.725  0.0591 -0.0126 -0.1950
 1625BOLB   NC138977  21.956  16.649  33.569 -0.3182  0.0139 -0.3790
 1625BOLB   PO138978  22.311  16.514  33.212  0.1201 -0.1915  0.1767
 1625BOLB   GL138979  22.535  16.905  33.396 -0.2648 -0.0360  0.2242
 1625BOLB   GL238980  22.834  17.011  33.202 -0.1764 -0.1691 -0.1610
 1625BOLB   C1A38981  22.726  17.088  33.717 -0.3436 -0.2767  0.1470
 1625BOLB   C2A38982  23.042  17.294  33.771 -0.2817  0.0017 -0.0839
 1625BOLB   C3A38983  23.214  17.579  33.521  0.0814  0.0981  0.0645
 1625BOLB   C4A38984  23.320  17.943  33.217 -0.0465 -0.0128 -0.3178
 1625BOLB   C1B38985  23.089  17.072  33.322 -0.2901 -0.0287 -0.0110
 1625BOLB   C2B38986  23.533  17.139  33.605  0.3290  0.2371 -0.1354
 1625BOLB   C3B38987  23.887  17.107  33.928 -0.2506 -0.0669  0.0525
 1625BOLB   C4B38988  24.070  17.356  34.141  0.0142 -0.0191 -0.1436
 1625BOLB   NC238989  24.401  20.259  32.570  0.0321 -0.3674 -0.0011
 1625BOLB   PO238990  24.624  19.991  32.371 -0.0736  0.1669 -0.0540
 1625BOLB   GL338991  24.221  19.795  32.308 -0.2355  0.1473  0.2961
 1625BOLB   GL438992  24.233  19.912  32.026  0.0400  0.0017 -0.0228
 1625BOLB   C1C38993  23.981  19.328  32.291 -0.0198  0.2645  0.1914
 1625BOLB   C2C38994  23.870  18.843  32.404 -0.0110 -0.1099 -0.1180
 1625BOLB   C3C38995  23.587  18.631  32.593  0.0818  0.0467 -0.5375
 1625BOLB   C4C38996  23.321  18.248  32.853  0.0568  0.0542  0.0816
 1625BOLB   C1D38997  23.820  19.699  31.984 -0.2997  0.1080 -0.0604
 1625BOLB   C2D38998  23.431  19.606  32.163  0.2023 -0.2874 -0.1606
 1625BOLB   C3D38999  23.083  19.371  32.061 -0.0058  0.2803 -0.1476
 1625BOLB   C4D39000  22.668  19.140  31.981  0.1860 -0.3242 -0.1095
 1626BOLB   NC139001  18.628   5.179  25.835  0.2788  0.0792  0.0535
 1626BOLB   PO139002  18.877   4.937  25.570  0.2472 -0.2144  0.0807
 1626BOLB   GL139003  19.069   4.606  25.483  0.1246  0.1346 -0.3573
 1626BOLB   GL239004  19.053   4.593  25.190  0.0635  0.1174  0.0154
 1626BOLB   C1A39005  19.189   4.191  25.422  0.3828  0.1315  0.0735
 1626BOLB   C2A39006  19.256   3.722  25.478 -0.1089  0.2366 -0.2192
 1626BOLB   C3A39007  19.238   3.382  25.328  0.1639 -0.0723 -0.3257
 1626BOLB   C4A39008  19.236   3.149  25.002  0.0166  0.4485 -0.0807
 1626BOLB   C1B39009  19.132   4.305  24.921 -0.0174 -0.0063  0.0559
 1626BOLB   C2B39010  19.467   4.014  24.821  0.0309 -0.3520 -0.1372
 1626BOLB   C3B39011  19.570   3.633  25.021  0.0931 -0.3339  0.1525
 1626BOLB   C4B39012  19.724   3.191  25.015 -0.0223  0.1199  0.2078
 1626BOLB   NC239013  18.450   1.602  22.996 -0.2416  0.1759  0.2133
 1626BOLB   PO239014  18.353   1.673  23.403  0.3098 -0.6447 -0.1100
 1626BOLB   GL339015  18.628   1.996  23.492 -0.0325 -0.0679 -0.2169
 1626BOLB   GL439016  19.039   1.944  23.451 -0.1065 -0.1771  0.1441
 1626BOLB   C1C39017  18.824   2.266  23.776  0.3749  0.1265  0.0187
 1626BOLB   C2C39018  19.095   2.355  24.156  0.2721  0.1851  0.0558
 1626BOLB   C3C39019  19.414   2.445  24.540  0.2495 -0.3645 -0.0923
 1626BOLB   C4C39020  19.389   2.725  24.741 -0.2343  0.1315  0.0247
 1626BOLB   C1D39021  19.037   1.874  23.927 -0.0361  0.0702 -0.0053
 1626BOLB   C2D39022  18.780   1.848  24.272  0.0090  0.3127 -0.1332
 1626BOLB   C3D39023  18.294   1.857  24.568  0.1620  0.0181 -0.1035
 1626BOLB   C4D39024  17.957   1.618  24.708  0.0864  0.1434 -0.1929
 1627BOLB   NC139025  17.581   7.148  37.923 -0.0488 -0.2231 -0.1589
 1627BOLB   PO139026  17.234   7.317  38.090 -0.5533 -0.1294  0.0364
 1627BOLB   GL139027  17.241   7.244  38.492  0.2097  0.1111 -0.0521
 1627BOLB   GL239028  16.922   7.235  38.715 -0.2886 -0.2309 -0.0261
 1627BOLB   C1A39029  17.506   7.301  38.943 -0.0970  0.1600 -0.0760
 1627BOLB   C2A39030  17.691   7.216  39.374 -0.2428  0.3572 -0.0450
 1627BOLB   C3A39031  17.555   7.189  39.818 -0.1941  0.1070 -0.1629
 1627BOLB   C4A39032  17.409   6.911  40.108  0.1938 -0.0590  0.1962
 1627BOLB   C1B39033  17.124   6.842  38.752 -0.1411 -0.1546  0.0338
 1627BOLB   C2B39034  17.561   6.876  38.600 -0.3055  0.0302  0.0907
 1627BOLB   C3B39035  17.825   6.546  38.758 -0.0303  0.2624  0.2678
 1627BOLB   C4B39036  18.025   6.209  38.929  0.2203 -0.3229 -0.2285
 1627BOLB   NC239037  17.793   4.997  41.339 -0.0649  0.0261  0.0019
 1627BOLB   PO239038  18.009   5.130  41.678 -0.0272 -0.1552  0.1214
 1627BOLB   GL339039  17.929   5.467  41.410 -0.2587 -0.2446  0.0201
 1627BOLB   GL439040  17.877   5.707  41.555  0.2032  0.0695  0.3648
 1627BOLB   C1C39041  17.826   5.548  41.044  0.0187 -0.1192 -0.0432
 1627BOLB   C2C39042  17.707   5.779  40.719 -0.0769 -0.3285 -0.3340
 1627BOLB   C3C39043  17.814   6.228  40.629 -0.0594  0.0205 -0.0794
 1627BOLB   C4C39044  17.589   6.604  40.336 -0.1760 -0.0255 -0.2702
 1627BOLB   C1D39045  17.958   6.036  41.249 -0.0063  0.3809  0.1369
 1627BOLB   C2D39046  18.208   6.039  40.860 -0.0237 -0.0599  0.0370
 1627BOLB   C3D39047  18.440   6.290  40.436 -0.0638 -0.0955  0.4896
 1627BOLB   C4D39048  18.602   6.218  40.058 -0.1464  0.0732  0.0683
 1628BOLB   NC139049  16.426  20.115  41.368  0.1684 -0.1091 -0.0832
 1628BOLB   PO139050  16.002  19.989  41.351 -0.0862  0.0716  0.2160
 1628BOLB   GL139051  16.267  19.602  41.268  0.0434 -0.2623 -0.1428
 1628BOLB   GL239052  16.123  19.541  41.013  0.0291  0.0655  0.1448
 1628BOLB   C1A39053  16.611  19.403  41.049  0.1151  0.1519  0.5181
 1628BOLB   C2A39054  16.640  18.974  40.757 -0.0364  0.1352  0.1088
 1628BOLB   C3A39055  16.991  18.598  40.664  0.2496 -0.0910 -0.0777
 1628BOLB   C4A39056  17.024  18.428  40.277  0.0858 -0.2072 -0.1917
 1628BOLB   C1B39057  16.210  19.158  40.846  0.2032 -0.7091 -0.0664
 1628BOLB   C2B39058  16.066  18.756  40.637 -0.0659 -0.3702 -0.0471
 1628BOLB   C3B39059  16.032  18.377  40.402  0.0769  0.0948 -0.0903
 1628BOLB   C4B39060  15.945  18.006  40.248  0.1365  0.0681 -0.1166
 1628BOLB   NC239061  17.483  17.051  38.468 -0.1486  0.1144  0.0944
 1628BOLB   PO239062  17.321  16.700  38.588  0.1465  0.0932  0.4631
 1628BOLB   GL339063  17.138  17.042  38.872  0.0869 -0.0032 -0.0296
 1628BOLB   GL439064  17.431  17.170  38.977  0.0159 -0.2801  0.0905
 1628BOLB   C1C39065  17.012  17.254  39.256 -0.1381 -0.4694  0.0076
 1628BOLB   C2C39066  16.958  17.564  39.545  0.2129 -0.4227 -0.1302
 1628BOLB   C3C39067  17.166  17.786  39.834 -0.1638 -0.0031 -0.1325
 1628BOLB   C4C39068  17.130  18.207  39.944  0.0816  0.3603 -0.0870
 1628BOLB   C1D39069  17.507  17.357  39.335 -0.2950  0.0645  0.2514
 1628BOLB   C2D39070  17.864  17.381  39.525 -0.1659 -0.1397  0.3042
 1628BOLB   C3D39071  18.179  17.371  39.737  0.1244 -0.1505  0.1193
 1628BOLB   C4D39072  18.455  17.200  39.926 -0.0482 -0.4191 -0.1190
 1629BOLB   NC139073  13.092  19.105  23.332 -0.0035  0.1009  0.0857
 1629BOLB   PO139074  12.839  19.002  23.636 -0.2235 -0.0819 -0.2507
 1629BOLB   GL139075  12.683  19.422  23.475  0.0305  0.2004  0.1863
 1629BOLB   GL239076  12.308  19.438  23.673  0.2864 -0.1729 -0.0742
 1629BOLB   C1A39077  12.577  19.559  23.082 -0.1057  0.0284  0.1965
 1629BOLB   C2A39078  12.592  19.972  22.861 -0.3977  0.1245 -0.0665
 1629BOLB   C3A39079  12.353  20.393  22.772  0.0578  0.2084  0.0906
 1629BOLB   C4A39080  12.155  20.595  22.493 -0.1648  0.1153  0.0267
 1629BOLB   C1B39081  12.317  19.952  23.337  0.0093  0.0675  0.0018
 1629BOLB   C2B39082  12.004  20.202  23.213  0.1247  0.0167 -0.0395
 1629BOLB   C3B39083  11.582  20.345  23.211 -0.4750  0.0571 -0.0591
 1629BOLB   C4B39084  11.227  20.413  23.121  0.2097 -0.2161  0.3433
 1629BOLB   NC239085  11.391  21.702  20.452 -0.1598  0.1473 -0.1256
 1629BOLB   PO239086  11.179  21.256  20.388  0.0504 -0.0708  0.2939
 1629BOLB   GL339087  11.566  21.078  20.503  0.0137 -0.1208 -0.1158
 1629BOLB   GL439088  11.749  21.261  20.759 -0.1723  0.2111  0.3042
 1629BOLB   C1C39089  11.670  20.761  20.826 -0.0900 -0.1272  0.2118
 1629BOLB   C2C39090  11.767  20.651  21.197 -0.0328 -0.0661 -0.0710
 1629BOLB   C3C39091  12.005  20.622  21.586 -0.1614 -0.0859  0.0243
 1629BOLB   C4C39092  11.967  20.587  22.070 -0.1637  0.2147 -0.2668
 1629BOLB   C1D39093  12.185  21.158  20.906 -0.1147 -0.0464  0.0435
 1629BOLB   C2D39094  12.199  20.881  21.246  0.0715  0.1870 -0.2684
 1629BOLB   C3D39095  12.533  20.828  21.625  0.2452  0.1331  0.0541
 1629BOLB   C4D39096  12.876  20.893  22.014  0.0228 -0.2326  0.0379
 1630BOLB   NC139097  16.766   7.066  37.581 -0.2332 -0.2127  0.2037
 1630BOLB   PO139098  17.287   7.005  37.620 -0.0386  0.3469  0.1824
 1630BOLB   GL139099  17.218   6.757  37.984  0.0050  0.1098  0.2535
 1630BOLB   GL239100  16.975   6.861  38.211 -0.0701  0.1370 -0.0671
 1630BOLB   C1A39101  17.293   6.507  38.409 -0.0086  0.2390  0.1374
 1630BOLB   C2A39102  17.382   6.342  38.844  0.0108  0.1357  0.0341
 1630BOLB   C3A39103  17.463   6.177  39.322 -0.2411 -0.1990  0.0168
 1630BOLB   C4A39104  17.212   6.209  39.659  0.3778  0.1025  0.3789
 1630BOLB   C1B39105  16.769   6.526  38.480 -0.0425  0.0373 -0.4363
 1630BOLB   C2B39106  16.887   6.329  38.881 -0.1220 -0.0648 -0.2595
 1630BOLB   C3B39107  17.039   6.608  39.217  0.2087  0.0092  0.3466
 1630BOLB   C4B39108  17.491   6.799  39.125  0.1778 -0.1753  0.0095
 1630BOLB   NC239109  17.489   5.287  41.794 -0.1885 -0.0248 -0.1287
 1630BOLB   PO239110  17.355   5.698  41.690  0.0929  0.1073 -0.0821
 1630BOLB   GL339111  17.306   5.867  41.391  0.4516 -0.0186 -0.3301
 1630BOLB   GL439112  17.159   6.152  41.435  0.1471 -0.1976 -0.3185
 1630BOLB   C1C39113  17.426   6.006  41.078  0.1876  0.0807  0.1439
 1630BOLB   C2C39114  17.286   6.299  40.756 -0.0261 -0.2684 -0.0379
 1630BOLB   C3C39115  17.099   6.292  40.314 -0.1405  0.0543 -0.0762
 1630BOLB   C4C39116  17.259   6.427  40.053 -0.1189 -0.2404 -0.1346
 1630BOLB   C1D39117  16.763   6.188  41.317  0.1673 -0.1908 -0.2347
 1630BOLB   C2D39118  16.452   6.114  41.021 -0.1127 -0.2034  0.1274
 1630BOLB   C3D39119  16.325   6.361  40.537  0.0866  0.0520 -0.2982
 1630BOLB   C4D39120  16.578   6.664  40.264  0.2940 -0.1385  0.1830
 1631BOLB   NC139121  23.392   9.711  32.361  0.0771  0.1147  0.0777
 1631BOLB   PO139122  23.359   9.343  32.140 -0.1308  0.1481  0.0720
 1631BOLB   GL139123  23.656   9.275  31.920 -0.0467  0.1991  0.1789
 1631BOLB   GL239124  23.971   9.468  32.169 -0.0325  0.0452  0.2361
 1631BOLB   C1A39125  23.988   9.101  31.879  0.2343 -0.2780  0.1818
 1631BOLB   C2A39126  24.344   8.905  31.851 -0.0233  0.2186  0.0706
 1631BOLB   C3A39127  24.748   8.823  32.149 -0.0913  0.2277  0.0782
 1631BOLB   C4A39128  24.927   8.817  32.585 -0.2174  0.1506  0.0719
 1631BOLB   C1B39129  24.263   9.520  32.293  0.2103 -0.4180  0.0803
 1631BOLB   C2B39130  24.619   9.864  32.392 -0.0969  0.1026  0.0615
 1631BOLB   C3B39131  25.051   9.966  32.464 -0.0513 -0.2139 -0.0842
 1631BOLB   C4B39132  25.211   9.965  32.908  0.0017 -0.0656  0.2672
 1631BOLB   NC239133   0.266   7.875  32.751  0.1172 -0.2534  0.2650
 1631BOLB   PO239134   0.136   8.087  33.195  0.0828 -0.0964 -0.1020
 1631BOLB   GL339135  26.933   8.269  32.791  0.1410  0.0992 -0.3128
 1631BOLB   GL439136  26.830   8.039  32.547 -0.1034 -0.0242 -0.0824
 1631BOLB   C1C39137  26.456   8.325  32.761  0.1338 -0.0326  0.4197
 1631BOLB   C2C39138  25.971   8.417  32.699  0.4487  0.2446 -0.0522
 1631BOLB   C3C39139  25.561   8.560  32.785 -0.0052  0.4432 -0.3358
 1631BOLB   C4C39140  25.202   8.689  32.869 -0.0520  0.0114 -0.1696
 1631BOLB   C1D39141  26.578   8.090  32.320  0.1492  0.0180 -0.0282
 1631BOLB   C2D39142  26.247   8.416  32.251 -0.0363  0.0588  0.1823
 1631BOLB   C3D39143  25.971   8.826  32.399 -0.2521  0.0163 -0.5788
 1631BOLB   C4D39144  25.516   9.035  32.397 -0.2385  0.1865 -0.4015
 1632BOLB   NC139145  11.654   9.076  17.741 -0.0898 -0.0428  0.0537
 1632BOLB   PO139146  11.628   9.361  17.405  0.2810 -0.0886  0.0433
 1632BOLB   GL139147  11.550   9.527  17.885 -0.1546 -0.5372  0.2625
 1632BOLB   GL239148  11.505   9.565  18.208  0.0850  0.1603  0.0401
 1632BOLB   C1A39149  11.797   9.887  18.090 -0.0374 -0.1474 -0.3120
 1632BOLB   C2A39150  12.137  10.088  18.134 -0.1992  0.0425  0.2175
 1632BOLB   C3A39151  12.335  10.325  18.449 -0.0321 -0.3973  0.1170
 1632BOLB   C4A39152  12.628  10.483  18.721  0.1204 -0.3727  0.0226
 1632BOLB   C1B39153  11.572   9.809  18.531  0.1784 -0.0055 -0.1500
 1632BOLB   C2B39154  11.853   9.793  18.704 -0.1238  0.0008  0.2021
 1632BOLB   C3B39155  12.188   9.925  18.778  0.1561  0.3405  0.0238
 1632BOLB   C4B39156  12.552   9.853  19.139 -0.1139 -0.3948  0.1430
 1632BOLB   NC239157  13.182  10.868  21.239  0.0249 -0.2651 -0.0490
 1632BOLB   PO239158  12.832  11.130  21.034  0.2239  0.1546  0.1978
 1632BOLB   GL339159  12.723  11.287  20.678 -0.2046  0.0829  0.0763
 1632BOLB   GL439160  12.361  11.520  20.615  0.1670 -0.0835 -0.3092
 1632BOLB   C1C39161  12.750  10.931  20.331 -0.1857  0.1567  0.1718
 1632BOLB   C2C39162  12.764  10.784  19.924 -0.3038 -0.0091  0.1582
 1632BOLB   C3C39163  12.858  10.824  19.476  0.1543  0.1053 -0.1307
 1632BOLB   C4C39164  12.697  10.878  18.969 -0.0204  0.1547  0.1052
 1632BOLB   C1D39165  12.241  11.202  20.350  0.2504 -0.1744  0.1958
 1632BOLB   C2D39166  12.251  10.860  20.146  0.3578 -0.1836 -0.3959
 1632BOLB   C3D39167  12.170  10.530  19.797 -0.3679  0.1138 -0.1086
 1632BOLB   C4D39168  12.201  10.130  19.655  0.1680  0.0907 -0.0443
 1633BOLB   NC139169  12.477  20.538  28.599  0.0241  0.0657  0.0712
 1633BOLB   PO139170  12.189  20.330  28.215 -0.0764 -0.1796 -0.2292
 1633BOLB   GL139171  12.042  20.724  28.275 -0.0209  0.0279 -0.0668
 1633BOLB   GL239172  11.762  20.869  28.525  0.3407 -0.2661 -0.0687
 1633BOLB   C1A39173  12.281  21.124  28.459 -0.4121 -0.2177  0.2102
 1633BOLB   C2A39174  12.329  21.576  28.388 -0.3021  0.0579 -0.0881
 1633BOLB   C3A39175  12.292  22.074  28.381  0.2474  0.0159  0.4472
 1633BOLB   C4A39176  12.132  22.505  28.203  0.0053  0.2398 -0.0634
 1633BOLB   C1B39177  11.892  21.264  28.170  0.0330 -0.2592  0.1547
 1633BOLB   C2B39178  11.933  21.706  28.123  0.0901 -0.1037 -0.2425
 1633BOLB   C3B39179  11.816  22.086  28.159  0.0134 -0.1942 -0.0401
 1633BOLB   C4B39180  11.497  22.368  28.135  0.2703 -0.2208  0.0517
 1633BOLB   NC239181  11.452  24.940  27.692  0.0740 -0.3216  0.0038
 1633BOLB   PO239182  11.469  24.822  28.084 -0.0656  0.0948 -0.0946
 1633BOLB   GL339183  11.768  24.497  28.093  0.3594  0.4242 -0.1277
 1633BOLB   GL439184  11.895  24.599  28.370  0.2871 -0.4560  0.1202
 1633BOLB   C1C39185  11.690  24.075  28.002  0.0448  0.0499  0.2466
 1633BOLB   C2C39186  11.823  23.698  27.854 -0.2788 -0.1051  0.0726
 1633BOLB   C3C39187  12.081  23.243  27.853 -0.0968  0.2467  0.2275
 1633BOLB   C4C39188  11.965  22.782  27.968  0.1824 -0.1532  0.0232
 1633BOLB   C1D39189  12.142  24.245  28.374 -0.1342 -0.0947 -0.0383
 1633BOLB   C2D39190  11.991  23.813  28.474  0.0862 -0.0156  0.0877
 1633BOLB   C3D39191  12.076  23.341  28.468 -0.1644 -0.0867 -0.4439
 1633BOLB   C4D39192  12.137  22.881  28.474  0.1466  0.0231 -0.2540
 1634BOLB   NC139193  11.408  16.973  36.617  0.2005 -0.2933 -0.0334
 1634BOLB   PO139194  10.815  17.112  36.662 -0.0968  0.1958  0.1274
 1634BOLB   GL139195  10.486  17.067  36.978 -0.0091 -0.1596 -0.2235
 1634BOLB   GL239196  10.224  16.728  36.887  0.3591 -0.2543 -0.1854
 1634BOLB   C1A39197  10.280  17.476  37.332 -0.0943  0.4251  0.1435
 1634BOLB   C2A39198  10.173  17.843  37.487  0.0627  0.0303  0.1106
 1634BOLB   C3A39199   9.777  18.032  37.544 -0.0964 -0.0734 -0.0902
 1634BOLB   C4A39200   9.312  18.226  37.513 -0.3532  0.1848  0.2319
 1634BOLB   C1B39201  10.049  16.975  37.195 -0.1795 -0.2797  0.1047
 1634BOLB   C2B39202   9.749  17.238  37.298 -0.0910 -0.4509 -0.4269
 1634BOLB   C3B39203   9.800  17.473  37.606  0.0796  0.1473 -0.1086
 1634BOLB   C4B39204   9.622  17.735  37.938  0.1290 -0.0395 -0.1328
 1634BOLB   NC239205   8.559  19.345  39.186 -0.3342 -0.1052  0.0335
 1634BOLB   PO239206   8.166  19.161  39.289  0.1815  0.1649  0.0186
 1634BOLB   GL339207   8.222  18.974  38.993 -0.0633  0.0799  0.1993
 1634BOLB   GL439208   8.458  18.976  38.856 -0.2226 -0.0830  0.0055
 1634BOLB   C1C39209   8.175  18.726  38.548  0.3559 -0.1113  0.2453
 1634BOLB   C2C39210   8.514  18.415  38.411 -0.0033  0.0022 -0.2138
 1634BOLB   C3C39211   8.652  18.335  38.072  0.2425  0.2394 -0.3445
 1634BOLB   C4C39212   8.902  18.271  37.680  0.4259  0.3300 -0.0125
 1634BOLB   C1D39213   8.457  18.507  38.973  0.0672 -0.0944 -0.0071
 1634BOLB   C2D39214   8.537  18.084  38.879 -0.0660  0.1740  0.0853
 1634BOLB   C3D39215   8.890  17.747  38.895 -0.0411  0.0842  0.0922
 1634BOLB   C4D39216   9.038  17.339  38.679  0.1636 -0.2684 -0.2297
 1635BOLB   NC139217  10.505   8.106  25.358  0.0222  0.0249 -0.0533
 1635BOLB   PO139218  10.457   7.686  25.404  0.3546 -0.0557  0.2227
 1635BOLB   GL139219  10.287   7.389  25.425 -0.1594 -0.1151  0.0627
 1635BOLB   GL239220  10.175   7.473  25.069 -0.3624 -0.3937 -0.0524
 1635BOLB   C1A39221  10.080   7.058  25.394  0.0214 -0.1956 -0.1042
 1635BOLB   C2A39222   9.863   6.860  25.194  0.1358  0.1245 -0.2307
 1635BOLB   C3A39223   9.541   6.856  24.974 -0.1678 -0.3577  0.0641
 1635BOLB   C4A39224   9.091   6.957  24.769 -0.0413  0.0135  0.0733
 1635BOLB   C1B39225   9.893   7.251  24.881  0.0914 -0.3152 -0.1501
 1635BOLB   C2B39226   9.430   7.369  24.966 -0.4970  0.0864  0.2680
 1635BOLB   C3B39227   9.016   7.437  24.855  0.5358 -0.2142 -0.0044
 1635BOLB   C4B39228   8.729   7.699  24.589 -0.0079  0.1288  0.2308
 1635BOLB   NC239229   7.147   5.689  23.978  0.1997 -0.2441  0.0965
 1635BOLB   PO239230   7.377   5.844  23.603 -0.0356  0.0552 -0.0446
 1635BOLB   GL339231   7.562   6.033  24.025  0.0061 -0.1837 -0.1046
 1635BOLB   GL439232   7.500   6.362  24.106 -0.3450 -0.3345  0.0372
 1635BOLB   C1C39233   7.949   5.994  24.225 -0.1432  0.0329 -0.1557
 1635BOLB   C2C39234   8.166   6.163  24.531 -0.0907  0.1156 -0.1553
 1635BOLB   C3C39235   8.505   6.424  24.559  0.0427  0.0095  0.1743
 1635BOLB   C4C39236   8.809   6.694  24.590  0.0766  0.0710 -0.1768
 1635BOLB   C1D39237   7.889   6.572  24.340  0.0154 -0.0379 -0.4318
 1635BOLB   C2D39238   8.291   6.891  24.425  0.2248  0.0143  0.0291
 1635BOLB   C3D39239   8.311   7.288  24.263  0.2581 -0.0540 -0.0659
 1635BOLB   C4D39240   8.436   7.492  23.965 -0.0805  0.1619  0.0927
 1636BOLB   NC139241  19.437   5.056  28.227  0.0980 -0.0011  0.0629
 1636BOLB   PO139242  19.668   4.718  28.499 -0.0299  0.1545  0.3692
 1636BOLB   GL139243  19.785   4.402  28.234  0.0047  0.0762  0.2343
 1636BOLB   GL239244  19.824   4.176  28.391  0.1955  0.0627 -0.1365
 1636BOLB   C1A39245  19.875   4.169  27.823 -0.1291 -0.1210  0.2930
 1636BOLB   C2A39246  19.967   3.885  27.558 -0.0196  0.3064 -0.1506
 1636BOLB   C3A39247  20.177   3.634  27.270  0.0298 -0.2840  0.1364
 1636BOLB   C4A39248  20.386   3.260  27.094 -0.1679 -0.0872  0.1281
 1636BOLB   C1B39249  20.096   3.792  28.621  0.3992  0.1563  0.2329
 1636BOLB   C2B39250  20.426   3.546  28.287  0.2044 -0.3588  0.0288
 1636BOLB   C3B39251  20.754   3.267  28.238  0.0664 -0.1429 -0.0635
 1636BOLB   C4B39252  20.890   2.959  28.414  0.0375 -0.3193  0.0664
 1636BOLB   NC239253  21.461   0.655  27.171 -0.0689 -0.2083  0.0848
 1636BOLB   PO239254  21.711   0.980  26.913  0.4133 -0.1417  0.2111
 1636BOLB   GL339255  21.566   1.399  26.877 -0.1162 -0.2602  0.5908
 1636BOLB   GL439256  21.674   1.592  27.028  0.2202  0.2147 -0.0286
 1636BOLB   C1C39257  21.373   1.800  26.695 -0.0875 -0.0573 -0.6954
 1636BOLB   C2C39258  21.151   2.204  26.511 -0.2781 -0.1869 -0.0567
 1636BOLB   C3C39259  21.013   2.615  26.591 -0.0934  0.0791 -0.1835
 1636BOLB   C4C39260  20.619   2.873  26.778  0.1320  0.0530  0.3254
 1636BOLB   C1D39261  21.568   1.974  27.210 -0.0309  0.0584 -0.0710
 1636BOLB   C2D39262  21.154   2.174  27.104  0.2530 -0.5260 -0.0182
 1636BOLB   C3D39263  20.771   2.240  26.958  0.2494 -0.3123 -0.0737
 1636BOLB   C4D39264  20.453   2.301  26.687  0.3908 -0.0084 -0.2394
 1637BOLB   NC139265  12.734  21.223  27.585  0.0873 -0.1685 -0.1025
 1637BOLB   PO139266  13.110  20.991  27.484  0.0089 -0.0122 -0.0618
 1637BOLB   GL139267  13.244  21.357  27.374 -0.1977  0.0486 -0.0204
 1637BOLB   GL239268  13.060  21.621  27.378  0.0603 -0.0115 -0.1691
 1637BOLB   C1A39269  13.520  21.731  27.143 -0.2303 -0.0492 -0.2686
 1637BOLB   C2A39270  13.314  22.123  27.146  0.1750 -0.1142 -0.1671
 1637BOLB   C3A39271  13.098  22.545  27.051  0.4483  0.1048  0.2957
 1637BOLB   C4A39272  12.923  22.855  26.775 -0.0338  0.0613 -0.1754
 1637BOLB   C1B39273  12.809  21.966  27.006  0.0298  0.3191 -0.0833
 1637BOLB   C2B39274  12.635  22.398  27.059 -0.0064 -0.4817  0.2603
 1637BOLB   C3B39275  12.481  22.836  27.039  0.0298 -0.1727 -0.4694
 1637BOLB   C4B39276  12.289  23.219  27.274  0.3510 -0.0111  0.2484
 1637BOLB   NC239277  13.759  25.058  25.889 -0.0903  0.0360 -0.0150
 1637BOLB   PO239278  14.021  25.148  26.238 -0.1485 -0.0729  0.0585
 1637BOLB   GL339279  13.913  24.736  26.179 -0.1367  0.2542  0.0266
 1637BOLB   GL439280  14.186  24.515  26.124  0.0887 -0.0890 -0.1147
 1637BOLB   C1C39281  13.706  24.309  26.241  0.1000 -0.0570  0.0006
 1637BOLB   C2C39282  13.570  23.890  26.291 -0.1038  0.1396 -0.1900
 1637BOLB   C3C39283  13.313  23.444  26.381 -0.2253 -0.1783  0.3905
 1637BOLB   C4C39284  13.278  23.086  26.507 -0.0018 -0.0049 -0.2200
 1637BOLB   C1D39285  14.161  24.064  26.200 -0.0411  0.3694  0.0500
 1637BOLB   C2D39286  14.389  23.944  26.646 -0.0003  0.3188  0.0484
 1637BOLB   C3D39287  14.828  23.853  26.946  0.3161 -0.0348 -0.1007
 1637BOLB   C4D39288  15.223  23.923  26.784  0.1160  0.0950 -0.0926
 1638BOLB   NC139289  12.208   6.165  35.354  0.0937  0.0637  0.0135
 1638BOLB   PO139290  12.612   6.148  35.615  0.0303 -0.2806  0.1690
 1638BOLB   GL139291  12.388   5.862  35.726 -0.4212  0.0255 -0.2010
 1638BOLB   GL239292  12.552   5.765  36.052 -0.0584 -0.2635 -0.1399
 1638BOLB   C1A39293  12.067   5.609  35.687  0.0970  0.0506  0.2222
 1638BOLB   C2A39294  11.935   5.213  35.535 -0.0353 -0.0877 -0.1100
 1638BOLB   C3A39295  11.858   4.810  35.550 -0.0039 -0.2090  0.0103
 1638BOLB   C4A39296  11.903   4.456  35.367 -0.0244  0.0001 -0.0052
 1638BOLB   C1B39297  12.296   5.864  36.416 -0.0242  0.0578 -0.1847
 1638BOLB   C2B39298  12.056   5.631  36.755 -0.2700  0.0013 -0.0122
 1638BOLB   C3B39299  12.016   5.394  37.034 -0.5544 -0.1476  0.0995
 1638BOLB   C4B39300  12.006   5.071  37.306 -0.0120 -0.6624 -0.2668
 1638BOLB   NC239301  11.625   2.345  36.183 -0.1342  0.1395 -0.1673
 1638BOLB   PO239302  11.460   2.434  36.563 -0.0038 -0.0449  0.2889
 1638BOLB   GL339303  11.481   2.830  36.209  0.0071  0.0174  0.1393
 1638BOLB   GL439304  11.546   2.780  35.895 -0.1037  0.0645 -0.0696
 1638BOLB   C1C39305  11.264   3.114  35.783 -0.1752  0.0529 -0.4708
 1638BOLB   C2C39306  11.419   3.459  35.437 -0.0957  0.1232  0.0817
 1638BOLB   C3C39307  11.564   3.783  35.252  0.0753 -0.1354  0.0941
 1638BOLB   C4C39308  11.555   4.278  35.126 -0.2689  0.2182 -0.1713
 1638BOLB   C1D39309  11.763   3.058  35.612  0.0709  0.1846  0.5689
 1638BOLB   C2D39310  11.927   3.393  35.301 -0.0839 -0.0699 -0.1188
 1638BOLB   C3D39311  12.209   3.631  35.074 -0.0346  0.3727  0.1967
 1638BOLB   C4D39312  12.449   3.928  35.123  0.3994 -0.2069 -0.0769
 1639BOLB   NC139313  11.826  17.574  23.284 -0.2887 -0.1841 -0.2259
 1639BOLB   PO139314  11.723  17.970  23.246  0.0921 -0.1648  0.1392
 1639BOLB   GL139315  11.495  18.376  23.097  0.0507  0.2555  0.0785
 1639BOLB   GL239316  11.431  18.586  23.363 -0.0772 -0.0506 -0.3157
 1639BOLB   C1A39317  11.249  18.414  22.784  0.2370 -0.1095 -0.0402
 1639BOLB   C2A39318  11.003  18.626  22.375 -0.0553  0.2595  0.1537
 1639BOLB   C3A39319  10.650  18.868  22.396  0.0854  0.0012  0.2535
 1639BOLB   C4A39320  10.518  18.898  22.796  0.0507 -0.3035  0.0439
 1639BOLB   C1B39321  11.080  18.925  23.217 -0.1088  0.0916  0.0046
 1639BOLB   C2B39322  10.797  19.296  23.211  0.2995  0.2468 -0.2543
 1639BOLB   C3B39323  10.571  19.489  23.051  0.1885 -0.0191 -0.6957
 1639BOLB   C4B39324  10.504  19.923  22.958 -0.2249  0.0202  0.2143
 1639BOLB   NC239325   8.050  20.437  22.654  0.1263  0.1073 -0.2062
 1639BOLB   PO239326   8.286  20.098  22.388 -0.2807 -0.1303  0.3554
 1639BOLB   GL339327   8.529  19.927  22.729 -0.2482  0.0098  0.1345
 1639BOLB   GL439328   8.662  20.133  22.928  0.2853  0.0863  0.1078
 1639BOLB   C1C39329   8.749  19.537  22.929 -0.1126  0.3637  0.0594
 1639BOLB   C2C39330   9.217  19.387  23.042  0.0424  0.1571  0.0083
 1639BOLB   C3C39331   9.704  19.188  22.872 -0.2077 -0.0911  0.0862
 1639BOLB   C4C39332  10.086  19.084  22.834 -0.1770  0.3648 -0.0945
 1639BOLB   C1D39333   8.981  20.013  23.107  0.0451  0.3979  0.2099
 1639BOLB   C2D39334   9.274  20.174  23.173  0.1293 -0.3471 -0.0414
 1639BOLB   C3D39335   9.311  20.585  23.344 -0.0597  0.0073  0.1983
 1639BOLB   C4D39336   9.192  21.041  23.510 -0.0664 -0.1264 -0.0320
 1640BOLB   NC139337  10.319  19.769  31.035  0.0306  0.0235 -0.1519
 1640BOLB   PO139338   9.969  19.815  30.676  0.1380 -0.0525 -0.0230
 1640BOLB   GL139339   9.684  20.140  30.706  0.2549 -0.0586  0.1248
 1640BOLB   GL239340   9.846  20.202  31.059 -0.0962  0.0505 -0.3178
 1640BOLB   C1A39341   9.255  20.370  30.716 -0.1716 -0.1216 -0.5344
 1640BOLB   C2A39342   8.919  20.594  30.869  0.1631 -0.2333  0.0508
 1640BOLB   C3A39343   8.559  20.854  30.478 -0.3367 -0.0426 -0.2958
 1640BOLB   C4A39344   8.175  21.047  30.648 -0.2189 -0.0360  0.3071
 1640BOLB   C1B39345   9.569  20.499  31.121 -0.1813 -0.0643  0.3744
 1640BOLB   C2B39346   9.309  20.772  31.072 -0.2456  0.1638 -0.2176
 1640BOLB   C3B39347   8.939  21.007  31.292 -0.0904  0.2604 -0.2189
 1640BOLB   C4B39348   8.822  21.359  31.578  0.0977 -0.1826 -0.0648
 1640BOLB   NC239349   6.462  22.373  31.405 -0.0794  0.0115 -0.2739
 1640BOLB   PO239350   6.871  22.571  31.266 -0.0427 -0.2442  0.0996
 1640BOLB   GL339351   6.848  22.112  31.212 -0.1842 -0.1214  0.1252
 1640BOLB   GL439352   6.792  21.921  30.949  0.0272 -0.1136  0.1336
 1640BOLB   C1C39353   7.054  21.700  31.307 -0.0191 -0.0556  0.1410
 1640BOLB   C2C39354   7.255  21.462  31.110  0.1650 -0.2479 -0.1022
 1640BOLB   C3C39355   7.490  21.224  30.935  0.0536 -0.0855  0.2159
 1640BOLB   C4C39356   7.683  20.988  30.721 -0.1583  0.0938  0.2334
 1640BOLB   C1D39357   7.203  21.999  30.891  0.3412 -0.1299 -0.2741
 1640BOLB   C2D39358   7.543  21.866  30.791  0.1224 -0.0891  0.0601
 1640BOLB   C3D39359   7.958  21.644  30.961 -0.0060  0.0337  0.2619
 1640BOLB   C4D39360   8.274  21.506  30.844 -0.1749  0.0617  0.0164
 1641BOLB   NC139361  23.615  11.079  27.557 -0.0331 -0.0875  0.3808
 1641BOLB   PO139362  23.607  11.435  27.938  0.1263  0.3161 -0.1372
 1641BOLB   GL139363  23.992  11.356  27.743 -0.1196  0.2199 -0.0111
 1641BOLB   GL239364  23.958  11.598  27.535 -0.2932  0.2780 -0.4113
 1641BOLB   C1A39365  24.345  11.175  27.533 -0.1880 -0.2806  0.0717
 1641BOLB   C2A39366  24.739  11.120  27.212 -0.3224 -0.1476 -0.0884
 1641BOLB   C3A39367  24.944  11.090  26.824  0.3093  0.3281  0.1374
 1641BOLB   C4A39368  25.345  11.327  26.617 -0.1510  0.2754  0.1604
 1641BOLB   C1B39369  24.323  11.842  27.462 -0.0213  0.0921  0.0676
 1641BOLB   C2B39370  24.607  11.548  27.299  0.0759  0.0493  0.1156
 1641BOLB   C3B39371  25.018  11.519  26.932 -0.3181 -0.2147 -0.2328
 1641BOLB   C4B39372  25.468  11.680  26.971  0.0704 -0.0012 -0.1072
 1641BOLB   NC239373   0.483  12.126  24.948 -0.2518 -0.3832  0.2222
 1641BOLB   PO239374   0.125  12.236  25.204 -0.1360  0.0922 -0.0948
 1641BOLB   GL339375  26.949  11.856  25.249  0.0400 -0.1392  0.1318
 1641BOLB   GL439376  26.603  11.927  25.312 -0.0211  0.1505 -0.0169
 1641BOLB   C1C39377  26.641  11.512  25.527  0.3086  0.0336  0.2501
 1641BOLB   C2C39378  26.343  11.397  25.828 -0.0249 -0.1268 -0.0624
 1641BOLB   C3C39379  25.949  11.445  26.034 -0.2382  0.0376 -0.0107
 1641BOLB   C4C39380  25.658  11.522  26.486 -0.1254  0.0072  0.1365
 1641BOLB   C1D39381  26.150  11.901  25.355 -0.1706 -0.2117 -0.1277
 1641BOLB   C2D39382  25.800  12.047  25.419 -0.2221 -0.0567 -0.3667
 1641BOLB   C3D39383  25.420  12.041  25.742  0.4041 -0.1328  0.0195
 1641BOLB   C4D39384  24.972  12.011  25.996 -0.3188  0.1326 -0.2322
 1642BOLB   NC139385  20.422   4.985  28.271 -0.1341  0.0543  0.1040
 1642BOLB   PO139386  20.166   4.676  28.437 -0.0884 -0.2268  0.0365
 1642BOLB   GL139387  20.500   4.395  28.399 -0.1521 -0.2151 -0.0284
 1642BOLB   GL239388  20.784   4.473  28.259  0.1479 -0.0245  0.0205
 1642BOLB   C1A39389  20.682   3.939  28.215  0.0414 -0.3651  0.0395
 1642BOLB   C2A39390  21.032   3.707  28.189 -0.0720 -0.0336  0.0284
 1642BOLB   C3A39391  21.262   3.388  28.038 -0.0394  0.2380  0.0442
 1642BOLB   C4A39392  21.125   2.958  28.018 -0.0915 -0.1553  0.1889
 1642BOLB   C1B39393  21.059   4.194  28.156 -0.0856 -0.0343  0.0167
 1642BOLB   C2B39394  21.308   3.962  27.851  0.3525 -0.1829  0.0013
 1642BOLB   C3B39395  21.610   3.766  27.831  0.1202  0.2017  0.0214
 1642BOLB   C4B39396  21.930   3.706  27.965  0.1911 -0.0347 -0.0527
 1642BOLB   NC239397  21.994   1.071  29.098 -0.0002  0.0506  0.0524
 1642BOLB   PO239398  22.058   1.092  28.594 -0.0795  0.1324 -0.2816
 1642BOLB   GL339399  22.025   1.507  28.720  0.0119 -0.0007  0.4090
 1642BOLB   GL439400  22.044   1.541  28.973 -0.1549  0.3775  0.0982
 1642BOLB   C1C39401  21.857   1.780  28.533  0.0661  0.1181 -0.0803
 1642BOLB   C2C39402  21.524   1.846  28.325  0.0535  0.3384 -0.4030
 1642BOLB   C3C39403  21.266   2.150  28.153 -0.0154 -0.0896  0.0005
 1642BOLB   C4C39404  21.158   2.542  28.166 -0.2417 -0.0822  0.1215
 1642BOLB   C1D39405  21.578   1.574  29.033  0.0877  0.1078  0.0970
 1642BOLB   C2D39406  21.232   1.733  28.783 -0.2529  0.2450 -0.1719
 1642BOLB   C3D39407  20.921   1.892  28.490 -0.0219  0.0442 -0.1071
 1642BOLB   C4D39408  20.795   1.944  28.035  0.0058 -0.1564  0.2311
 1643BOLB   NC139409  15.764  20.825  34.715  0.0138 -0.1298 -0.1204
 1643BOLB   PO139410  15.802  20.764  34.311 -0.3003 -0.6672  0.0803
 1643BOLB   GL139411  15.857  21.197  34.198  0.2850 -0.0601  0.0582
 1643BOLB   GL239412  15.854  21.319  34.506 -0.0164  0.0132 -0.1732
 1643BOLB   C1A39413  15.764  21.708  34.194 -0.0119 -0.5114  0.2684
 1643BOLB   C2A39414  15.494  22.084  34.329 -0.3031  0.0728  0.4793
 1643BOLB   C3A39415  15.206  22.342  34.630 -0.1849 -0.2666 -0.2121
 1643BOLB   C4A39416  15.376  22.729  34.774 -0.0620 -0.1406 -0.0652
 1643BOLB   C1B39417  16.079  21.375  34.918 -0.0826 -0.0134  0.2112
 1643BOLB   C2B39418  16.319  21.824  35.064  0.0051 -0.1179 -0.1712
 1643BOLB   C3B39419  16.373  22.272  35.028  0.2155  0.1379 -0.0656
 1643BOLB   C4B39420  16.221  22.655  35.385  0.3547  0.1004  0.3363
 1643BOLB   NC239421  14.868  24.513  34.948 -0.0436  0.0403  0.1230
 1643BOLB   PO239422  14.352  24.618  35.102  0.2276 -0.0838 -0.4024
 1643BOLB   GL339423  14.508  24.356  35.320  0.1375 -0.3712 -0.3243
 1643BOLB   GL439424  14.470  24.041  35.100  0.1664  0.3542  0.0028
 1643BOLB   C1C39425  14.797  24.026  35.457 -0.0709  0.0500 -0.2104
 1643BOLB   C2C39426  14.973  23.678  35.268 -0.0486  0.3885  0.3671
 1643BOLB   C3C39427  15.349  23.511  35.033  0.0694 -0.0329 -0.2770
 1643BOLB   C4C39428  15.572  23.124  34.937  0.1977  0.0550 -0.1060
 1643BOLB   C1D39429  14.301  23.697  34.823  0.2353  0.0638  0.1676
 1643BOLB   C2D39430  14.249  23.431  34.490  0.2674  0.0757  0.2787
 1643BOLB   C3D39431  14.318  23.348  33.983 -0.2624  0.1822 -0.1744
 1643BOLB   C4D39432  14.264  23.134  33.700 -0.1565 -0.1592 -0.1753
 1644BOLB   NC139433  12.565   6.218  25.541  0.0787  0.1383 -0.1377
 1644BOLB   PO139434  12.891   6.262  25.283  0.1435  0.1352  0.0033
 1644BOLB   GL139435  12.655   5.845  25.223 -0.0409 -0.0069  0.1118
 1644BOLB   GL239436  12.859   5.696  25.158 -0.0077  0.2804 -0.2989
 1644BOLB   C1A39437  12.226   5.638  25.102  0.4540  0.1385 -0.0715
 1644BOLB   C2A39438  12.109   5.219  24.927  0.0080  0.0536 -0.2579
 1644BOLB   C3A39439  12.099   4.780  24.757 -0.1677  0.1582 -0.4051
 1644BOLB   C4A39440  12.136   4.386  24.830  0.1782 -0.1407  0.0717
 1644BOLB   C1B39441  13.037   5.377  24.925  0.0703 -0.1522 -0.0318
 1644BOLB   C2B39442  12.923   4.939  24.741  0.0343 -0.1629  0.4830
 1644BOLB   C3B39443  13.015   4.574  24.448  0.4454 -0.2067 -0.0670
 1644BOLB   C4B39444  13.067   4.256  24.243 -0.0050  0.0649  0.1904
 1644BOLB   NC239445  11.105   2.404  23.397  0.0781  0.1737  0.0841
 1644BOLB   PO239446  10.993   2.472  23.768  0.1295  0.0415  0.0202
 1644BOLB   GL339447  11.127   2.852  24.030 -0.3371  0.2081  0.0289
 1644BOLB   GL439448  10.974   3.118  24.081 -0.4531 -0.3020 -0.0007
 1644BOLB   C1C39449  11.473   3.234  24.022  0.0816  0.0661  0.0598
 1644BOLB   C2C39450  11.731   3.286  24.336  0.4928  0.1816 -0.0866
 1644BOLB   C3C39451  11.801   3.725  24.504 -0.5097  0.1228 -0.1504
 1644BOLB   C4C39452  11.963   4.104  24.652 -0.2458  0.0632  0.0595
 1644BOLB   C1D39453  11.130   3.568  23.846  0.0757 -0.0038  0.2463
 1644BOLB   C2D39454  11.126   4.073  23.854  0.0970  0.0558 -0.0634
 1644BOLB   C3D39455  11.018   4.531  23.662  0.0511  0.2237 -0.2373
 1644BOLB   C4D39456  10.970   4.811  23.938  0.3841  0.2304 -0.0073
 1645BOLB   NC139457  15.016  25.023  25.424 -0.0034  0.4562  0.2681
 1645BOLB   PO139458  14.883  24.630  25.317 -0.0705 -0.0810 -0.2154
 1645BOLB   GL139459  14.915  24.333  25.549  0.2666 -0.1188  0.5216
 1645BOLB   GL239460  14.923  24.132  25.798 -0.2945  0.4052  0.2167
 1645BOLB   C1A39461  15.267  23.965  25.388 -0.0882  0.2118 -0.1033
 1645BOLB   C2A39462  15.541  23.637  25.464 -0.1903 -0.0765 -0.0603
 1645BOLB   C3A39463  15.663  23.198  25.644  0.0031  0.0585 -0.0351
 1645BOLB   C4A39464  15.770  22.805  25.624 -0.0599  0.0114  0.3702
 1645BOLB   C1B39465  15.081  23.759  25.822  0.1704  0.1439  0.3352
 1645BOLB   C2B39466  14.928  23.617  25.546 -0.4056 -0.1271 -0.3851
 1645BOLB   C3B39467  14.615  23.405  25.190 -0.0390  0.0926  0.2258
 1645BOLB   C4B39468  14.282  23.168  25.065  0.1257  0.1159  0.1697
 1645BOLB   NC239469  15.322  20.446  25.333 -0.2117 -0.1890  0.1796
 1645BOLB   PO239470  15.100  20.732  25.593 -0.1168 -0.1999 -0.1067
 1645BOLB   GL339471  15.443  20.928  25.474 -0.0811 -0.0089 -0.3438
 1645BOLB   GL439472  15.772  21.025  25.682 -0.1726  0.1107  0.1451
 1645BOLB   C1C39473  15.560  21.400  25.360  0.2385  0.0193 -0.0201
 1645BOLB   C2C39474  15.631  21.894  25.192  0.1343  0.1273 -0.2588
 1645BOLB   C3C39475  15.832  22.198  25.244  0.0189  0.0548 -0.0662
 1645BOLB   C4C39476  15.890  22.465  25.523  0.0373 -0.1387  0.1470
 1645BOLB   C1D39477  15.987  21.382  25.674  0.1807  0.0849  0.1270
 1645BOLB   C2D39478  16.241  21.726  25.794 -0.1072  0.0498  0.0700
 1645BOLB   C3D39479  16.055  22.131  25.883  0.0382 -0.2526  0.0914
 1645BOLB   C4D39480  15.632  22.351  26.057 -0.1972 -0.0306 -0.1664
 1646BOLB   NC139481  11.780   5.726  33.377 -0.4129  0.4515 -0.0488
 1646BOLB   PO139482  11.734   5.541  33.007  0.1168  0.2622  0.2231
 1646BOLB   GL139483  11.672   5.218  33.242 -0.1282 -0.0875 -0.0042
 1646BOLB   GL239484  11.944   5.179  33.428  0.2399  0.0639 -0.2597
 1646BOLB   C1A39485  11.652   4.784  33.189 -0.0030  0.1734 -0.1972
 1646BOLB   C2A39486  11.360   4.561  33.046 -0.2198  0.2091 -0.2063
 1646BOLB   C3A39487  11.125   4.179  33.156  0.0434 -0.1078 -0.2994
 1646BOLB   C4A39488  11.109   3.740  33.284 -0.0215 -0.0653  0.1787
 1646BOLB   C1B39489  12.018   4.893  33.729  0.2174 -0.2025 -0.0714
 1646BOLB   C2B39490  11.921   4.521  33.740 -0.3016  0.0715  0.2599
 1646BOLB   C3B39491  11.922   4.174  33.324 -0.1103 -0.0559  0.4310
 1646BOLB   C4B39492  11.555   3.991  32.973  0.2041 -0.1070 -0.0580
 1646BOLB   NC239493  10.528   1.765  33.772 -0.4061  0.2227 -0.3988
 1646BOLB   PO239494  10.960   1.801  34.025 -0.4357  0.4329 -0.1803
 1646BOLB   GL339495  11.240   2.117  34.090 -0.2514  0.0147  0.1573
 1646BOLB   GL439496  11.523   1.915  34.079  0.2145 -0.0351  0.1166
 1646BOLB   C1C39497  11.574   2.532  34.096 -0.0585  0.2481 -0.1875
 1646BOLB   C2C39498  11.605   2.894  34.053 -0.3730  0.0452  0.3226
 1646BOLB   C3C39499  11.491   3.173  33.625 -0.3021  0.1299 -0.0510
 1646BOLB   C4C39500  11.186   3.386  33.460  0.0386 -0.2286  0.0709
 1646BOLB   C1D39501  11.780   2.231  33.805  0.1807  0.0921  0.0246
 1646BOLB   C2D39502  11.831   2.477  33.386 -0.0252 -0.0399 -0.1336
 1646BOLB   C3D39503  11.835   2.950  33.288 -0.0479  0.2612  0.1211
 1646BOLB   C4D39504  12.072   3.280  33.274 -0.0413 -0.3315 -0.0907
 1647BOLB   NC139505   8.382  16.185  32.503 -0.2557  0.2596  0.2099
 1647BOLB   PO139506   8.107  16.507  32.700 -0.3280  0.2898 -0.2171
 1647BOLB   GL139507   7.691  16.675  32.786  0.0717  0.0352 -0.1957
 1647BOLB   GL239508   7.568  16.869  32.565  0.2453  0.1297  0.0568
 1647BOLB   C1A39509   7.218  16.852  32.920  0.0998  0.1228 -0.0308
 1647BOLB   C2A39510   6.917  17.142  32.840  0.2954  0.1937 -0.0216
 1647BOLB   C3A39511   6.601  17.323  32.697  0.1934  0.0060 -0.1954
 1647BOLB   C4A39512   6.525  17.671  32.905  0.1180 -0.1501 -0.1977
 1647BOLB   C1B39513   7.302  17.091  32.208  0.1942  0.2221  0.0712
 1647BOLB   C2B39514   6.919  17.281  32.074  0.0017 -0.0228 -0.0038
 1647BOLB   C3B39515   6.463  17.508  31.957 -0.3454 -0.0213 -0.3552
 1647BOLB   C4B39516   5.940  17.554  32.052 -0.1090 -0.0666  0.2879
 1647BOLB   NC239517   4.755  19.128  34.377 -0.0457  0.0665 -0.3507
 1647BOLB   PO239518   4.817  19.226  33.988 -0.0118  0.0013 -0.2110
 1647BOLB   GL339519   5.078  18.914  33.900  0.2275  0.2931 -0.5905
 1647BOLB   GL439520   5.187  18.933  33.457  0.1576  0.3518  0.0310
 1647BOLB   C1C39521   5.377  18.571  33.923 -0.3058  0.1862  0.0954
 1647BOLB   C2C39522   5.670  18.324  33.782  0.1401  0.1411  0.2624
 1647BOLB   C3C39523   5.955  18.050  33.424 -0.2846  0.0643  0.1868
 1647BOLB   C4C39524   6.253  17.786  33.306  0.2229 -0.1388 -0.2280
 1647BOLB   C1D39525   5.259  18.872  32.973 -0.2019  0.3311  0.2161
 1647BOLB   C2D39526   5.487  18.611  32.694 -0.0353  0.1313 -0.1499
 1647BOLB   C3D39527   5.697  18.658  32.325 -0.2418 -0.2023 -0.0701
 1647BOLB   C4D39528   6.044  18.399  32.090  0.0108  0.4866 -0.2828
 1648BOLB   NC139529  17.546  18.956  35.913  0.1509 -0.1651 -0.2876
 1648BOLB   PO139530  17.868  19.336  35.661 -0.3261 -0.0292 -0.1482
 1648BOLB   GL139531  17.914  19.680  35.822 -0.0626 -0.1326  0.1897
 1648BOLB   GL239532  18.037  19.941  35.589  0.2988 -0.2763 -0.1154
 1648BOLB   C1A39533  17.829  20.119  36.059 -0.0303  0.1119  0.1029
 1648BOLB   C2A39534  17.776  20.599  36.114  0.0650 -0.1286 -0.1683
 1648BOLB   C3A39535  17.946  20.999  36.136 -0.0628  0.0274 -0.1770
 1648BOLB   C4A39536  18.310  21.099  36.213  0.2196 -0.1134 -0.2767
 1648BOLB   C1B39537  18.170  20.319  35.705  0.1726  0.3953 -0.3514
 1648BOLB   C2B39538  18.311  20.426  36.137  0.1256 -0.1038 -0.0191
 1648BOLB   C3B39539  18.176  20.682  36.491  0.2097 -0.0959 -0.0967
 1648BOLB   C4B39540  18.109  20.626  36.795  0.2182  0.2143  0.5001
 1648BOLB   NC239541  19.497  22.916  37.231 -0.0441 -0.0817 -0.1409
 1648BOLB   PO239542  19.845  22.640  37.129  0.0605 -0.3740  0.2810
 1648BOLB   GL339543  19.664  22.124  37.020  0.0074 -0.3877  0.1375
 1648BOLB   GL439544  19.532  21.964  37.334 -0.0278  0.0874 -0.1750
 1648BOLB   C1C39545  19.584  21.720  36.797 -0.1922 -0.1903  0.5444
 1648BOLB   C2C39546  19.145  21.613  36.585 -0.1718  0.1538 -0.1060
 1648BOLB   C3C39547  18.797  21.311  36.277 -0.0186 -0.4741 -0.2564
 1648BOLB   C4C39548  18.732  20.952  36.190 -0.0128 -0.0560 -0.1426
 1648BOLB   C1D39549  19.111  21.959  36.979 -0.0653 -0.0212 -0.1126
 1648BOLB   C2D39550  18.777  21.987  36.738  0.1891  0.0713  0.0809
 1648BOLB   C3D39551  18.612  21.783  36.482  0.0552  0.2054 -0.2886
 1648BOLB   C4D39552  18.287  21.480  36.567 -0.2456 -0.0592 -0.0986
 1649BOLB   NC139553  18.967  12.579  39.138  0.4022 -0.2955  0.2216
 1649BOLB   PO139554  18.827  13.011  39.022  0.0593  0.0332 -0.0817
 1649BOLB   GL139555  18.948  13.008  39.381 -0.0345 -0.2097 -0.0049
 1649BOLB   GL239556  18.936  13.328  39.385  0.0570 -0.0984 -0.0045
 1649BOLB   C1A39557  19.070  12.983  39.844 -0.1438  0.4524 -0.2145
 1649BOLB   C2A39558  19.402  12.860  40.163 -0.1164  0.1496  0.0896
 1649BOLB   C3A39559  19.574  12.666  40.632 -0.1852  0.1473 -0.2291
 1649BOLB   C4A39560  19.792  12.391  40.855 -0.2343  0.0691  0.1990
 1649BOLB   C1B39561  19.126  13.515  39.702  0.3402 -0.1751 -0.0391
 1649BOLB   C2B39562  19.195  13.875  39.954  0.1298 -0.1914 -0.1535
 1649BOLB   C3B39563  19.201  13.950  40.356  0.3342 -0.2162  0.2585
 1649BOLB   C4B39564  19.073  13.702  40.689  0.3717  0.0262  0.0391
 1649BOLB   NC239565  21.099  12.994  43.072 -0.0002  0.4189 -0.1576
 1649BOLB   PO239566  20.719  12.962  43.122 -0.2452 -0.2110  0.0636
 1649BOLB   GL339567  20.371  12.690  42.780  0.0506  0.0939  0.0345
 1649BOLB   GL439568  20.479  12.405  42.817  0.2245  0.0557  0.1164
 1649BOLB   C1C39569  20.087  12.663  42.376 -0.0189  0.3312  0.4730
 1649BOLB   C2C39570  19.892  12.568  42.002 -0.1836 -0.2985 -0.0495
 1649BOLB   C3C39571  19.851  12.422  41.679 -0.2665 -0.0808  0.4381
 1649BOLB   C4C39572  19.771  12.483  41.269 -0.0275 -0.1197  0.1785
 1649BOLB   C1D39573  20.121  12.110  42.684 -0.2730  0.1417  0.3432
 1649BOLB   C2D39574  19.939  11.999  42.267 -0.1388 -0.1433  0.1504
 1649BOLB   C3D39575  19.540  12.053  42.126 -0.0230  0.0607  0.2834
 1649BOLB   C4D39576  19.440  12.198  41.761  0.2014 -0.2152  0.0535
 1650BOLB   NC139577  12.484  18.615  35.409 -0.0939 -0.0566 -0.1428
 1650BOLB   PO139578  12.654  19.013  35.253  0.2875 -0.1885 -0.2185
 1650BOLB   GL139579  12.605  19.445  35.583 -0.0971 -0.2633  0.0597
 1650BOLB   GL239580  12.428  19.792  35.524  0.1863  0.1430 -0.4043
 1650BOLB   C1A39581  12.610  19.686  35.922  0.0789  0.1373 -0.0680
 1650BOLB   C2A39582  12.711  20.067  36.106  0.0156  0.2775  0.2098
 1650BOLB   C3A39583  12.519  20.437  36.252  0.5815  0.2625 -0.2442
 1650BOLB   C4A39584  12.227  20.810  36.272  0.1864  0.1215  0.5337
 1650BOLB   C1B39585  12.218  20.033  35.829  0.0246 -0.0742  0.3840
 1650BOLB   C2B39586  11.981  20.453  35.969 -0.4898  0.0597  0.0223
 1650BOLB   C3B39587  11.834  20.824  35.974  0.2328  0.1463  0.0044
 1650BOLB   C4B39588  11.702  21.198  36.199  0.1040 -0.0643  0.1389
 1650BOLB   NC239589  11.276  22.723  37.159  0.1298  0.0952 -0.1721
 1650BOLB   PO239590  11.344  23.114  36.825  0.1172  0.4439 -0.2357
 1650BOLB   GL339591  11.658  22.840  36.831  0.0070 -0.0255 -0.0862
 1650BOLB   GL439592  11.503  22.569  36.765 -0.1980  0.2291 -0.0306
 1650BOLB   C1C39593  12.027  22.539  36.769 -0.0180 -0.0378 -0.2737
 1650BOLB   C2C39594  12.157  22.102  36.502  0.0248 -0.1744  0.1972
 1650BOLB   C3C39595  12.157  21.708  36.470  0.1390 -0.0856  0.1304
 1650BOLB   C4C39596  12.267  21.277  36.404 -0.0378 -0.0200  0.3148
 1650BOLB   C1D39597  11.654  22.209  36.427 -0.0203  0.0693 -0.2420
 1650BOLB   C2D39598  11.873  21.938  36.081 -0.0530 -0.0533 -0.3959
 1650BOLB   C3D39599  11.980  21.878  35.609 -0.0573 -0.0223  0.0842
 1650BOLB   C4D39600  12.372  22.013  35.302 -0.0941 -0.1730 -0.2252
 1651BOLB   NC139601  16.276   4.425  31.708 -0.2653 -0.1266 -0.1740
 1651BOLB   PO139602  15.853   4.474  31.851 -0.0993 -0.0454 -0.2629
 1651BOLB   GL139603  15.852   4.110  31.836  0.1618  0.0179  0.0501
 1651BOLB   GL239604  16.186   3.909  31.791 -0.4078 -0.0737  0.0139
 1651BOLB   C1A39605  15.785   3.694  31.952  0.0386  0.0153  0.2692
 1651BOLB   C2A39606  15.723   3.279  31.841  0.0377 -0.0295 -0.2451
 1651BOLB   C3A39607  15.448   3.024  31.653  0.0296 -0.0729  0.0126
 1651BOLB   C4A39608  15.082   2.688  31.545  0.0625 -0.0134 -0.3100
 1651BOLB   C1B39609  16.107   3.494  31.639  0.0235  0.2267  0.0223
 1651BOLB   C2B39610  16.163   3.177  31.847  0.0445  0.1225 -0.0818
 1651BOLB   C3B39611  15.870   2.773  31.936  0.2096 -0.0545  0.0570
 1651BOLB   C4B39612  15.535   2.478  31.867 -0.1043  0.5608  0.0462
 1651BOLB   NC239613  13.461   0.458  31.258  0.0626 -0.0522  0.0207
 1651BOLB   PO239614  13.670   0.612  31.542  0.3681  0.4555 -0.0853
 1651BOLB   GL339615  13.842   0.957  31.419 -0.0229 -0.3645 -0.4620
 1651BOLB   GL439616  14.173   0.958  31.445 -0.1535  0.0683 -0.0193
 1651BOLB   C1C39617  14.014   1.343  31.292  0.1443  0.2032  0.2925
 1651BOLB   C2C39618  14.223   1.682  31.297  0.0457  0.2372 -0.1644
 1651BOLB   C3C39619  14.457   1.941  31.479 -0.0555 -0.0953 -0.0345
 1651BOLB   C4C39620  14.689   2.311  31.563 -0.1056  0.2109  0.1860
 1651BOLB   C1D39621  14.512   1.291  31.240  0.1039 -0.0919  0.2742
 1651BOLB   C2D39622  14.723   1.607  31.320 -0.0483 -0.0752  0.0498
 1651BOLB   C3D39623  14.804   2.047  31.141 -0.1844  0.2795  0.0458
 1651BOLB   C4D39624  15.052   2.289  30.950 -0.3664 -0.1346 -0.0657
 1652BOLB   NC139625  20.601   7.124  35.500 -0.1878 -0.1631  0.0614
 1652BOLB   PO139626  20.505   6.843  35.303 -0.2907 -0.1924 -0.2701
 1652BOLB   GL139627  20.727   6.391  35.370  0.0935  0.2121  0.1963
 1652BOLB   GL239628  20.596   6.076  35.511 -0.2525  0.0638 -0.2104
 1652BOLB   C1A39629  21.062   6.236  35.550 -0.0460  0.3933 -0.0194
 1652BOLB   C2A39630  21.065   5.997  36.014 -0.3464  0.0680 -0.1148
 1652BOLB   C3A39631  20.912   5.755  36.472 -0.1498  0.1671  0.1219
 1652BOLB   C4A39632  20.953   5.594  36.854  0.2442  0.1782 -0.1611
 1652BOLB   C1B39633  20.939   5.796  35.438  0.0785  0.1657  0.0106
 1652BOLB   C2B39634  21.112   5.387  35.682 -0.4033 -0.0620  0.2492
 1652BOLB   C3B39635  21.466   5.081  35.682  0.4269  0.0141  0.0514
 1652BOLB   C4B39636  21.930   4.959  35.875  0.0521  0.0012  0.3844
 1652BOLB   NC239637  22.151   4.149  38.441 -0.1588 -0.3620 -0.2082
 1652BOLB   PO239638  22.422   4.463  38.177  0.0335 -0.1164  0.0006
 1652BOLB   GL339639  22.024   4.569  38.136  0.0323 -0.1261  0.2053
 1652BOLB   GL439640  21.809   4.574  38.302 -0.1006  0.0545 -0.0426
 1652BOLB   C1C39641  21.748   4.932  37.916 -0.1558  0.1147 -0.2303
 1652BOLB   C2C39642  21.351   5.155  37.898  0.0601  0.0663 -0.0030
 1652BOLB   C3C39643  21.203   5.348  37.580  0.1050 -0.1525 -0.0280
 1652BOLB   C4C39644  21.103   5.563  37.297 -0.7386  0.2841  0.0530
 1652BOLB   C1D39645  21.362   4.722  38.183 -0.2765 -0.1010  0.0583
 1652BOLB   C2D39646  20.983   4.884  37.787  0.0757  0.0889 -0.0392
 1652BOLB   C3D39647  20.782   5.100  37.417  0.1656  0.1966 -0.0959
 1652BOLB   C4D39648  20.572   5.254  37.001 -0.0384  0.0311 -0.1716
 1653BOLB   NC139649  16.904  16.355  38.546  0.0708 -0.0795 -0.2824
 1653BOLB   PO139650  17.310  16.168  38.746  0.2139 -0.1220 -0.0076
 1653BOLB   GL139651  17.236  16.586  39.047  0.1126 -0.0507  0.1419
 1653BOLB   GL239652  17.463  16.446  39.282  0.0574  0.1375 -0.3224
 1653BOLB   C1A39653  17.302  16.892  39.493 -0.3374 -0.1731 -0.0457
 1653BOLB   C2A39654  17.443  17.214  39.835 -0.0799 -0.2242  0.4491
 1653BOLB   C3A39655  17.759  17.511  40.004 -0.1641  0.0534  0.1558
 1653BOLB   C4A39656  17.915  17.451  40.399 -0.3011  0.3533 -0.2768
 1653BOLB   C1B39657  17.631  16.490  39.733  0.0063 -0.2166  0.0211
 1653BOLB   C2B39658  17.528  16.773  40.017  0.0592 -0.0045  0.0281
 1653BOLB   C3B39659  17.540  17.094  40.332  0.1783  0.5328 -0.0476
 1653BOLB   C4B39660  17.611  17.266  40.715 -0.3722  0.2921 -0.2523
 1653BOLB   NC239661  17.019  18.596  42.235  0.3259 -0.0524 -0.1963
 1653BOLB   PO239662  17.278  18.238  42.356  0.0618  0.2124  0.0787
 1653BOLB   GL339663  17.507  17.890  42.147  0.0790 -0.0793  0.0966
 1653BOLB   GL439664  17.542  17.580  42.240 -0.1242  0.1462  0.0009
 1653BOLB   C1C39665  17.754  17.710  41.802  0.3274  0.1707 -0.0328
 1653BOLB   C2C39666  18.211  17.639  41.421  0.2876 -0.2641  0.1317
 1653BOLB   C3C39667  18.228  17.786  40.965  0.2209 -0.0396  0.0219
 1653BOLB   C4C39668  18.003  17.607  40.683  0.0017 -0.0852  0.0090
 1653BOLB   C1D39669  17.887  17.321  42.087 -0.3511  0.2568  0.1297
 1653BOLB   C2D39670  17.872  17.121  41.647  0.0570 -0.0666  0.0784
 1653BOLB   C3D39671  18.087  16.978  41.346 -0.2168 -0.0885  0.1796
 1653BOLB   C4D39672  18.145  17.217  40.915 -0.4019 -0.0132  0.2596
 1654BOLB   NC139673  16.113  11.031  14.579  0.0870  0.3085 -0.4397
 1654BOLB   PO139674  16.501  10.745  14.771  0.0796  0.0001 -0.0471
 1654BOLB   GL139675  16.365  10.696  15.253  0.0597 -0.2036 -0.1251
 1654BOLB   GL239676  16.147  10.502  15.315  0.3963 -0.3228  0.1811
 1654BOLB   C1A39677  16.240  10.699  15.711 -0.1785 -0.1238 -0.1337
 1654BOLB   C2A39678  16.271  10.468  16.055  0.0081  0.1953 -0.1349
 1654BOLB   C3A39679  16.153  10.660  16.426 -0.0437  0.1854 -0.0064
 1654BOLB   C4A39680  16.139  10.970  16.647  0.0963 -0.3069  0.0524
 1654BOLB   C1B39681  15.913  10.320  15.583 -0.0512 -0.1634  0.2793
 1654BOLB   C2B39682  15.882  10.065  15.942 -0.0209  0.0897  0.3413
 1654BOLB   C3B39683  16.136   9.991  16.334  0.1501  0.2920  0.1014
 1654BOLB   C4B39684  16.281  10.234  16.626  0.3836 -0.0702 -0.0064
 1654BOLB   NC239685  17.401  11.889  14.734 -0.1044  0.4524  0.2937
 1654BOLB   PO239686  16.887  11.685  14.752 -0.1269 -0.2694 -0.2438
 1654BOLB   GL339687  16.976  11.925  15.153  0.0146  0.3207  0.0247
 1654BOLB   GL439688  17.290  11.962  15.237 -0.2036  0.0755  0.0530
 1654BOLB   C1C39689  16.873  11.619  15.634 -0.1038  0.1308  0.2143
 1654BOLB   C2C39690  16.893  11.512  16.131  0.0940  0.0693  0.0691
 1654BOLB   C3C39691  16.524  11.455  16.288  0.2392 -0.0938  0.3655
 1654BOLB   C4C39692  16.259  11.328  16.458 -0.0813 -0.2231  0.1098
 1654BOLB   C1D39693  17.189  11.997  15.676 -0.1461 -0.0227  0.1166
 1654BOLB   C2D39694  17.129  12.142  16.090 -0.2279  0.0575 -0.0236
 1654BOLB   C3D39695  17.392  12.248  16.478 -0.1126  0.1552  0.1663
 1654BOLB   C4D39696  17.773  12.210  16.654 -0.1007 -0.0974  0.1044
 1655BOLB   NC139697  11.329   1.483  33.972 -0.0940  0.2052  0.0076
 1655BOLB   PO139698  11.573   1.404  34.368  0.0822  0.1131 -0.0911
 1655BOLB   GL139699  12.018   1.551  34.355 -0.0605  0.2306  0.1864
 1655BOLB   GL239700  12.174   1.903  34.321  0.0609  0.0348 -0.0518
 1655BOLB   C1A39701  12.263   1.550  33.914 -0.0551  0.1510 -0.2529
 1655BOLB   C2A39702  12.493   1.746  33.587  0.4473 -0.1008 -0.1536
 1655BOLB   C3A39703  12.739   2.132  33.561 -0.3467  0.1198  0.0203
 1655BOLB   C4A39704  12.900   2.562  33.764  0.0359  0.3111  0.2257
 1655BOLB   C1B39705  12.103   2.290  34.224 -0.2486  0.1788  0.3448
 1655BOLB   C2B39706  12.081   2.639  33.954  0.2228 -0.2462  0.2991
 1655BOLB   C3B39707  12.016   3.116  33.775 -0.3411 -0.1949  0.0454
 1655BOLB   C4B39708  11.775   3.523  33.585  0.0172  0.1290 -0.1167
 1655BOLB   NC239709  12.641   5.185  33.108  0.0566  0.2026  0.3906
 1655BOLB   PO239710  12.550   5.106  33.528  0.0232  0.0311  0.1636
 1655BOLB   GL339711  12.289   4.707  33.377  0.1641  0.0091  0.0610
 1655BOLB   GL439712  12.119   4.605  33.035  0.2181 -0.0365 -0.0458
 1655BOLB   C1C39713  12.396   4.199  33.227  0.0662 -0.0280 -0.1821
 1655BOLB   C2C39714  12.433   3.696  33.195 -0.0772  0.4120 -0.4587
 1655BOLB   C3C39715  12.621   3.311  33.463 -0.0291 -0.1385  0.4573
 1655BOLB   C4C39716  12.901   2.898  33.511  0.0280  0.3261 -0.5242
 1655BOLB   C1D39717  11.899   4.359  32.842 -0.0254  0.0177  0.1675
 1655BOLB   C2D39718  11.571   4.490  32.635  0.0790  0.2293  0.0755
 1655BOLB   C3D39719  11.192   4.168  32.558 -0.1627  0.1444 -0.1729
 1655BOLB   C4D39720  10.979   3.842  32.586 -0.4046 -0.1809  0.0184
 1656BOLB   NC139721  13.491   4.793  28.104 -0.0552  0.1356  0.0094
 1656BOLB   PO139722  13.244   4.803  27.674  0.0936  0.2913  0.1509
 1656BOLB   GL139723  13.209   4.388  27.451 -0.0508 -0.2903 -0.1136
 1656BOLB   GL239724  12.892   4.288  27.541 -0.1361  0.2760  0.0089
 1656BOLB   C1A39725  13.340   3.895  27.508 -0.1083  0.0122 -0.1097
 1656BOLB   C2A39726  13.398   3.563  27.725  0.0319  0.3009  0.0563
 1656BOLB   C3A39727  13.156   3.395  28.021 -0.2775  0.1341 -0.0514
 1656BOLB   C4A39728  12.795   3.094  27.980 -0.2514  0.1346  0.0989
 1656BOLB   C1B39729  12.876   3.866  27.415  0.1991 -0.0079 -0.1935
 1656BOLB   C2B39730  12.764   3.432  27.488  0.2495 -0.0942 -0.0464
 1656BOLB   C3B39731  13.108   3.120  27.550 -0.3349  0.0519 -0.0564
 1656BOLB   C4B39732  13.491   3.027  27.551 -0.1805  0.0283  0.3338
 1656BOLB   NC239733  12.268   0.474  28.227 -0.0155 -0.1009  0.1703
 1656BOLB   PO239734  11.988   0.752  28.475  0.0509  0.2169  0.0928
 1656BOLB   GL339735  12.298   0.979  28.257  0.0922  0.1331 -0.1216
 1656BOLB   GL439736  12.585   0.901  28.243  0.3260  0.1248  0.0321
 1656BOLB   C1C39737  12.300   1.464  28.307 -0.1178  0.0201  0.0347
 1656BOLB   C2C39738  12.520   1.811  28.264 -0.0962  0.0610 -0.2145
 1656BOLB   C3C39739  12.611   2.324  28.240  0.2645  0.0783 -0.0473
 1656BOLB   C4C39740  12.569   2.698  28.069  0.0029  0.1772  0.0986
 1656BOLB   C1D39741  12.671   1.069  28.673  0.5379 -0.3594 -0.0711
 1656BOLB   C2D39742  12.858   1.365  28.968  0.0861 -0.0097  0.1348
 1656BOLB   C3D39743  13.125   1.622  28.813  0.1640  0.0239 -0.3236
 1656BOLB   C4D39744  13.359   2.019  28.778  0.1784 -0.2579 -0.2458
 1657BOLB   NC139745   9.928  13.210  42.952 -0.0235  0.5187  0.0559
 1657BOLB   PO139746   9.800  13.101  42.671  0.0048 -0.2619  0.3064
 1657BOLB   GL139747   9.841  12.967  42.212 -0.1598  0.1232  0.0371
 1657BOLB   GL239748  10.098  12.740  42.071 -0.2187 -0.0524 -0.0823
 1657BOLB   C1A39749   9.954  13.324  41.892 -0.1370  0.0691  0.2082
 1657BOLB   C2A39750  10.040  13.222  41.417 -0.3237  0.0993 -0.1871
 1657BOLB   C3A39751   9.995  13.379  41.041  0.2951  0.0202 -0.0678
 1657BOLB   C4A39752   9.754  13.225  40.633 -0.2170 -0.0650 -0.1939
 1657BOLB   C1B39753  10.209  12.767  41.739  0.4838  0.3930  0.0723
 1657BOLB   C2B39754  10.368  12.834  41.404  0.1764  0.0387 -0.2918
 1657BOLB   C3B39755  10.540  12.942  40.987 -0.1591  0.0062 -0.0007
 1657BOLB   C4B39756  10.746  12.778  40.523 -0.0913 -0.1807  0.2212
 1657BOLB   NC239757   7.663  12.068  41.491  0.0879 -0.2842  0.1793
 1657BOLB   PO239758   8.035  12.003  41.391  0.2029 -0.0875 -0.0399
 1657BOLB   GL339759   8.455  12.009  41.224 -0.1059 -0.1826 -0.2048
 1657BOLB   GL439760   8.651  11.964  41.400  0.0826  0.4391 -0.0105
 1657BOLB   C1C39761   8.466  12.405  40.990  0.0970  0.1618  0.2383
 1657BOLB   C2C39762   8.672  12.713  40.895  0.0999  0.0576 -0.0067
 1657BOLB   C3C39763   9.039  12.953  40.923  0.0018 -0.3262 -0.4222
 1657BOLB   C4C39764   9.407  13.103  40.738 -0.1778  0.0645 -0.2641
 1657BOLB   C1D39765   8.909  11.681  41.613  0.0609  0.3703  0.0045
 1657BOLB   C2D39766   9.221  11.791  41.271  0.0684 -0.1545  0.1264
 1657BOLB   C3D39767   9.503  11.765  40.903  0.1458 -0.0853 -0.0428
 1657BOLB   C4D39768   9.657  11.670  40.519  0.2221 -0.2215 -0.2387
 1658BOLB   NC139769  13.899   6.740  36.859 -0.1617  0.1867  0.0692
 1658BOLB   PO139770  14.363   6.829  37.002  0.3346 -0.2251 -0.1967
 1658BOLB   GL139771  14.517   6.401  37.146 -0.0259 -0.0511 -0.4616
 1658BOLB   GL239772  14.829   6.307  37.052  0.0189 -0.1879  0.3479
 1658BOLB   C1A39773  14.420   6.229  37.483  0.3128 -0.2065  0.3256
 1658BOLB   C2A39774  14.366   5.817  37.621 -0.0117 -0.3176 -0.0012
 1658BOLB   C3A39775  14.170   5.484  37.764  0.1867 -0.3661 -0.0394
 1658BOLB   C4A39776  13.912   5.092  37.792 -0.2527  0.1322  0.1119
 1658BOLB   C1B39777  14.771   5.939  37.249  0.1165  0.0315  0.2213
 1658BOLB   C2B39778  14.732   5.545  37.555 -0.3231  0.1059 -0.1874
 1658BOLB   C3B39779  14.930   5.282  37.885  0.1110 -0.3312  0.0684
 1658BOLB   C4B39780  15.194   5.111  38.165 -0.0361 -0.0620  0.0845
 1658BOLB   NC239781  12.829   2.994  38.749  0.2132  0.0717  0.0927
 1658BOLB   PO239782  12.687   3.217  38.442 -0.0637 -0.0299  0.4728
 1658BOLB   GL339783  12.893   3.524  38.407 -0.3184  0.4136  0.1735
 1658BOLB   GL439784  12.634   3.740  38.228  0.2526 -0.3019 -0.0156
 1658BOLB   C1C39785  13.095   3.962  38.266  0.1503  0.0045  0.0527
 1658BOLB   C2C39786  13.117   4.283  38.031 -0.4071 -0.2325  0.1181
 1658BOLB   C3C39787  13.210   4.628  37.826 -0.4733  0.1054  0.1348
 1658BOLB   C4C39788  13.663   4.683  37.879 -0.1316  0.1720  0.0629
 1658BOLB   C1D39789  12.671   4.150  38.123  0.1625 -0.0339 -0.1588
 1658BOLB   C2D39790  12.652   4.403  37.793 -0.3940 -0.2762  0.0626
 1658BOLB   C3D39791  12.830   4.684  37.545 -0.1103  0.1291  0.2187
 1658BOLB   C4D39792  13.035   4.719  37.134 -0.5163 -0.1010 -0.0247
 1659BOLB   NC139793  25.006   9.168  19.218  0.3180  0.0199  0.0228
 1659BOLB   PO139794  25.295   9.344  19.622  0.0466 -0.1159  0.0375
 1659BOLB   GL139795  25.010   9.613  19.719 -0.0259  0.0807  0.2019
 1659BOLB   GL239796  24.767   9.593  19.540 -0.2903 -0.2856  0.4625
 1659BOLB   C1A39797  24.749   9.532  20.009  0.0646  0.1327  0.0359
 1659BOLB   C2A39798  24.375   9.462  20.232 -0.0166 -0.1033 -0.0159
 1659BOLB   C3A39799  24.073   9.492  20.547  0.1921  0.0932 -0.1990
 1659BOLB   C4A39800  23.901   9.180  20.849  0.0766 -0.0227 -0.0637
 1659BOLB   C1B39801  24.285   9.595  19.745  0.1236  0.1049 -0.0637
 1659BOLB   C2B39802  23.889   9.473  20.008 -0.0157  0.0134  0.1826
 1659BOLB   C3B39803  23.660   9.676  20.285  0.1785 -0.3603  0.0525
 1659BOLB   C4B39804  23.614   9.588  20.730 -0.0274  0.3174  0.1499
 1659BOLB   NC239805  25.366   7.234  19.839  0.0006 -0.0769  0.0402
 1659BOLB   PO239806  25.054   7.262  20.013  0.2806  0.0741  0.3221
 1659BOLB   GL339807  24.690   7.453  20.297  0.1749  0.1418  0.1971
 1659BOLB   GL439808  24.774   7.684  20.508  0.0642  0.3098  0.3085
 1659BOLB   C1C39809  24.284   7.527  20.452  0.2534  0.1415  0.1288
 1659BOLB   C2C39810  24.114   7.869  20.709  0.1516  0.0732  0.1859
 1659BOLB   C3C39811  23.973   8.318  20.721  0.0889  0.1118  0.3091
 1659BOLB   C4C39812  23.932   8.739  20.782 -0.1980  0.1217 -0.3342
 1659BOLB   C1D39813  24.706   7.916  20.966  0.0391  0.1676  0.1198
 1659BOLB   C2D39814  24.407   8.201  20.965 -0.1804 -0.0730  0.1868
 1659BOLB   C3D39815  24.054   8.461  21.274 -0.0877  0.0227  0.2611
 1659BOLB   C4D39816  23.653   8.464  21.645  0.1741 -0.0628 -0.1811
 1660BOLB   NC139817  15.748  14.113  39.891  0.1333 -0.2299 -0.1674
 1660BOLB   PO139818  15.600  13.809  40.131 -0.0712  0.4072 -0.1572
 1660BOLB   GL139819  15.374  13.816  40.558 -0.0658  0.0257 -0.1974
 1660BOLB   GL239820  15.109  14.037  40.605  0.2279 -0.2070 -0.1956
 1660BOLB   C1A39821  15.156  13.484  40.872  0.0335  0.1473 -0.2567
 1660BOLB   C2A39822  15.004  13.560  41.304  0.0432 -0.0069 -0.1274
 1660BOLB   C3A39823  15.038  13.767  41.710  0.2561 -0.2617  0.0703
 1660BOLB   C4A39824  15.477  13.766  42.020  0.1520  0.1134 -0.2759
 1660BOLB   C1B39825  15.170  14.274  41.003 -0.0870  0.2120 -0.0338
 1660BOLB   C2B39826  15.001  14.430  41.327 -0.0529 -0.0255 -0.0064
 1660BOLB   C3B39827  14.670  14.485  41.574 -0.1819  0.1836 -0.2373
 1660BOLB   C4B39828  14.299  14.900  41.617  0.0596 -0.1277  0.3847
 1660BOLB   NC239829  15.194  13.918  44.521 -0.0645 -0.2214 -0.0876
 1660BOLB   PO239830  15.170  13.571  44.347  0.1047 -0.2964 -0.0904
 1660BOLB   GL339831  15.004  13.734  43.917 -0.1360  0.3264  0.2362
 1660BOLB   GL439832  14.777  13.934  43.773 -0.0348  0.1235  0.2213
 1660BOLB   C1C39833  15.073  13.595  43.507  0.2901 -0.0252  0.5037
 1660BOLB   C2C39834  15.223  13.731  43.101  0.1094  0.0855 -0.1198
 1660BOLB   C3C39835  15.550  13.789  42.839  0.0450 -0.0524  0.1715
 1660BOLB   C4C39836  15.606  13.868  42.399 -0.1420 -0.1534 -0.0652
 1660BOLB   C1D39837  15.161  14.057  43.512 -0.1484  0.1493  0.0223
 1660BOLB   C2D39838  15.619  14.040  43.295  0.0028  0.0159 -0.0199
 1660BOLB   C3D39839  15.918  14.181  42.999  0.1833 -0.0381 -0.0654
 1660BOLB   C4D39840  16.027  13.913  42.654 -0.0615 -0.1493  0.1224
 1661BOLB   NC139841  20.580   5.887  28.368 -0.0898  0.1260 -0.1532
 1661BOLB   PO139842  20.983   5.720  28.300 -0.2935 -0.0035  0.0843
 1661BOLB   GL139843  21.159   5.274  28.306 -0.0402  0.1238 -0.2291
 1661BOLB   GL239844  21.535   5.154  28.443  0.0211 -0.2663 -0.0691
 1661BOLB   C1A39845  21.014   4.844  28.473  0.1120  0.1157  0.0841
 1661BOLB   C2A39846  21.217   4.435  28.583  0.1013 -0.3159  0.1004
 1661BOLB   C3A39847  21.318   4.009  28.529 -0.1038  0.2908 -0.3017
 1661BOLB   C4A39848  21.601   3.746  28.373  0.0232  0.3595 -0.2949
 1661BOLB   C1B39849  21.668   4.849  28.677  0.3421 -0.0738  0.1475
 1661BOLB   C2B39850  21.662   4.344  28.782 -0.0531 -0.1538  0.1741
 1661BOLB   C3B39851  21.910   3.901  28.876  0.0037  0.1764 -0.4943
 1661BOLB   C4B39852  22.284   3.726  29.158 -0.3848 -0.2458  0.0059
 1661BOLB   NC239853  22.524   1.334  27.554  0.3973  0.0758  0.1584
 1661BOLB   PO239854  22.616   1.450  27.978  0.0701 -0.1083 -0.0682
 1661BOLB   GL339855  22.586   1.995  28.191  0.0635 -0.0596 -0.0675
 1661BOLB   GL439856  22.227   2.063  28.157  0.0802  0.2026  0.0599
 1661BOLB   C1C39857  22.563   2.392  28.448 -0.1146  0.0816  0.0339
 1661BOLB   C2C39858  22.216   2.582  28.583 -0.3419 -0.1502  0.2708
 1661BOLB   C3C39859  21.921   2.965  28.443  0.1549  0.0380 -0.2185
 1661BOLB   C4C39860  21.745   3.356  28.330  0.6138  0.4308 -0.1409
 1661BOLB   C1D39861  21.847   2.228  28.337  0.1942  0.0613 -0.5443
 1661BOLB   C2D39862  21.580   2.579  28.413  0.4212  0.1054 -0.5134
 1661BOLB   C3D39863  21.373   2.997  28.575 -0.4220 -0.0907 -0.1613
 1661BOLB   C4D39864  21.225   3.403  28.508 -0.0376 -0.2474  0.1982
 1662BOLB   NC139865  19.917   4.966  28.908  0.0642  0.2074 -0.2207
 1662BOLB   PO139866  19.893   4.939  29.371 -0.1535  0.4118  0.1096
 1662BOLB   GL139867  20.141   4.476  29.553  0.0975  0.0853 -0.0857
 1662BOLB   GL239868  20.150   4.287  29.847 -0.2873 -0.0611 -0.0816
 1662BOLB   C1A39869  20.175   4.089  29.412 -0.1366 -0.2843  0.0646
 1662BOLB   C2A39870  20.324   3.693  29.467 -0.3795  0.0112 -0.3701
 1662BOLB   C3A39871  20.310   3.372  29.404  0.1185 -0.0265 -0.2331
 1662BOLB   C4A39872  20.267   3.002  29.563  0.1494  0.0951  0.0987
 1662BOLB   C1B39873  20.417   4.040  29.892  0.1444  0.1253  0.2586
 1662BOLB   C2B39874  20.746   3.852  29.788  0.0545  0.0316  0.2018
 1662BOLB   C3B39875  20.802   3.416  29.540  0.2434  0.1087 -0.3285
 1662BOLB   C4B39876  20.771   3.065  29.287  0.0807  0.0407  0.0647
 1662BOLB   NC239877  21.402   0.823  29.109  0.1002 -0.1984 -0.1059
 1662BOLB   PO239878  21.544   1.111  29.439 -0.2158  0.2360  0.3476
 1662BOLB   GL339879  21.293   1.393  29.353 -0.2108 -0.1547 -0.1899
 1662BOLB   GL439880  21.119   1.278  29.061  0.1238 -0.4634  0.1547
 1662BOLB   C1C39881  21.356   1.951  29.326  0.4212  0.1878  0.1104
 1662BOLB   C2C39882  21.063   2.220  29.178  0.2824 -0.0945 -0.2703
 1662BOLB   C3C39883  20.696   2.441  29.182 -0.2735  0.0764 -0.0239
 1662BOLB   C4C39884  20.469   2.699  29.471 -0.2118 -0.4215  0.1745
 1662BOLB   C1D39885  20.784   1.446  28.868 -0.3278 -0.2501 -0.1028
 1662BOLB   C2D39886  20.428   1.623  28.755  0.0213  0.1723 -0.1051
 1662BOLB   C3D39887  20.181   1.849  28.842  0.2480  0.5432  0.0838
 1662BOLB   C4D39888  19.905   2.201  28.793 -0.0252  0.1764  0.0778
 1663BOLB   NC139889  17.546  19.823  30.948 -0.1152  0.2885  0.0802
 1663BOLB   PO139890  17.790  19.960  31.273 -0.1307  0.1220  0.0331
 1663BOLB   GL139891  17.721  20.335  31.018  0.4423 -0.3547  0.3883
 1663BOLB   GL239892  17.735  20.309  30.661 -0.2502 -0.0389  0.0754
 1663BOLB   C1A39893  17.739  20.705  31.040 -0.0692  0.0525 -0.2460
 1663BOLB   C2A39894  17.754  21.049  31.242  0.0624  0.3880 -0.1456
 1663BOLB   C3A39895  17.950  21.349  31.384 -0.2896  0.4134  0.1317
 1663BOLB   C4A39896  18.223  21.546  31.574  0.1385  0.1637  0.1758
 1663BOLB   C1B39897  17.994  20.674  30.572 -0.3073  0.1322 -0.1738
 1663BOLB   C2B39898  18.366  20.999  30.459 -0.0077 -0.0786  0.1672
 1663BOLB   C3B39899  18.587  21.247  30.815 -0.4021  0.0957 -0.0532
 1663BOLB   C4B39900  18.815  21.598  31.100  0.2478  0.1492 -0.0618
 1663BOLB   NC239901  18.589  24.235  31.700 -0.0620  0.3679  0.3703
 1663BOLB   PO239902  18.521  24.153  31.319 -0.0446  0.0820  0.2534
 1663BOLB   GL339903  18.239  23.750  31.423 -0.1248 -0.3872 -0.1492
 1663BOLB   GL439904  17.917  23.658  31.599  0.3470  0.3895  0.4183
 1663BOLB   C1C39905  18.147  23.245  31.417  0.0278  0.1450  0.0209
 1663BOLB   C2C39906  18.115  22.783  31.383  0.4561  0.0213  0.2219
 1663BOLB   C3C39907  18.284  22.332  31.503 -0.1858  0.1867  0.1137
 1663BOLB   C4C39908  18.473  21.862  31.380 -0.2991 -0.5590 -0.3642
 1663BOLB   C1D39909  17.896  23.297  31.866  0.1235 -0.0599  0.1926
 1663BOLB   C2D39910  17.950  22.935  31.863 -0.1752  0.0357 -0.2080
 1663BOLB   C3D39911  17.793  22.456  31.590 -0.1386  0.1453 -0.3387
 1663BOLB   C4D39912  17.904  22.212  31.257 -0.2080  0.3899  0.2879
 1664BOLB   NC139913  19.781  12.779  38.788  0.1636  0.1974 -0.0032
 1664BOLB   PO139914  19.505  12.555  38.908  0.0191  0.5047  0.1725
 1664BOLB   GL139915  19.819  12.705  39.301 -0.1888  0.3080 -0.0083
 1664BOLB   GL239916  20.093  12.928  39.113  0.2281  0.3779 -0.1254
 1664BOLB   C1A39917  19.742  12.862  39.744  0.1851  0.0672 -0.3356
 1664BOLB   C2A39918  19.898  13.149  40.172  0.1020 -0.0665  0.2900
 1664BOLB   C3A39919  19.820  13.138  40.653 -0.2508 -0.0814  0.2267
 1664BOLB   C4A39920  19.969  12.834  40.953 -0.1160 -0.1586  0.0183
 1664BOLB   C1B39921  20.284  12.721  39.447 -0.0955  0.1059 -0.0850
 1664BOLB   C2B39922  20.188  12.347  39.731  0.1544  0.1186 -0.2697
 1664BOLB   C3B39923  20.116  12.209  40.159  0.2075 -0.1975 -0.2515
 1664BOLB   C4B39924  20.212  12.096  40.577  0.1465  0.2869  0.1067
 1664BOLB   NC239925  20.356  12.015  43.261 -0.2946 -0.0644 -0.0532
 1664BOLB   PO239926  20.873  11.872  43.182  0.0323 -0.1579  0.1964
 1664BOLB   GL339927  20.707  11.965  42.721 -0.2515 -0.0168  0.5187
 1664BOLB   GL439928  20.528  11.712  42.583  0.4996  0.4958  0.1793
 1664BOLB   C1C39929  20.690  12.192  42.372  0.0857  0.0612  0.0350
 1664BOLB   C2C39930  20.447  12.457  42.027 -0.3896  0.0818 -0.1406
 1664BOLB   C3C39931  20.306  12.636  41.683  0.0534  0.1450  0.2416
 1664BOLB   C4C39932  20.077  12.840  41.364 -0.0516 -0.0002 -0.0219
 1664BOLB   C1D39933  20.777  11.713  42.140 -0.1425 -0.1244  0.0626
 1664BOLB   C2D39934  20.628  11.615  41.709  0.0814 -0.0342  0.1784
 1664BOLB   C3D39935  20.590  11.737  41.338  0.1017 -0.2431 -0.0833
 1664BOLB   C4D39936  20.473  11.871  40.924  0.0587 -0.2233 -0.1237
 1665BOLB   NC139937   7.811  10.305  29.557 -0.0599 -0.2035 -0.0856
 1665BOLB   PO139938   7.641  10.414  29.180 -0.0581  0.0187 -0.0285
 1665BOLB   GL139939   7.233  10.384  29.207 -0.2099  0.3827 -0.0749
 1665BOLB   GL239940   7.156  10.594  28.945  0.0150 -0.0885 -0.2497
 1665BOLB   C1A39941   6.966  10.057  29.231  0.0578 -0.0754  0.1035
 1665BOLB   C2A39942   6.703   9.842  29.364 -0.0160 -0.1119  0.0750
 1665BOLB   C3A39943   6.379   9.808  29.606 -0.1601  0.2683 -0.0539
 1665BOLB   C4A39944   6.007   9.773  29.504  0.3636  0.0610 -0.0252
 1665BOLB   C1B39945   6.784  10.380  28.703 -0.3350  0.3003 -0.1351
 1665BOLB   C2B39946   6.409  10.296  28.493 -0.1065  0.3384  0.2186
 1665BOLB   C3B39947   6.147  10.222  28.233  0.2869  0.0136  0.2758
 1665BOLB   C4B39948   5.725  10.062  28.328 -0.1310 -0.1206 -0.0358
 1665BOLB   NC239949   3.950   8.849  28.800 -0.1040  0.2297 -0.0537
 1665BOLB   PO239950   3.933   8.772  29.274 -0.2053  0.1127 -0.4085
 1665BOLB   GL339951   4.243   8.971  29.378 -0.1275 -0.0052 -0.3429
 1665BOLB   GL439952   4.204   9.148  29.535  0.1705  0.1313  0.0922
 1665BOLB   C1C39953   4.673   8.936  29.421 -0.1125 -0.2801  0.1019
 1665BOLB   C2C39954   5.015   9.124  29.457 -0.5141 -0.3017  0.3023
 1665BOLB   C3C39955   5.343   9.411  29.625 -0.0118 -0.0004 -0.0520
 1665BOLB   C4C39956   5.663   9.770  29.726  0.3344 -0.0369  0.0549
 1665BOLB   C1D39957   4.543   9.424  29.273  0.0723  0.0150  0.0282
 1665BOLB   C2D39958   4.811   9.515  29.588  0.0200 -0.2904  0.0477
 1665BOLB   C3D39959   5.012   9.759  29.855  0.2843  0.2143  0.0598
 1665BOLB   C4D39960   5.364  10.070  29.957 -0.0405 -0.1175 -0.0871
 1666BOLB   NC139961  24.511  18.055  37.223  0.0093  0.0750 -0.1466
 1666BOLB   PO139962  24.730  17.947  36.882 -0.2324  0.1120  0.4073
 1666BOLB   GL139963  24.348  17.813  36.849  0.0343  0.1486  0.1102
 1666BOLB   GL239964  24.400  17.641  36.555 -0.0359 -0.0173 -0.1025
 1666BOLB   C1A39965  24.006  17.446  36.917 -0.2488  0.0528 -0.0605
 1666BOLB   C2A39966  23.802  17.088  36.738 -0.2476 -0.3311  0.0282
 1666BOLB   C3A39967  23.536  17.245  36.490  0.2118 -0.0799 -0.0173
 1666BOLB   C4A39968  23.151  17.301  36.380 -0.1104 -0.1336 -0.1722
 1666BOLB   C1B39969  23.936  17.549  36.397 -0.1464  0.2665 -0.2055
 1666BOLB   C2B39970  23.583  17.520  36.064 -0.2896 -0.0099 -0.2814
 1666BOLB   C3B39971  23.163  17.375  35.850 -0.0799 -0.2597 -0.0371
 1666BOLB   C4B39972  22.814  17.249  35.674  0.1045 -0.1110  0.1638
 1666BOLB   NC239973  21.089  16.156  34.914 -0.0058  0.0821 -0.1660
 1666BOLB   PO239974  21.256  16.504  35.175 -0.1675 -0.0767  0.0235
 1666BOLB   GL339975  21.565  16.823  35.289  0.1846  0.2629  0.1569
 1666BOLB   GL439976  21.750  16.628  35.592 -0.1312  0.0838 -0.1334
 1666BOLB   C1C39977  21.786  17.072  35.533 -0.0433  0.0949 -0.1943
 1666BOLB   C2C39978  22.145  17.002  35.687 -0.1538 -0.0581  0.0023
 1666BOLB   C3C39979  22.449  17.139  35.925 -0.1670 -0.2864  0.0443
 1666BOLB   C4C39980  22.795  17.262  36.180 -0.1717 -0.1329  0.0322
 1666BOLB   C1D39981  22.061  16.608  35.989  0.1583 -0.1351  0.4982
 1666BOLB   C2D39982  22.458  16.777  36.263 -0.0283  0.0476  0.2216
 1666BOLB   C3D39983  22.723  16.964  36.543 -0.1685 -0.0267  0.1724
 1666BOLB   C4D39984  22.984  17.278  36.856  0.2504  0.0081 -0.1924
 1667BOLB   NC139985  19.979   7.053  23.035  0.0215  0.1298  0.2047
 1667BOLB   PO139986  20.335   7.339  23.005 -0.3520  0.0692  0.0234
 1667BOLB   GL139987  20.453   7.045  22.675 -0.3163  0.0765  0.1503
 1667BOLB   GL239988  20.252   6.808  22.655  0.5296 -0.1823 -0.1725
 1667BOLB   C1A39989  20.778   6.736  22.505  0.1500  0.0136 -0.2167
 1667BOLB   C2A39990  20.833   6.363  22.348  0.1423  0.1061 -0.2069
 1667BOLB   C3A39991  21.090   6.042  22.385 -0.0271  0.2971  0.4380
 1667BOLB   C4A39992  21.206   5.569  22.267  0.2449 -0.3078  0.0512
 1667BOLB   C1B39993  20.381   6.293  22.622  0.0201  0.3265  0.2031
 1667BOLB   C2B39994  20.430   6.025  22.226  0.0623  0.1441  0.2648
 1667BOLB   C3B39995  20.514   5.955  21.861 -0.0067  0.1751 -0.1423
 1667BOLB   C4B39996  20.846   5.787  21.952  0.0050 -0.2248 -0.0649
 1667BOLB   NC239997  22.338   4.233  21.005 -0.0702 -0.1037  0.0425
 1667BOLB   PO239998  22.091   3.955  21.125 -0.2293  0.2509  0.2161
 1667BOLB   GL339999  21.676   4.110  21.145  0.3844 -0.1504 -0.0927
 1667BOLB   GL440000  21.353   3.926  21.350  0.0736 -0.0087 -0.1909
 1667BOLB   C1C40001  21.517   4.389  21.435  0.0808 -0.0426 -0.0168
 1667BOLB   C2C40002  21.402   4.639  21.668 -0.0326 -0.1460  0.2035
 1667BOLB   C3C40003  21.323   4.952  21.899 -0.1311 -0.2324 -0.2094
 1667BOLB   C4C40004  21.284   5.181  22.356  0.4938  0.2832  0.2853
 1667BOLB   C1D40005  21.123   4.228  21.693 -0.1369  0.1384 -0.2700
 1667BOLB   C2D40006  20.894   4.601  21.794 -0.2763 -0.1090 -0.2203
 1667BOLB   C3D40007  20.609   4.976  21.955  0.0243 -0.0910  0.1445
 1667BOLB   C4D40008  20.406   5.379  21.796 -0.0376  0.1071 -0.0626
 1668BOLB   NC140009  17.505   5.176  24.866  0.1010  0.1104  0.1891
 1668BOLB   PO140010  17.278   5.225  24.435  0.1318 -0.1840 -0.0582
 1668BOLB   GL140011  17.119   4.935  24.158 -0.4477 -0.0702  0.0430
 1668BOLB   GL240012  16.969   4.882  24.193 -0.0724  0.1367 -0.1751
 1668BOLB   C1A40013  16.890   4.797  23.697  0.0998  0.3683 -0.0068
 1668BOLB   C2A40014  17.060   4.801  23.280 -0.0679  0.3308 -0.1490
 1668BOLB   C3A40015  17.111   4.631  22.873 -0.0847 -0.1371  0.1733
 1668BOLB   C4A40016  17.152   4.281  22.599  0.1526  0.0129  0.2866
 1668BOLB   C1B40017  17.138   4.410  23.940 -0.0279  0.4229  0.2728
 1668BOLB   C2B40018  17.354   3.997  23.727 -0.4861  0.0592 -0.1109
 1668BOLB   C3B40019  17.193   3.716  23.388 -0.2745  0.1219 -0.0747
 1668BOLB   C4B40020  16.830   3.606  23.081  0.2489 -0.2127 -0.0107
 1668BOLB   NC240021  17.751   2.029  22.193  0.1295  0.1660  0.0961
 1668BOLB   PO240022  17.457   1.845  21.883 -0.2325 -0.1577 -0.0614
 1668BOLB   GL340023  17.248   2.316  22.080 -0.2530  0.0953 -0.0583
 1668BOLB   GL440024  16.953   2.369  22.123  0.1017  0.4605  0.1544
 1668BOLB   C1C40025  17.327   2.694  22.205  0.3034  0.0660 -0.3301
 1668BOLB   C2C40026  17.208   3.173  22.293  0.1408 -0.3287 -0.1214
 1668BOLB   C3C40027  17.235   3.667  22.245  0.1723  0.5354 -0.0394
 1668BOLB   C4C40028  17.186   3.999  22.195 -0.0255 -0.2185  0.0110
 1668BOLB   C1D40029  16.630   2.593  22.288 -0.3910  0.0504  0.1149
 1668BOLB   C2D40030  16.594   3.040  22.308  0.4442  0.1922 -0.2589
 1668BOLB   C3D40031  16.777   3.468  22.290 -0.1785 -0.0415 -0.1591
 1668BOLB   C4D40032  16.796   3.590  21.762  0.1288  0.3524  0.0044
 1669BOLB   NC140033  19.248   8.063  37.999 -0.0313  0.1430 -0.3498
 1669BOLB   PO140034  18.798   7.990  37.879  0.0773 -0.3078  0.3691
 1669BOLB   GL140035  18.796   7.709  38.234 -0.2135  0.1123 -0.0726
 1669BOLB   GL240036  19.093   7.759  38.397  0.1338  0.1732  0.0183
 1669BOLB   C1A40037  18.846   7.360  38.623  0.0358  0.0133  0.0445
 1669BOLB   C2A40038  19.129   7.084  38.885 -0.1182  0.0782  0.1441
 1669BOLB   C3A40039  19.513   6.814  38.903  0.1761 -0.1631  0.1238
 1669BOLB   C4A40040  19.924   6.665  38.793  0.1176  0.0737 -0.0946
 1669BOLB   C1B40041  19.279   7.559  38.676 -0.1707  0.0202  0.0721
 1669BOLB   C2B40042  19.552   7.712  38.904 -0.0602 -0.0683 -0.0007
 1669BOLB   C3B40043  19.603   7.784  39.380 -0.1024  0.1223 -0.1611
 1669BOLB   C4B40044  19.846   7.964  39.577 -0.2655  0.1409 -0.2760
 1669BOLB   NC240045  21.725   5.994  40.791 -0.1562 -0.0454 -0.0091
 1669BOLB   PO240046  21.834   6.413  40.706 -0.0947 -0.0834  0.0584
 1669BOLB   GL340047  21.601   6.408  40.272 -0.1136  0.1057  0.2005
 1669BOLB   GL440048  21.717   6.705  40.104 -0.1695 -0.0047 -0.2754
 1669BOLB   C1C40049  21.291   6.360  39.908 -0.0869 -0.2217 -0.0365
 1669BOLB   C2C40050  21.001   6.520  39.582  0.2586 -0.0609  0.2705
 1669BOLB   C3C40051  20.634   6.566  39.285 -0.3782  0.3023  0.1594
 1669BOLB   C4C40052  20.379   6.660  39.054  0.3111 -0.0957 -0.1088
 1669BOLB   C1D40053  21.378   6.890  40.129 -0.1454  0.2251  0.3226
 1669BOLB   C2D40054  21.167   7.213  39.837  0.3398  0.0148  0.1583
 1669BOLB   C3D40055  21.183   7.542  39.677 -0.2085 -0.1331 -0.1866
 1669BOLB   C4D40056  20.890   7.970  39.728  0.0075 -0.2343  0.0127
 1670BOLB   NC140057  21.260   5.833  26.081 -0.0808 -0.1112 -0.2912
 1670BOLB   PO140058  21.055   5.847  25.636  0.2858  0.0640  0.2915
 1670BOLB   GL140059  21.322   5.600  25.319  0.1524  0.2333  0.0064
 1670BOLB   GL240060  21.209   5.472  25.027  0.1479 -0.2942 -0.0135
 1670BOLB   C1A40061  21.614   5.306  25.354 -0.2554 -0.0169 -0.1019
 1670BOLB   C2A40062  21.980   4.994  25.566  0.0605  0.3379 -0.0745
 1670BOLB   C3A40063  22.300   4.625  25.380  0.2331 -0.1407 -0.1187
 1670BOLB   C4A40064  22.325   4.375  24.965  0.1976  0.0259 -0.1122
 1670BOLB   C1B40065  21.135   5.072  25.162 -0.2860 -0.3188  0.0375
 1670BOLB   C2B40066  20.794   4.863  25.262 -0.0742 -0.3800  0.2778
 1670BOLB   C3B40067  20.581   4.557  25.174  0.1645 -0.1510  0.0564
 1670BOLB   C4B40068  20.134   4.584  25.134  0.0380  0.0078  0.1598
 1670BOLB   NC240069  22.548   3.055  23.014 -0.1268 -0.1137 -0.3269
 1670BOLB   PO240070  22.587   3.367  22.827  0.2317  0.0989  0.2060
 1670BOLB   GL340071  22.611   3.732  23.105 -0.1130  0.3624  0.2859
 1670BOLB   GL440072  22.504   4.010  22.968 -0.1191 -0.0986  0.0960
 1670BOLB   C1C40073  22.575   3.948  23.448  0.2082  0.1057 -0.3023
 1670BOLB   C2C40074  22.343   4.208  23.842  0.0883 -0.2322  0.0596
 1670BOLB   C3C40075  22.150   4.445  24.200 -0.1759 -0.1162 -0.0644
 1670BOLB   C4C40076  22.125   4.402  24.600  0.2736  0.3365  0.4039
 1670BOLB   C1D40077  22.781   4.292  23.004  0.3517 -0.0826 -0.2445
 1670BOLB   C2D40078  22.975   4.657  23.064 -0.0589 -0.2040 -0.1330
 1670BOLB   C3D40079  23.103   5.036  23.272 -0.1207  0.0188 -0.0167
 1670BOLB   C4D40080  23.247   5.396  23.521 -0.2013 -0.0126 -0.2165
 1671BOLB   NC140081   3.983  10.280  34.408 -0.1925  0.4054 -0.1540
 1671BOLB   PO140082   4.154   9.930  34.305  0.1679  0.0680 -0.1310
 1671BOLB   GL140083   4.572   9.917  34.399  0.2970  0.1275  0.0372
 1671BOLB   GL240084   4.697  10.068  34.682  0.2056 -0.0588 -0.4008
 1671BOLB   C1A40085   5.008   9.896  34.224  0.1044 -0.1838 -0.2108
 1671BOLB   C2A40086   5.519  10.021  34.323 -0.0519 -0.3328  0.1143
 1671BOLB   C3A40087   5.937   9.851  34.339  0.2159 -0.2050 -0.0627
 1671BOLB   C4A40088   6.279   9.858  34.536  0.2868  0.2985 -0.2276
 1671BOLB   C1B40089   5.017   9.749  34.750 -0.3091  0.2400  0.1544
 1671BOLB   C2B40090   5.523   9.683  34.650  0.1593  0.0445  0.0371
 1671BOLB   C3B40091   5.892   9.514  34.693  0.1273  0.0048 -0.2236
 1671BOLB   C4B40092   6.135   9.354  35.094  0.0468 -0.0505 -0.2632
 1671BOLB   NC240093   5.102   8.289  35.165  0.1945  0.2392 -0.0476
 1671BOLB   PO240094   4.917   8.661  35.167  0.1523 -0.1316 -0.3770
 1671BOLB   GL340095   5.379   8.731  35.230  0.2068  0.0106 -0.2326
 1671BOLB   GL440096   5.516   8.500  34.949 -0.2338 -0.1733  0.2957
 1671BOLB   C1C40097   5.755   8.944  35.138  0.0826 -0.1268 -0.1254
 1671BOLB   C2C40098   6.145   8.809  34.982  0.1031  0.0512  0.0594
 1671BOLB   C3C40099   6.510   9.047  34.790 -0.1111 -0.2749  0.3106
 1671BOLB   C4C40100   6.512   9.515  34.751 -0.1635 -0.3419  0.1911
 1671BOLB   C1D40101   5.791   8.749  34.633  0.0392 -0.0504  0.1662
 1671BOLB   C2D40102   6.138   8.945  34.401 -0.1045  0.1562 -0.5166
 1671BOLB   C3D40103   6.286   9.353  34.309  0.1901  0.3398  0.3388
 1671BOLB   C4D40104   6.349   9.653  34.066  0.1447 -0.0050 -0.0661
 1672BOLB   NC140105  19.936  17.623  28.010  0.0598  0.2060 -0.3653
 1672BOLB   PO140106  19.991  17.950  28.274  0.2054  0.0421  0.1208
 1672BOLB   GL140107  20.225  18.284  28.155 -0.0283  0.0421  0.0039
 1672BOLB   GL240108  20.188  18.363  27.872 -0.2786 -0.1042 -0.1246
 1672BOLB   C1A40109  20.506  18.693  28.060 -0.0195  0.1587  0.5197
 1672BOLB   C2A40110  20.607  19.037  28.208 -0.0002  0.2692  0.0716
 1672BOLB   C3A40111  20.864  19.332  28.334 -0.0417  0.1226 -0.2271
 1672BOLB   C4A40112  21.322  19.405  28.131  0.1473  0.0168 -0.2478
 1672BOLB   C1B40113  20.090  18.742  27.811 -0.2121  0.0106 -0.0222
 1672BOLB   C2B40114  20.084  19.021  28.175  0.1911 -0.1996  0.2767
 1672BOLB   C3B40115  20.134  19.475  28.172  0.1472 -0.0056  0.1729
 1672BOLB   C4B40116  20.497  19.777  28.351  0.1682 -0.1644 -0.1469
 1672BOLB   NC240117  23.575  19.854  27.651  0.3298 -0.4400  0.2831
 1672BOLB   PO240118  23.559  19.959  28.114 -0.0143  0.5524 -0.0266
 1672BOLB   GL340119  23.237  19.922  28.448 -0.3377 -0.2028  0.1433
 1672BOLB   GL440120  23.136  20.269  28.441 -0.2033  0.5746  0.2755
 1672BOLB   C1C40121  22.787  19.754  28.400  0.0070 -0.1545 -0.0836
 1672BOLB   C2C40122  22.513  19.439  28.203  0.0066 -0.1757 -0.2599
 1672BOLB   C3C40123  22.170  19.423  27.885 -0.0484 -0.0666  0.2864
 1672BOLB   C4C40124  21.770  19.459  27.968  0.3252  0.3679  0.1306
 1672BOLB   C1D40125  22.634  20.232  28.266 -0.0932  0.0648  0.0518
 1672BOLB   C2D40126  22.208  20.061  28.323  0.2738  0.0166 -0.0413
 1672BOLB   C3D40127  21.884  19.782  28.378 -0.2412  0.0449 -0.0798
 1672BOLB   C4D40128  21.750  19.281  28.449  0.1689  0.1613  0.3994
 1673BOLB   NC140129  16.284   1.295  23.479 -0.1182 -0.0023 -0.0229
 1673BOLB   PO140130  16.790   1.110  23.360  0.3036  0.0333  0.1982
 1673BOLB   GL140131  16.661   1.560  23.596  0.1927 -0.2541 -0.1223
 1673BOLB   GL240132  16.361   1.610  23.850  0.0302  0.4683 -0.0347
 1673BOLB   C1A40133  16.648   2.046  23.762  0.4142 -0.3391  0.2669
 1673BOLB   C2A40134  16.447   2.486  23.837  0.0472 -0.1281  0.0935
 1673BOLB   C3A40135  16.080   2.877  23.930 -0.0904 -0.0921  0.0919
 1673BOLB   C4A40136  15.920   3.263  23.874 -0.0400 -0.5017 -0.0702
 1673BOLB   C1B40137  16.173   1.978  23.861  0.0611 -0.4956 -0.0794
 1673BOLB   C2B40138  16.087   2.360  24.141 -0.1789 -0.3107  0.0445
 1673BOLB   C3B40139  16.352   2.725  24.310  0.0734  0.5929  0.0979
 1673BOLB   C4B40140  16.285   3.164  24.301  0.0598 -0.0148  0.2300
 1673BOLB   NC240141  15.219   5.446  24.500 -0.0887 -0.3244  0.3082
 1673BOLB   PO240142  15.748   5.238  24.395  0.2310  0.0293  0.1030
 1673BOLB   GL340143  15.363   4.883  24.358 -0.3888 -0.1014  0.2452
 1673BOLB   GL440144  15.564   4.735  24.103 -0.0482  0.3110  0.1083
 1673BOLB   C1C40145  15.138   4.532  24.326 -0.1410  0.2733 -0.3024
 1673BOLB   C2C40146  15.204   4.051  24.194 -0.0723  0.2045 -0.1272
 1673BOLB   C3C40147  15.190   3.659  24.151  0.0184 -0.1229 -0.0400
 1673BOLB   C4C40148  15.541   3.475  23.938 -0.0145  0.3033  0.2878
 1673BOLB   C1D40149  15.492   4.621  23.705 -0.2627 -0.2330 -0.0065
 1673BOLB   C2D40150  15.512   4.518  23.310  0.3074 -0.3842  0.0819
 1673BOLB   C3D40151  15.861   4.320  23.066 -0.0763  0.1890  0.1059
 1673BOLB   C4D40152  16.287   4.404  22.976 -0.2730 -0.0510  0.0984
 1674BOLB   NC140153  21.597  21.694  24.281  0.0211  0.3374  0.0215
 1674BOLB   PO140154  21.389  21.863  24.612  0.1969  0.1364 -0.0866
 1674BOLB   GL140155  21.144  21.614  24.436 -0.0682 -0.0029 -0.1646
 1674BOLB   GL240156  21.040  21.622  24.078 -0.4377 -0.1698  0.2818
 1674BOLB   C1A40157  20.954  21.200  24.477  0.0845  0.2971  0.1574
 1674BOLB   C2A40158  20.824  20.775  24.238  0.0302 -0.2978  0.2182
 1674BOLB   C3A40159  20.705  20.453  24.342  0.1834  0.0726 -0.6296
 1674BOLB   C4A40160  20.745  20.026  24.439  0.1742  0.0949 -0.0802
 1674BOLB   C1B40161  20.615  21.474  24.124 -0.1105 -0.0182 -0.3237
 1674BOLB   C2B40162  20.407  21.150  24.170 -0.2184  0.1442 -0.0449
 1674BOLB   C3B40163  20.265  20.714  24.427  0.1094  0.2643  0.2260
 1674BOLB   C4B40164  20.237  20.384  24.644 -0.2215 -0.0348 -0.1329
 1674BOLB   NC240165  22.243  20.078  24.330  0.1450  0.1584  0.0191
 1674BOLB   PO240166  22.460  19.827  24.226 -0.0292 -0.0428 -0.1016
 1674BOLB   GL340167  21.927  19.803  24.071 -0.1522 -0.1786 -0.0025
 1674BOLB   GL440168  21.687  19.705  23.782 -0.0054 -0.1530 -0.2470
 1674BOLB   C1C40169  21.777  19.448  24.208 -0.0381  0.0562  0.2037
 1674BOLB   C2C40170  21.443  19.182  24.401 -0.2772 -0.1994  0.0323
 1674BOLB   C3C40171  20.983  19.232  24.570  0.0313  0.3746  0.0357
 1674BOLB   C4C40172  20.712  19.577  24.543 -0.0272 -0.1616 -0.2290
 1674BOLB   C1D40173  21.515  19.398  23.485  0.1690 -0.0450  0.1605
 1674BOLB   C2D40174  21.464  18.889  23.339 -0.0986  0.1901  0.1646
 1674BOLB   C3D40175  21.451  18.487  23.486  0.1056 -0.0510  0.2464
 1674BOLB   C4D40176  21.416  18.399  23.988 -0.3097 -0.0886  0.0712
 1675BOLB   NC140177  25.140  17.166  26.586 -0.1888  0.1418  0.0190
 1675BOLB   PO140178  25.320  17.109  27.013 -0.1356 -0.0067 -0.0416
 1675BOLB   GL140179  24.836  16.863  27.144  0.0113  0.2128  0.1086
 1675BOLB   GL240180  24.632  16.653  26.804 -0.4469 -0.1428 -0.1145
 1675BOLB   C1A40181  24.685  16.524  27.267 -0.2642  0.0665  0.1234
 1675BOLB   C2A40182  24.706  16.134  27.358  0.2127  0.1097  0.1091
 1675BOLB   C3A40183  24.583  15.826  27.145 -0.0304 -0.1000 -0.1398
 1675BOLB   C4A40184  24.392  15.531  27.178  0.0269 -0.0169 -0.0940
 1675BOLB   C1B40185  24.458  16.152  26.817  0.1043  0.1525 -0.1601
 1675BOLB   C2B40186  24.125  15.849  27.014  0.2564  0.0902  0.1631
 1675BOLB   C3B40187  23.900  15.654  27.265 -0.2558 -0.1579  0.1859
 1675BOLB   C4B40188  23.578  15.272  27.386 -0.0119 -0.2521  0.2834
 1675BOLB   NC240189  22.720  13.528  28.153  0.0736  0.0230  0.0285
 1675BOLB   PO240190  22.971  13.982  28.241 -0.1125  0.0388  0.1204
 1675BOLB   GL340191  23.352  14.076  28.256  0.5360  0.1330 -0.1153
 1675BOLB   GL440192  23.458  14.082  28.611  0.2635 -0.3389 -0.0501
 1675BOLB   C1C40193  23.704  14.383  28.265 -0.2861  0.0615 -0.1750
 1675BOLB   C2C40194  24.013  14.710  28.045 -0.0789 -0.1004  0.0330
 1675BOLB   C3C40195  24.135  15.215  27.865  0.0472 -0.0520  0.0959
 1675BOLB   C4C40196  24.247  15.401  27.547 -0.0986 -0.3072  0.1583
 1675BOLB   C1D40197  23.908  14.036  28.552 -0.1203 -0.2210  0.0783
 1675BOLB   C2D40198  24.299  14.139  28.453 -0.0992  0.1716  0.2212
 1675BOLB   C3D40199  24.697  13.995  28.469  0.0373 -0.2658  0.1117
 1675BOLB   C4D40200  24.820  13.611  28.610  0.0283  0.0043  0.0498
 1676BOLB   NC140201  23.543  10.484  28.131 -0.0362  0.1991 -0.3269
 1676BOLB   PO140202  23.429  10.560  27.711  0.1474 -0.2333 -0.3331
 1676BOLB   GL140203  23.720  10.182  27.743  0.1534  0.0351 -0.0659
 1676BOLB   GL240204  24.029  10.308  27.928 -0.0991  0.1715 -0.3350
 1676BOLB   C1A40205  23.919   9.799  27.603 -0.1289 -0.4529  0.0789
 1676BOLB   C2A40206  24.048   9.422  27.506 -0.0532 -0.2858 -0.1638
 1676BOLB   C3A40207  24.351   9.452  27.246  0.0705  0.2091  0.2462
 1676BOLB   C4A40208  24.770   9.237  27.190  0.0329  0.1317 -0.3189
 1676BOLB   C1B40209  24.536  10.430  27.874  0.4363 -0.0488 -0.0285
 1676BOLB   C2B40210  24.774  10.773  27.736  0.0760  0.1801 -0.1398
 1676BOLB   C3B40211  25.200  10.930  27.723 -0.2223  0.3437 -0.0796
 1676BOLB   C4B40212  25.704  10.944  27.912 -0.1086 -0.0839  0.0684
 1676BOLB   NC240213   0.110   8.586  27.889  0.1955 -0.0027  0.3407
 1676BOLB   PO240214  27.032   8.704  27.446  0.0500 -0.4252  0.2881
 1676BOLB   GL340215  26.772   8.819  27.092  0.0940 -0.3239  0.0122
 1676BOLB   GL440216  26.778   8.672  26.796 -0.0008 -0.0252  0.0406
 1676BOLB   C1C40217  26.330   8.875  27.093  0.1145 -0.0265 -0.0520
 1676BOLB   C2C40218  25.897   8.989  26.918 -0.1459  0.1241  0.3938
 1676BOLB   C3C40219  25.499   9.199  26.947  0.0194 -0.3115  0.2161
 1676BOLB   C4C40220  25.123   9.322  26.952  0.2560 -0.2365  0.3108
 1676BOLB   C1D40221  26.433   8.696  26.572  0.0874  0.0331  0.0347
 1676BOLB   C2D40222  26.031   8.777  26.459 -0.0499 -0.0335  0.1290
 1676BOLB   C3D40223  25.615   8.800  26.449 -0.1541  0.1206 -0.3851
 1676BOLB   C4D40224  25.318   8.724  26.131  0.2133 -0.3230 -0.0409
 1677BOLB   NC140225   9.304  16.730  34.466 -0.1157  0.1276 -0.0831
 1677BOLB   PO140226   9.467  17.046  34.765 -0.0055 -0.1451  0.0692
 1677BOLB   GL140227   9.213  17.313  35.059  0.1325  0.2775 -0.1349
 1677BOLB   GL240228   9.167  17.204  35.339 -0.1907  0.1816  0.1419
 1677BOLB   C1A40229   8.701  17.209  35.237 -0.1389  0.1819  0.0888
 1677BOLB   C2A40230   8.398  17.257  35.536  0.3167 -0.2573  0.0452
 1677BOLB   C3A40231   8.018  17.409  35.862 -0.2975  0.0815 -0.2664
 1677BOLB   C4A40232   7.874  17.541  36.277 -0.0214 -0.1503  0.0643
 1677BOLB   C1B40233   9.071  17.458  35.732 -0.0124  0.1587 -0.0537
 1677BOLB   C2B40234   9.024  17.690  36.156  0.3092  0.1993  0.1143
 1677BOLB   C3B40235   8.738  18.015  36.233 -0.1740 -0.0503  0.2150
 1677BOLB   C4B40236   8.330  18.246  36.292  0.1724  0.1732 -0.0677
 1677BOLB   NC240237   6.599  19.022  37.636 -0.2486  0.0380  0.5151
 1677BOLB   PO240238   6.708  18.742  37.872  0.1161 -0.0899  0.0148
 1677BOLB   GL340239   6.773  18.610  37.271  0.0459  0.1612 -0.3944
 1677BOLB   GL440240   6.759  18.923  37.147  0.4040  0.1328  0.0579
 1677BOLB   C1C40241   6.972  18.347  37.055  0.0411 -0.0299 -0.0447
 1677BOLB   C2C40242   7.099  17.938  37.228  0.1460 -0.5142 -0.0851
 1677BOLB   C3C40243   7.382  17.724  36.913  0.1638  0.1722 -0.1071
 1677BOLB   C4C40244   7.785  17.554  36.731  0.0143 -0.4394 -0.0835
 1677BOLB   C1D40245   7.077  18.795  36.856 -0.2605 -0.0822  0.1664
 1677BOLB   C2D40246   7.398  18.731  36.566 -0.3107  0.0107  0.4381
 1677BOLB   C3D40247   7.560  18.674  36.218  0.1654  0.1409 -0.1295
 1677BOLB   C4D40248   7.918  18.535  36.054 -0.0665  0.0585 -0.1759
 1678BOLB   NC140249  19.790   4.761  29.871 -0.3339  0.2267  0.1092
 1678BOLB   PO140250  19.423   4.527  30.115 -0.2539  0.0122 -0.2984
 1678BOLB   GL140251  19.294   4.062  30.391  0.1222  0.2115  0.4584
 1678BOLB   GL240252  19.351   4.023  30.733  0.3837  0.1039 -0.1904
 1678BOLB   C1A40253  19.215   3.613  30.314 -0.3266 -0.0085  0.0211
 1678BOLB   C2A40254  19.097   3.321  30.229 -0.2406  0.0437  0.1383
 1678BOLB   C3A40255  18.758   3.183  30.562 -0.1055 -0.2592  0.1647
 1678BOLB   C4A40256  18.574   2.771  30.714  0.0741 -0.2025 -0.1118
 1678BOLB   C1B40257  19.197   3.533  30.793 -0.0332  0.0302  0.2747
 1678BOLB   C2B40258  19.193   3.060  30.702  0.0425 -0.3267  0.2457
 1678BOLB   C3B40259  19.180   2.678  30.622  0.2451 -0.0861 -0.0474
 1678BOLB   C4B40260  19.230   2.182  30.666  0.0957  0.1787  0.0963
 1678BOLB   NC240261  19.001   0.261  31.033  0.2024  0.1517  0.0794
 1678BOLB   PO240262  19.394   0.349  31.284 -0.3278 -0.0113  0.1471
 1678BOLB   GL340263  19.135   0.773  31.125 -0.2033 -0.0707  0.2600
 1678BOLB   GL440264  19.106   0.648  30.745  0.4695  0.0186  0.0411
 1678BOLB   C1C40265  18.903   1.249  31.101 -0.1776  0.0301  0.1282
 1678BOLB   C2C40266  18.760   1.694  31.180 -0.0194 -0.2222  0.1915
 1678BOLB   C3C40267  18.685   2.052  31.003  0.0001  0.0722  0.0052
 1678BOLB   C4C40268  18.855   2.439  30.879  0.1055  0.1623  0.1786
 1678BOLB   C1D40269  18.692   0.894  30.814  0.1065  0.2405 -0.1396
 1678BOLB   C2D40270  18.453   1.353  30.831  0.2968  0.4200 -0.1350
 1678BOLB   C3D40271  18.345   1.793  30.772  0.0235  0.0033 -0.0558
 1678BOLB   C4D40272  18.167   2.132  30.945  0.2399  0.1929 -0.0135
 1679BOLB   NC140273   9.837  11.633  42.235  0.1314  0.3087 -0.1634
 1679BOLB   PO140274   9.742  12.095  42.327 -0.1741 -0.4051  0.0661
 1679BOLB   GL140275  10.119  12.217  42.182 -0.1440 -0.0093 -0.1183
 1679BOLB   GL240276  10.516  12.193  42.337  0.0105  0.1038  0.3759
 1679BOLB   C1A40277  10.412  11.885  41.933  0.0279  0.2397  0.0596
 1679BOLB   C2A40278  10.586  11.726  41.584  0.0223  0.0201 -0.0630
 1679BOLB   C3A40279  11.078  11.663  41.584 -0.0914  0.2087 -0.0467
 1679BOLB   C4A40280  11.318  11.914  41.201 -0.1791  0.2002  0.2745
 1679BOLB   C1B40281  10.561  12.363  41.993  0.0123 -0.3060 -0.2745
 1679BOLB   C2B40282  10.612  12.303  41.598  0.1127  0.0503 -0.1207
 1679BOLB   C3B40283  10.721  12.421  41.135  0.0531 -0.2395 -0.2812
 1679BOLB   C4B40284  10.865  12.366  40.699 -0.0827 -0.0769  0.0144
 1679BOLB   NC240285  12.799  12.342  39.297 -0.0662  0.3407 -0.1069
 1679BOLB   PO240286  12.541  12.062  39.335 -0.4301  0.1248 -0.2246
 1679BOLB   GL340287  12.540  11.964  39.671 -0.0083  0.4041 -0.1846
 1679BOLB   GL440288  12.254  11.789  39.623  0.1324 -0.3616 -0.1943
 1679BOLB   C1C40289  12.351  11.964  40.093  0.2360 -0.3411  0.0710
 1679BOLB   C2C40290  11.994  11.990  40.360 -0.2050  0.1151  0.0731
 1679BOLB   C3C40291  11.573  12.027  40.514 -0.3758  0.0814  0.0139
 1679BOLB   C4C40292  11.264  12.048  40.786 -0.0194  0.0364  0.1938
 1679BOLB   C1D40293  12.026  11.640  39.901 -0.2271  0.0240 -0.0810
 1679BOLB   C2D40294  11.615  11.683  39.995  0.0049  0.0012 -0.2626
 1679BOLB   C3D40295  11.306  11.676  40.333 -0.0302  0.0097 -0.0278
 1679BOLB   C4D40296  10.899  11.842  40.476  0.0409  0.1104  0.1529
 1680BOLB   NC140297  19.347   4.409  40.493 -0.0912 -0.2061 -0.0469
 1680BOLB   PO140298  19.112   4.159  40.324  0.2991  0.0875 -0.0789
 1680BOLB   GL140299  19.278   4.672  40.109  0.2681  0.1778  0.0198
 1680BOLB   GL240300  19.377   4.752  39.818  0.1002  0.0920 -0.1006
 1680BOLB   C1A40301  19.265   5.073  40.191 -0.1110  0.0656  0.0081
 1680BOLB   C2A40302  19.119   5.350  39.951 -0.0930 -0.0401 -0.0990
 1680BOLB   C3A40303  19.177   5.495  39.654 -0.0985  0.0042  0.2631
 1680BOLB   C4A40304  19.436   5.415  39.275  0.1710  0.3218 -0.0294
 1680BOLB   C1B40305  19.263   5.003  39.416  0.1950 -0.1049  0.1577
 1680BOLB   C2B40306  18.770   5.078  39.336 -0.1383  0.0564 -0.1065
 1680BOLB   C3B40307  18.410   4.920  39.510 -0.0656  0.0647  0.1856
 1680BOLB   C4B40308  18.359   4.627  39.824  0.3708 -0.0936 -0.0191
 1680BOLB   NC240309  21.794   4.858  40.847 -0.0595 -0.2308 -0.2068
 1680BOLB   PO240310  21.676   4.972  40.456  0.1605 -0.0542 -0.0869
 1680BOLB   GL340311  21.202   5.174  40.338  0.1832  0.3267 -0.0222
 1680BOLB   GL440312  21.024   5.455  40.396 -0.0189  0.3177  0.0293
 1680BOLB   C1C40313  20.760   5.033  40.152  0.0438 -0.1292 -0.3918
 1680BOLB   C2C40314  20.416   4.845  39.942  0.0079  0.0203 -0.1246
 1680BOLB   C3C40315  20.120   5.057  39.590 -0.0270  0.0156  0.0431
 1680BOLB   C4C40316  19.934   5.197  39.259  0.0804  0.1225  0.0575
 1680BOLB   C1D40317  21.039   5.411  39.917  0.2406 -0.3293 -0.2470
 1680BOLB   C2D40318  20.867   5.738  39.654 -0.2431  0.0339  0.2297
 1680BOLB   C3D40319  21.124   6.056  39.559  0.0254  0.0272 -0.0742
 1680BOLB   C4D40320  21.470   6.260  39.473  0.0892  0.4474  0.0639
 1681BOLB   NC140321  13.996  21.524  28.943 -0.0295  0.0666  0.1264
 1681BOLB   PO140322  14.204  21.599  28.626  0.4436  0.1883  0.1784
 1681BOLB   GL140323  14.209  22.011  28.666  0.1019 -0.2096  0.0462
 1681BOLB   GL240324  13.998  22.095  28.876  0.0368 -0.0924 -0.0351
 1681BOLB   C1A40325  13.862  22.307  28.402 -0.3237 -0.2040 -0.3587
 1681BOLB   C2A40326  13.874  22.773  28.343 -0.1170  0.1641 -0.1238
 1681BOLB   C3A40327  14.086  23.047  28.225  0.3313 -0.0517 -0.0237
 1681BOLB   C4A40328  14.469  23.233  27.973  0.1622  0.0238 -0.0394
 1681BOLB   C1B40329  14.153  22.436  28.951  0.0662  0.0511 -0.3806
 1681BOLB   C2B40330  14.400  22.722  29.022  0.1893  0.5435 -0.1064
 1681BOLB   C3B40331  14.737  22.759  29.054 -0.0475  0.0622  0.2579
 1681BOLB   C4B40332  14.910  22.630  28.599 -0.1272  0.1194 -0.1562
 1681BOLB   NC240333  15.111  25.490  26.700 -0.3700  0.1211 -0.1264
 1681BOLB   PO240334  15.348  25.201  26.710 -0.0256  0.1340 -0.0019
 1681BOLB   GL340335  15.275  24.835  26.827 -0.1386 -0.0499 -0.1853
 1681BOLB   GL440336  14.924  24.787  26.673 -0.3502 -0.1554 -0.1069
 1681BOLB   C1C40337  15.172  24.440  27.028  0.1733  0.1434 -0.2073
 1681BOLB   C2C40338  15.304  24.031  27.268 -0.2352 -0.0093  0.3783
 1681BOLB   C3C40339  15.185  23.724  27.662  0.0915 -0.1191 -0.0148
 1681BOLB   C4C40340  14.807  23.510  27.938 -0.0297 -0.1459  0.0628
 1681BOLB   C1D40341  14.698  24.490  26.976 -0.1611  0.0582 -0.4162
 1681BOLB   C2D40342  14.682  24.252  27.325 -0.2242  0.4210 -0.0029
 1681BOLB   C3D40343  14.990  24.172  27.611  0.2024 -0.1827  0.0204
 1681BOLB   C4D40344  15.402  24.411  27.861 -0.1200 -0.2197 -0.1643
 1682BOLB   NC140345  25.507  17.903  27.911  0.0164  0.2520  0.0536
 1682BOLB   PO140346  25.582  17.426  27.919 -0.1741 -0.1886  0.2988
 1682BOLB   GL140347  25.283  17.081  27.864  0.1370 -0.1646 -0.1258
 1682BOLB   GL240348  25.322  16.781  27.894  0.1983 -0.0824  0.0421
 1682BOLB   C1A40349  24.818  16.797  27.758  0.0188 -0.2993 -0.1870
 1682BOLB   C2A40350  24.324  16.581  27.652 -0.1127 -0.0063  0.1108
 1682BOLB   C3A40351  24.028  16.278  27.283  0.3517 -0.2581 -0.1946
 1682BOLB   C4A40352  23.675  16.075  27.017 -0.1031 -0.0215  0.0666
 1682BOLB   C1B40353  25.211  16.696  27.488  0.4215  0.0237  0.0437
 1682BOLB   C2B40354  25.132  16.372  27.072 -0.1225 -0.0641  0.0725
 1682BOLB   C3B40355  25.032  15.991  26.960 -0.2782 -0.2649 -0.1418
 1682BOLB   C4B40356  24.996  15.791  27.460  0.0845  0.2018  0.3450
 1682BOLB   NC240357  25.393  16.425  25.539 -0.1861  0.2606  0.2670
 1682BOLB   PO240358  25.018  16.709  25.709  0.3115  0.1903 -0.2133
 1682BOLB   GL340359  24.710  16.504  25.922 -0.0597 -0.0253  0.0079
 1682BOLB   GL440360  24.386  16.566  25.850  0.1373  0.0237 -0.0450
 1682BOLB   C1C40361  24.531  16.092  25.993 -0.0624 -0.1037 -0.1392
 1682BOLB   C2C40362  24.156  15.852  26.178 -0.0374  0.2682  0.2243
 1682BOLB   C3C40363  23.980  15.603  26.346 -0.2970  0.1732 -0.0128
 1682BOLB   C4C40364  23.666  15.799  26.612 -0.0777  0.0804 -0.0731
 1682BOLB   C1D40365  24.012  16.347  26.097 -0.2372 -0.0297  0.0112
 1682BOLB   C2D40366  23.594  16.151  26.145 -0.0773  0.0396  0.1494
 1682BOLB   C3D40367  23.268  15.930  26.291 -0.3196 -0.1861 -0.2986
 1682BOLB   C4D40368  23.273  15.483  26.359 -0.0085 -0.1745 -0.0630
 1683BOLB   NC140369   8.306  12.884  34.797 -0.1785  0.1278  0.1311
 1683BOLB   PO140370   8.255  12.560  35.142 -0.1169 -0.0683  0.0517
 1683BOLB   GL140371   7.905  12.681  35.474 -0.0967  0.1576 -0.2614
 1683BOLB   GL240372   7.706  12.588  35.243 -0.0098  0.0539  0.1179
 1683BOLB   C1A40373   7.552  12.878  35.576  0.1607 -0.0224  0.0447
 1683BOLB   C2A40374   7.210  12.925  35.833 -0.1553 -0.1768  0.1321
 1683BOLB   C3A40375   7.233  13.140  36.213 -0.0654  0.0129  0.0044
 1683BOLB   C4A40376   7.139  13.210  36.710  0.0763  0.2638  0.0845
 1683BOLB   C1B40377   7.471  12.271  35.230 -0.0487  0.4001 -0.2173
 1683BOLB   C2B40378   7.019  11.996  35.181 -0.0172 -0.1159  0.2826
 1683BOLB   C3B40379   6.638  12.153  35.129 -0.2054 -0.0940  0.2334
 1683BOLB   C4B40380   6.220  12.382  35.021 -0.1570  0.0662  0.0163
 1683BOLB   NC240381   4.975  13.034  38.195  0.2346  0.2634  0.0178
 1683BOLB   PO240382   4.844  13.088  37.765 -0.0621  0.3646 -0.0525
 1683BOLB   GL340383   5.330  13.184  37.776  0.0011  0.1557  0.3955
 1683BOLB   GL440384   5.335  13.334  37.486 -0.2715 -0.1664 -0.2401
 1683BOLB   C1C40385   5.787  13.113  37.831 -0.4555  0.2523  0.2379
 1683BOLB   C2C40386   6.226  13.039  37.629  0.2299 -0.2754  0.2416
 1683BOLB   C3C40387   6.423  13.090  37.273 -0.0402  0.3861  0.0402
 1683BOLB   C4C40388   6.795  13.052  37.046 -0.0517 -0.1001 -0.3754
 1683BOLB   C1D40389   5.687  13.317  37.310  0.2917  0.0825 -0.2663
 1683BOLB   C2D40390   5.967  13.517  37.134  0.0918  0.0392 -0.0476
 1683BOLB   C3D40391   6.374  13.474  36.919 -0.0596  0.2476 -0.0365
 1683BOLB   C4D40392   6.760  13.477  36.762 -0.0658 -0.1200 -0.0551
 1684BOLB   NC140393  12.996   5.798  27.225 -0.0995  0.0698  0.2448
 1684BOLB   PO140394  12.858   5.327  27.034  0.3629 -0.0485  0.1287
 1684BOLB   GL140395  12.603   4.934  26.952 -0.0578 -0.2660 -0.2862
 1684BOLB   GL240396  12.505   5.010  26.660 -0.0250 -0.0077 -0.1776
 1684BOLB   C1A40397  12.298   4.455  26.790 -0.1473 -0.2176  0.2568
 1684BOLB   C2A40398  11.948   4.215  26.421  0.2022  0.0336  0.1726
 1684BOLB   C3A40399  11.802   4.138  25.951  0.0157  0.0600  0.2176
 1684BOLB   C4A40400  11.891   4.261  25.527 -0.3161  0.0332 -0.0154
 1684BOLB   C1B40401  12.212   4.824  26.502 -0.0795  0.0373  0.0341
 1684BOLB   C2B40402  12.039   4.650  26.158 -0.2503 -0.0633  0.0673
 1684BOLB   C3B40403  12.301   4.401  25.777  0.2939 -0.2676 -0.1470
 1684BOLB   C4B40404  12.314   3.981  25.827  0.2427 -0.2060 -0.0583
 1684BOLB   NC240405  11.326   2.282  24.073  0.1159  0.1844  0.2645
 1684BOLB   PO240406  11.205   2.460  24.506 -0.0686  0.1180 -0.0549
 1684BOLB   GL340407  11.033   2.841  24.554  0.1222 -0.0583  0.1065
 1684BOLB   GL440408  10.701   2.779  24.711 -0.0423 -0.1415  0.1632
 1684BOLB   C1C40409  11.223   3.203  24.461 -0.0981 -0.3685  0.1261
 1684BOLB   C2C40410  11.323   3.518  24.569  0.2294  0.1768 -0.0143
 1684BOLB   C3C40411  11.414   3.959  24.831 -0.2856 -0.0881  0.2378
 1684BOLB   C4C40412  11.726   4.155  25.152  0.0677 -0.2686 -0.2858
 1684BOLB   C1D40413  10.828   3.024  25.041  0.0066  0.2129  0.2555
 1684BOLB   C2D40414  11.215   3.271  25.111  0.2336  0.1740 -0.0790
 1684BOLB   C3D40415  11.468   3.515  25.388 -0.2217 -0.1696  0.2479
 1684BOLB   C4D40416  11.422   4.013  25.514 -0.2518  0.1816 -0.1813
 1685BOLB   NC140417  16.759  11.585  39.119 -0.0311 -0.2606  0.0113
 1685BOLB   PO140418  17.009  11.289  39.487 -0.2367 -0.0372 -0.0513
 1685BOLB   GL140419  17.188  11.172  39.991  0.1688  0.0622  0.1642
 1685BOLB   GL240420  16.966  11.139  40.131  0.0758  0.2155 -0.1684
 1685BOLB   C1A40421  17.312  11.302  40.425 -0.3042 -0.0611 -0.1861
 1685BOLB   C2A40422  17.658  11.295  40.705 -0.0196  0.3122 -0.0896
 1685BOLB   C3A40423  17.934  11.121  41.033  0.0287 -0.0803 -0.1571
 1685BOLB   C4A40424  18.193  11.158  41.355 -0.0621  0.2416 -0.0071
 1685BOLB   C1B40425  16.710  10.972  40.495  0.1747  0.3176 -0.0568
 1685BOLB   C2B40426  16.649  10.885  40.904  0.0992  0.2006 -0.1475
 1685BOLB   C3B40427  16.559  10.775  41.418  0.1996  0.1035  0.2581
 1685BOLB   C4B40428  16.384  10.641  41.898 -0.1453  0.0521  0.0472
 1685BOLB   NC240429  18.532  10.994  43.645 -0.1025 -0.0378 -0.3061
 1685BOLB   PO240430  18.293  10.691  43.795 -0.2534 -0.1750 -0.0406
 1685BOLB   GL340431  18.357  10.572  43.348 -0.1182  0.0182 -0.1376
 1685BOLB   GL440432  18.106  10.909  43.276  0.1874 -0.3709  0.2548
 1685BOLB   C1C40433  18.556  10.558  43.005  0.0972 -0.1775 -0.0164
 1685BOLB   C2C40434  18.610  10.793  42.575 -0.1602  0.0052 -0.1184
 1685BOLB   C3C40435  18.657  10.978  42.190 -0.0278  0.1094 -0.1745
 1685BOLB   C4C40436  18.445  11.063  41.815 -0.0173 -0.1267 -0.1600
 1685BOLB   C1D40437  18.252  11.014  42.853 -0.0073  0.0684  0.1935
 1685BOLB   C2D40438  18.527  11.292  42.565  0.3496 -0.1151  0.0677
 1685BOLB   C3D40439  18.639  11.518  42.177 -0.3440 -0.0706  0.1205
 1685BOLB   C4D40440  18.798  11.578  41.706 -0.1370  0.1412  0.1440
 1686BOLB   NC140441  21.130   0.174  28.376 -0.3273  0.2596  0.1200
 1686BOLB   PO140442  20.867   0.439  28.307 -0.0337  0.0813 -0.1494
 1686BOLB   GL140443  20.748   0.786  28.474  0.2481  0.0685  0.0814
 1686BOLB   GL240444  21.027   1.050  28.553 -0.0147 -0.1881  0.2333
 1686BOLB   C1A40445  20.473   1.052  28.611 -0.1173 -0.0076  0.0240
 1686BOLB   C2A40446  20.107   1.453  28.442 -0.0493  0.4340 -0.1191
 1686BOLB   C3A40447  19.973   1.948  28.380  0.2275  0.0415  0.1921
 1686BOLB   C4A40448  19.765   2.262  28.104 -0.2266  0.5358 -0.1245
 1686BOLB   C1B40449  21.217   1.461  28.353  0.1650  0.0769 -0.0107
 1686BOLB   C2B40450  21.186   1.664  27.986 -0.2276 -0.2317  0.2809
 1686BOLB   C3B40451  21.177   1.745  27.601  0.0446 -0.0395 -0.1874
 1686BOLB   C4B40452  21.069   1.702  27.079 -0.4768  0.2076 -0.2452
 1686BOLB   NC240453  21.710   1.166  27.376  0.0257 -0.2653  0.1166
 1686BOLB   PO240454  21.530   1.083  27.714 -0.2469  0.2227 -0.3258
 1686BOLB   GL340455  21.129   1.200  27.740 -0.1940 -0.0525  0.3324
 1686BOLB   GL440456  20.954   1.138  27.933 -0.0865 -0.2137 -0.2344
 1686BOLB   C1C40457  20.691   1.525  27.810  0.3133  0.0378 -0.0329
 1686BOLB   C2C40458  20.391   1.881  27.588 -0.3227 -0.1630  0.0397
 1686BOLB   C3C40459  19.989   2.055  27.424 -0.0964 -0.2400 -0.3676
 1686BOLB   C4C40460  19.673   2.220  27.757  0.6232  0.1443 -0.1561
 1686BOLB   C1D40461  20.722   1.368  28.259  0.0640 -0.0567  0.3429
 1686BOLB   C2D40462  20.429   1.759  28.255  0.0237 -0.3766 -0.0599
 1686BOLB   C3D40463  20.298   2.149  28.014 -0.3425  0.3976 -0.1844
 1686BOLB   C4D40464  20.158   2.437  27.845  0.0901  0.2820  0.0599
 1687BOLB   NC140465  22.347  16.026  34.459  0.2518  0.3399 -0.0818
 1687BOLB   PO140466  22.514  15.645  34.434  0.1035  0.0220  0.1229
 1687BOLB   GL140467  22.827  15.872  34.438 -0.0127 -0.0242  0.4097
 1687BOLB   GL240468  22.858  15.782  34.778  0.0119  0.4568 -0.0823
 1687BOLB   C1A40469  23.114  16.229  34.441 -0.0520 -0.0513 -0.0032
 1687BOLB   C2A40470  23.294  16.600  34.468  0.0969 -0.0657  0.4803
 1687BOLB   C3A40471  23.729  16.409  34.572 -0.2119 -0.3013  0.1976
 1687BOLB   C4A40472  24.149  16.496  34.289  0.2889 -0.2925  0.2207
 1687BOLB   C1B40473  23.181  16.082  34.928 -0.0713  0.0565  0.1221
 1687BOLB   C2B40474  23.637  16.013  34.941 -0.4618  0.1223  0.3206
 1687BOLB   C3B40475  23.981  15.920  34.684  0.1374  0.0075  0.0923
 1687BOLB   C4B40476  24.378  16.165  34.656  0.2845 -0.0988 -0.2233
 1687BOLB   NC240477  26.479  16.975  34.896 -0.2674  0.1131 -0.1635
 1687BOLB   PO240478  26.269  17.121  34.501 -0.3231  0.2377 -0.1678
 1687BOLB   GL340479  25.901  17.162  34.650  0.0960  0.7289  0.1380
 1687BOLB   GL440480  25.790  16.950  34.415 -0.0437  0.1923 -0.1032
 1687BOLB   C1C40481  25.533  17.348  34.655  0.0246 -0.0071 -0.1090
 1687BOLB   C2C40482  25.153  17.105  34.605 -0.0477 -0.0685  0.2076
 1687BOLB   C3C40483  24.894  16.808  34.615  0.1053  0.1767  0.1769
 1687BOLB   C4C40484  24.496  16.594  34.446 -0.1228  0.3619 -0.2737
 1687BOLB   C1D40485  25.404  16.780  34.266 -0.1506  0.2641  0.0859
 1687BOLB   C2D40486  24.990  16.702  34.161 -0.2702  0.0342  0.0175
 1687BOLB   C3D40487  24.800  16.260  34.241  0.1569  0.3451 -0.1324
 1687BOLB   C4D40488  24.434  16.091  33.890  0.3329  0.0096  0.0910
 1688BOLB   NC140489  17.158  23.246  37.327 -0.1504  0.1079 -0.2196
 1688BOLB   PO140490  17.004  23.394  36.874  0.3306 -0.0376  0.1879
 1688BOLB   GL140491  17.323  23.042  36.766  0.1206 -0.3898  0.1332
 1688BOLB   GL240492  17.287  22.843  37.031  0.0004  0.0838 -0.1714
 1688BOLB   C1A40493  17.591  22.707  36.635 -0.1070 -0.2137  0.3171
 1688BOLB   C2A40494  17.526  22.413  36.386 -0.4646 -0.3022  0.0377
 1688BOLB   C3A40495  17.273  22.176  36.100  0.0626  0.3664  0.1298
 1688BOLB   C4A40496  16.970  22.052  35.851 -0.0594 -0.3048  0.0945
 1688BOLB   C1B40497  17.186  22.424  36.792 -0.0971 -0.0770  0.0781
 1688BOLB   C2B40498  17.057  22.222  36.544  0.2070  0.0302 -0.2373
 1688BOLB   C3B40499  16.871  21.887  36.342 -0.0928  0.0859  0.0721
 1688BOLB   C4B40500  16.907  21.611  35.999 -0.0707 -0.0452 -0.1841
 1688BOLB   NC240501  17.476  23.922  35.588  0.1760 -0.4256 -0.1214
 1688BOLB   PO240502  17.809  23.675  35.682  0.2641 -0.0288 -0.1822
 1688BOLB   GL340503  17.503  23.421  35.406 -0.0020  0.1872  0.2157
 1688BOLB   GL440504  17.556  23.170  35.642  0.0615 -0.2052  0.1263
 1688BOLB   C1C40505  17.378  23.013  35.163  0.1035 -0.0756  0.0304
 1688BOLB   C2C40506  16.983  22.880  35.284 -0.1588 -0.1181  0.2172
 1688BOLB   C3C40507  16.778  22.542  35.251  0.1489 -0.1589 -0.0313
 1688BOLB   C4C40508  16.863  22.203  35.467 -0.1720 -0.1837 -0.1811
 1688BOLB   C1D40509  17.199  23.004  35.681 -0.3412 -0.0532 -0.0579
 1688BOLB   C2D40510  16.876  23.120  35.919  0.1380  0.0957 -0.3065
 1688BOLB   C3D40511  16.703  22.905  36.065 -0.1978  0.1487 -0.0714
 1688BOLB   C4D40512  16.519  22.779  36.464 -0.1334  0.5294 -0.0869
 1689BOLB   NC140513  22.950   8.431  29.233  0.2183 -0.0475  0.4531
 1689BOLB   PO140514  23.076   8.113  29.427  0.3717  0.0982  0.0657
 1689BOLB   GL140515  23.279   7.744  29.365  0.3562 -0.1509  0.1428
 1689BOLB   GL240516  23.259   7.517  29.072 -0.3011 -0.0730 -0.0918
 1689BOLB   C1A40517  23.703   7.749  29.303  0.1106 -0.1565  0.2047
 1689BOLB   C2A40518  24.051   7.806  29.624 -0.0547 -0.1378 -0.2469
 1689BOLB   C3A40519  24.433   7.626  29.945 -0.0098 -0.0709  0.0272
 1689BOLB   C4A40520  24.773   7.375  29.832  0.2219 -0.2822  0.1873
 1689BOLB   C1B40521  23.698   7.283  29.073 -0.3143  0.0584  0.0511
 1689BOLB   C2B40522  24.028   7.160  28.880  0.0585  0.1035  0.2205
 1689BOLB   C3B40523  24.158   6.709  28.628 -0.2165 -0.3276  0.0548
 1689BOLB   C4B40524  23.907   6.344  28.693  0.1734  0.2714 -0.1364
 1689BOLB   NC240525   0.217   7.832  30.184  0.0394 -0.2293  0.1267
 1689BOLB   PO240526   0.135   7.293  30.196  0.1841 -0.1812  0.0919
 1689BOLB   GL340527  26.778   7.568  30.153 -0.5464  0.2746  0.0568
 1689BOLB   GL440528  26.892   7.637  29.871  0.0420 -0.1426 -0.0455
 1689BOLB   C1C40529  26.360   7.654  30.128 -0.0518  0.1894  0.4305
 1689BOLB   C2C40530  25.923   7.741  30.181 -0.2157  0.0214 -0.1081
 1689BOLB   C3C40531  25.499   7.589  30.217  0.1968 -0.2833  0.1558
 1689BOLB   C4C40532  25.228   7.498  29.884 -0.1971  0.2001 -0.3357
 1689BOLB   C1D40533  26.579   7.710  29.601  0.0172 -0.3322  0.4567
 1689BOLB   C2D40534  26.276   7.846  29.422 -0.4808 -0.0967  0.0489
 1689BOLB   C3D40535  25.904   7.708  29.114 -0.0005  0.1572 -0.2379
 1689BOLB   C4D40536  25.677   8.035  28.861 -0.1161  0.3268  0.4149
 1690BOLB   NC140537  23.175  13.261  33.243 -0.0118 -0.0864 -0.0797
 1690BOLB   PO140538  23.341  13.662  33.053  0.2517 -0.1591 -0.2089
 1690BOLB   GL140539  23.646  13.554  32.855 -0.1971 -0.0141  0.4386
 1690BOLB   GL240540  23.630  13.607  32.472  0.1821  0.4511 -0.1483
 1690BOLB   C1A40541  24.048  13.720  32.714 -0.4035 -0.4051  0.0967
 1690BOLB   C2A40542  24.514  13.830  32.726  0.0950 -0.1232 -0.1280
 1690BOLB   C3A40543  24.759  14.209  32.937  0.2300  0.0949 -0.2770
 1690BOLB   C4A40544  25.006  14.582  32.893  0.3522 -0.1201 -0.0906
 1690BOLB   C1B40545  23.883  13.916  32.254 -0.0316 -0.1261 -0.1546
 1690BOLB   C2B40546  24.276  13.904  32.233  0.1713  0.0489 -0.1144
 1690BOLB   C3B40547  24.632  14.138  32.390  0.0769 -0.1212  0.2255
 1690BOLB   C4B40548  24.889  14.507  32.312 -0.1240  0.0749 -0.4895
 1690BOLB   NC240549  26.607  16.410  34.057  0.0557 -0.1733 -0.1432
 1690BOLB   PO240550  26.627  16.073  33.791 -0.0767 -0.2303 -0.1351
 1690BOLB   GL340551  26.269  15.844  33.597  0.2170  0.1568 -0.2142
 1690BOLB   GL440552  26.443  15.611  33.318  0.1070  0.1599 -0.0849
 1690BOLB   C1C40553  25.962  15.889  33.338  0.0562 -0.2980 -0.1410
 1690BOLB   C2C40554  25.648  15.713  33.098 -0.0307 -0.0507 -0.2344
 1690BOLB   C3C40555  25.368  15.361  33.091  0.1033  0.0584  0.0359
 1690BOLB   C4C40556  25.147  15.043  33.020  0.0826  0.0300  0.6660
 1690BOLB   C1D40557  26.194  15.610  32.936 -0.1449 -0.2092  0.0940
 1690BOLB   C2D40558  25.892  15.426  32.691  0.3037 -0.0486 -0.0849
 1690BOLB   C3D40559  25.623  15.144  32.753  0.1036 -0.0735  0.1620
 1690BOLB   C4D40560  25.291  14.896  32.497  0.2289  0.1312 -0.0387
 1691BOLB   NC140561  20.855   5.796  17.819 -0.0370  0.1706  0.1323
 1691BOLB   PO140562  20.442   5.920  17.608 -0.1528  0.4172 -0.0464
 1691BOLB   GL140563  20.610   6.224  17.937 -0.0349 -0.0827 -0.1752
 1691BOLB   GL240564  20.864   6.520  17.928  0.1147 -0.3535  0.2969
 1691BOLB   C1A40565  20.470   6.539  18.284  0.2512 -0.1733  0.2794
 1691BOLB   C2A40566  20.340   6.536  18.692 -0.0903 -0.0131 -0.1845
 1691BOLB   C3A40567  20.076   6.365  19.051  0.0786 -0.1170 -0.0917
 1691BOLB   C4A40568  19.711   6.217  19.147 -0.2876  0.0200 -0.0884
 1691BOLB   C1B40569  20.965   6.865  18.263 -0.0796  0.2040 -0.0271
 1691BOLB   C2B40570  20.934   7.181  18.541 -0.3450  0.2978 -0.0340
 1691BOLB   C3B40571  20.890   7.512  18.701 -0.1705  0.2845 -0.1266
 1691BOLB   C4B40572  20.983   7.881  18.826 -0.2105 -0.1441 -0.0261
 1691BOLB   NC240573  19.314   4.909  17.682 -0.0879 -0.2435 -0.1319
 1691BOLB   PO240574  18.985   4.714  17.919 -0.2527  0.1019 -0.2280
 1691BOLB   GL340575  18.966   5.007  18.194 -0.2016 -0.1869 -0.2958
 1691BOLB   GL440576  18.661   5.306  18.278 -0.0823 -0.0125  0.3255
 1691BOLB   C1C40577  19.022   5.221  18.673  0.1740  0.0656 -0.0608
 1691BOLB   C2C40578  18.856   5.515  18.962  0.0242 -0.1669 -0.3122
 1691BOLB   C3C40579  19.075   5.615  19.205 -0.0758  0.0611 -0.1560
 1691BOLB   C4C40580  19.490   5.898  19.329  0.0378  0.4895  0.1353
 1691BOLB   C1D40581  18.483   5.652  18.610 -0.1041 -0.0492 -0.1449
 1691BOLB   C2D40582  18.435   5.802  18.970  0.1914 -0.0082  0.0009
 1691BOLB   C3D40583  18.529   5.685  19.327  0.1059  0.0111  0.0358
 1691BOLB   C4D40584  18.790   6.049  19.519  0.0475 -0.0222 -0.1806
 1692BOLB   NC140585   8.650  11.914  35.489 -0.1144 -0.0929  0.1850
 1692BOLB   PO140586   8.835  12.191  35.897 -0.3111  0.1281 -0.1083
 1692BOLB   GL140587   8.465  12.158  35.894  0.3687 -0.1656 -0.5412
 1692BOLB   GL240588   8.315  12.289  35.690  0.1018  0.0581  0.0416
 1692BOLB   C1A40589   8.009  11.994  36.033  0.0857 -0.1654  0.3469
 1692BOLB   C2A40590   7.606  12.013  36.123  0.1452  0.2588  0.4633
 1692BOLB   C3A40591   7.216  11.978  36.168 -0.1739 -0.1927  0.2477
 1692BOLB   C4A40592   6.766  12.123  36.118 -0.3952 -0.0828  0.1451
 1692BOLB   C1B40593   7.916  12.134  35.511 -0.2883  0.0686  0.0315
 1692BOLB   C2B40594   7.590  11.920  35.617 -0.1160 -0.0007 -0.5477
 1692BOLB   C3B40595   7.229  11.745  35.597  0.2239 -0.1639  0.2083
 1692BOLB   C4B40596   6.818  11.726  35.757  0.0425 -0.1242  0.3742
 1692BOLB   NC240597   5.075  11.640  37.303  0.3713  0.1961  0.2108
 1692BOLB   PO240598   5.023  12.104  37.404 -0.0727 -0.3013  0.3450
 1692BOLB   GL340599   5.388  12.115  37.172 -0.3775 -0.1169  0.3915
 1692BOLB   GL440600   5.594  11.850  37.312  0.0747  0.0690 -0.1872
 1692BOLB   C1C40601   5.590  12.415  36.988 -0.1315 -0.1200 -0.1197
 1692BOLB   C2C40602   5.915  12.578  36.722  0.0755  0.1498 -0.0137
 1692BOLB   C3C40603   6.261  12.611  36.552 -0.1732  0.1879  0.1900
 1692BOLB   C4C40604   6.557  12.272  36.380 -0.0989 -0.1451 -0.2943
 1692BOLB   C1D40605   5.833  11.743  36.927  0.2202 -0.3719 -0.4417
 1692BOLB   C2D40606   5.788  11.655  36.420  0.3640 -0.2095  0.1603
 1692BOLB   C3D40607   5.961  11.651  36.050  0.0495  0.0612  0.1879
 1692BOLB   C4D40608   6.299  11.582  35.882 -0.1331 -0.3051  0.0203
 1693BOLB   NC140609  19.480   8.881  38.499 -0.1775  0.1033  0.0485
 1693BOLB   PO140610  19.489   8.762  38.976  0.1775  0.4115 -0.2845
 1693BOLB   GL140611  19.530   8.630  39.391 -0.0196 -0.3870  0.2234
 1693BOLB   GL240612  19.769   8.429  39.368 -0.5938 -0.1955 -0.0748
 1693BOLB   C1A40613  19.573   8.502  39.820 -0.2319 -0.0114  0.3711
 1693BOLB   C2A40614  19.290   8.527  40.023 -0.1626  0.0447  0.0976
 1693BOLB   C3A40615  19.236   8.419  40.519 -0.0848 -0.5054  0.0040
 1693BOLB   C4A40616  19.654   8.527  40.796  0.1427 -0.2713 -0.0987
 1693BOLB   C1B40617  20.237   8.453  39.512 -0.0960  0.0789 -0.0903
 1693BOLB   C2B40618  20.622   8.425  39.505  0.1534 -0.2043 -0.1898
 1693BOLB   C3B40619  20.850   8.693  39.247 -0.2875  0.4608 -0.1671
 1693BOLB   C4B40620  21.035   8.931  38.983 -0.0883 -0.0768 -0.2481
 1693BOLB   NC240621  20.150   8.904  42.935 -0.1278  0.1110 -0.2024
 1693BOLB   PO240622  20.537   9.193  42.722 -0.3544  0.0575 -0.3841
 1693BOLB   GL340623  20.309   9.202  42.472  0.0447  0.2560 -0.0311
 1693BOLB   GL440624  20.163   9.475  42.569  0.0358  0.0228  0.1852
 1693BOLB   C1C40625  19.998   9.342  42.078 -0.0699 -0.1478  0.2194
 1693BOLB   C2C40626  20.020   9.121  41.713  0.0950  0.0346  0.1659
 1693BOLB   C3C40627  20.129   9.093  41.258 -0.1726 -0.1406 -0.0557
 1693BOLB   C4C40628  20.020   8.771  40.882 -0.3028 -0.1005 -0.1863
 1693BOLB   C1D40629  20.130   9.884  42.327  0.0173  0.1499 -0.0232
 1693BOLB   C2D40630  20.230  10.295  42.284 -0.3212  0.2520  0.0006
 1693BOLB   C3D40631  20.342  10.687  42.549  0.3626  0.1897  0.0713
 1693BOLB   C4D40632  20.209  11.092  42.697 -0.0024  0.2564  0.0394
 1694BOLB   NC140633  10.448  14.042  37.980  0.3371  0.0108  0.1282
 1694BOLB   PO140634  10.857  14.322  38.131  0.1330  0.0173 -0.1783
 1694BOLB   GL140635  10.571  14.467  38.329  0.0086  0.1528 -0.0037
 1694BOLB   GL240636  10.380  14.744  38.238 -0.1620 -0.0364  0.4724
 1694BOLB   C1A40637  10.223  14.318  38.476  0.2673 -0.0985 -0.0684
 1694BOLB   C2A40638   9.827  14.290  38.775 -0.0272  0.2825  0.0143
 1694BOLB   C3A40639   9.591  14.163  39.122  0.0095  0.1732  0.0436
 1694BOLB   C4A40640   9.543  14.175  39.551 -0.1882 -0.2081  0.0602
 1694BOLB   C1B40641  10.063  14.797  38.513  0.1601  0.1491  0.3540
 1694BOLB   C2B40642   9.706  14.821  38.640  0.1879 -0.1296 -0.1761
 1694BOLB   C3B40643   9.409  14.581  38.908 -0.0819 -0.1954  0.1336
 1694BOLB   C4B40644   9.207  14.496  39.247  0.2311 -0.0174  0.0084
 1694BOLB   NC240645   8.766  13.943  42.514  0.0054 -0.1881 -0.1025
 1694BOLB   PO240646   8.962  13.946  42.082  0.1664 -0.3126  0.2334
 1694BOLB   GL340647   8.950  13.983  41.642 -0.2738 -0.1220  0.1581
 1694BOLB   GL440648   9.012  13.689  41.492 -0.0097 -0.1641 -0.2463
 1694BOLB   C1C40649   9.228  13.894  41.157  0.1911 -0.2213 -0.2666
 1694BOLB   C2C40650   9.016  13.981  40.764  0.1357 -0.0635  0.1784
 1694BOLB   C3C40651   9.208  14.153  40.308 -0.0344  0.2005 -0.1371
 1694BOLB   C4C40652   9.341  14.236  39.961 -0.2804  0.2262  0.1892
 1694BOLB   C1D40653   9.043  13.388  41.166  0.1847 -0.2038 -0.0723
 1694BOLB   C2D40654   9.010  13.448  40.766  0.0162 -0.3828 -0.0574
 1694BOLB   C3D40655   9.011  13.610  40.352 -0.2809 -0.1048  0.0846
 1694BOLB   C4D40656   8.874  13.421  40.053 -0.1022 -0.1006  0.1311
 1695BOLB   NC140657  20.852  17.495  31.662  0.0243 -0.2423  0.0252
 1695BOLB   PO140658  20.958  17.715  32.132 -0.0429 -0.0251 -0.0131
 1695BOLB   GL140659  21.043  18.127  32.139  0.5020 -0.2104  0.2901
 1695BOLB   GL240660  21.063  18.409  31.851  0.0281  0.0800  0.1152
 1695BOLB   C1A40661  21.438  18.354  32.265  0.0106 -0.0938  0.0934
 1695BOLB   C2A40662  21.717  18.600  32.330  0.0408 -0.1439 -0.1216
 1695BOLB   C3A40663  21.922  18.989  32.519 -0.1679 -0.0888 -0.1078
 1695BOLB   C4A40664  22.009  19.262  32.897 -0.1528  0.1251  0.0830
 1695BOLB   C1B40665  21.359  18.749  31.885  0.1990 -0.0666  0.0306
 1695BOLB   C2B40666  21.541  19.033  32.166  0.2415 -0.0292  0.1065
 1695BOLB   C3B40667  21.499  19.520  32.206 -0.3809  0.0291  0.1786
 1695BOLB   C4B40668  21.248  19.907  32.232 -0.2562  0.2108  0.0484
 1695BOLB   NC240669  24.615  19.910  33.385 -0.1464  0.0108  0.0547
 1695BOLB   PO240670  24.090  19.938  33.321 -0.2681  0.1978 -0.0896
 1695BOLB   GL340671  23.834  19.785  33.202  0.1836  0.3057  0.1544
 1695BOLB   GL440672  23.863  19.350  33.310  0.0490 -0.1049  0.3847
 1695BOLB   C1C40673  23.455  19.697  32.921 -0.0070 -0.1387 -0.0160
 1695BOLB   C2C40674  23.185  19.268  32.966 -0.0041 -0.1729  0.2354
 1695BOLB   C3C40675  22.740  19.163  33.147 -0.0143 -0.1428  0.1089
 1695BOLB   C4C40676  22.325  19.193  33.195  0.2551 -0.1146 -0.1988
 1695BOLB   C1D40677  23.495  19.101  33.459  0.0756  0.0654  0.0257
 1695BOLB   C2D40678  23.143  19.008  33.373  0.2324  0.3041  0.1386
 1695BOLB   C3D40679  22.795  18.934  33.576 -0.0960 -0.1456 -0.1764
 1695BOLB   C4D40680  22.465  18.897  33.670  0.0963 -0.1048 -0.2780
 1696BOLB   NC140681   8.046  14.944  32.868  0.2221  0.0975 -0.1377
 1696BOLB   PO140682   7.710  14.818  32.778  0.2155  0.1710 -0.1315
 1696BOLB   GL140683   7.374  14.950  32.937  0.3001 -0.1235  0.2078
 1696BOLB   GL240684   7.437  14.910  33.217  0.0373 -0.1443 -0.1614
 1696BOLB   C1A40685   6.941  15.107  32.968  0.0357 -0.2946 -0.1660
 1696BOLB   C2A40686   6.607  15.039  32.716  0.0140 -0.1607 -0.1110
 1696BOLB   C3A40687   6.164  15.036  32.586 -0.0392  0.0609 -0.3677
 1696BOLB   C4A40688   5.821  15.144  32.313 -0.1712  0.3744 -0.0197
 1696BOLB   C1B40689   7.061  14.692  33.278 -0.0271  0.2044 -0.0184
 1696BOLB   C2B40690   6.569  14.726  33.135  0.0071  0.0506  0.6528
 1696BOLB   C3B40691   6.116  14.843  33.048 -0.1581  0.0727  0.1084
 1696BOLB   C4B40692   5.715  14.596  33.206  0.0585 -0.0729 -0.2261
 1696BOLB   NC240693   2.946  16.036  31.765 -0.1910 -0.0623  0.1031
 1696BOLB   PO240694   3.399  15.999  31.767 -0.2072 -0.0740  0.0383
 1696BOLB   GL340695   3.735  15.770  31.874  0.2993  0.0175 -0.0746
 1696BOLB   GL440696   3.955  15.851  31.621 -0.3890  0.1542  0.1693
 1696BOLB   C1C40697   4.124  15.481  31.920  0.0136 -0.0110 -0.0048
 1696BOLB   C2C40698   4.513  15.403  32.227  0.0749 -0.2356 -0.0132
 1696BOLB   C3C40699   4.918  15.508  32.277 -0.0319 -0.1462  0.1403
 1696BOLB   C4C40700   5.445  15.291  32.285 -0.2442 -0.4750 -0.0622
 1696BOLB   C1D40701   4.315  16.211  31.473 -0.3063  0.2410  0.0907
 1696BOLB   C2D40702   4.729  16.081  31.649  0.1972  0.1240  0.0704
 1696BOLB   C3D40703   5.084  15.823  31.443  0.1740 -0.0786  0.1459
 1696BOLB   C4D40704   5.195  15.424  31.340  0.0401 -0.2389  0.1163
 1697BOLB   NC140705  23.441  11.644  29.292 -0.2202 -0.1701  0.0203
 1697BOLB   PO140706  23.730  11.730  29.570 -0.0603  0.4574  0.3126
 1697BOLB   GL140707  24.234  11.602  29.578  0.0772 -0.0223 -0.1053
 1697BOLB   GL240708  24.395  11.371  29.657 -0.0312 -0.1342  0.2189
 1697BOLB   C1A40709  24.439  11.540  29.202 -0.0255  0.0205 -0.0062
 1697BOLB   C2A40710  24.816  11.565  28.940 -0.1524 -0.2550  0.0157
 1697BOLB   C3A40711  25.129  11.787  28.689  0.2782  0.0590  0.0993
 1697BOLB   C4A40712  25.405  12.027  28.489  0.0797  0.0747 -0.0191
 1697BOLB   C1B40713  24.838  11.298  29.838  0.0146 -0.2230  0.2154
 1697BOLB   C2B40714  25.115  10.886  29.900 -0.0601  0.1062 -0.1976
 1697BOLB   C3B40715  25.469  10.632  29.936  0.2109 -0.1796 -0.3605
 1697BOLB   C4B40716  25.813  10.517  30.267  0.2109 -0.1368  0.0619
 1697BOLB   NC240717   0.760  11.467  27.730  0.4313  0.2143  0.1307
 1697BOLB   PO240718   0.575  11.728  28.212  0.1237 -0.1923  0.3418
 1697BOLB   GL340719   0.321  12.055  28.156 -0.0739  0.0244 -0.0171
 1697BOLB   GL440720   0.225  12.149  27.934  0.2726 -0.1096  0.0060
 1697BOLB   C1C40721  26.997  11.824  28.270  0.1740  0.0542 -0.0487
 1697BOLB   C2C40722  26.511  11.871  28.301 -0.3760  0.1145 -0.0015
 1697BOLB   C3C40723  26.062  11.778  28.423  0.2789  0.0838 -0.1542
 1697BOLB   C4C40724  25.671  11.888  28.279 -0.2365  0.1608  0.1061
 1697BOLB   C1D40725  26.858  12.184  27.964  0.2426 -0.2098  0.2766
 1697BOLB   C2D40726  26.374  12.188  27.950 -0.1572 -0.2260 -0.3680
 1697BOLB   C3D40727  26.002  12.212  28.110  0.1037 -0.0705 -0.0967
 1697BOLB   C4D40728  25.621  12.530  28.154  0.1412 -0.0721 -0.3269
 1698BOLB   NC140729  23.045  11.576  28.920  0.1153  0.3793  0.1098
 1698BOLB   PO140730  23.305  11.837  28.643  0.0117  0.1049 -0.1661
 1698BOLB   GL140731  23.680  11.906  28.425  0.0401  0.3960  0.2390
 1698BOLB   GL240732  23.906  11.737  28.205  0.1579 -0.0183 -0.1109
 1698BOLB   C1A40733  24.111  12.051  28.490  0.0236 -0.1587 -0.1618
 1698BOLB   C2A40734  24.470  12.241  28.289  0.1321 -0.1072 -0.2851
 1698BOLB   C3A40735  24.956  12.489  28.246  0.0788  0.1797 -0.1852
 1698BOLB   C4A40736  25.186  12.706  28.007  0.1431  0.1616  0.0036
 1698BOLB   C1B40737  24.263  11.931  27.976  0.0804 -0.0406 -0.2367
 1698BOLB   C2B40738  24.655  11.775  27.839  0.0166  0.0226 -0.0424
 1698BOLB   C3B40739  24.971  11.864  27.423  0.2105  0.1757  0.0617
 1698BOLB   C4B40740  25.135  12.118  27.108 -0.2425  0.1065 -0.1654
 1698BOLB   NC240741   0.072  14.256  27.599 -0.1997  0.1120  0.0188
 1698BOLB   PO240742   0.221  13.784  27.309  0.0196  0.0115 -0.0467
 1698BOLB   GL340743  26.850  13.824  27.355  0.2036 -0.0429 -0.1044
 1698BOLB   GL440744  26.882  13.472  27.353 -0.6526  0.1935 -0.1080
 1698BOLB   C1C40745  26.389  13.572  27.257 -0.0118  0.1706  0.2956
 1698BOLB   C2C40746  26.086  13.386  27.444 -0.0168 -0.4565 -0.1292
 1698BOLB   C3C40747  25.729  13.336  27.681 -0.1836  0.0413 -0.0345
 1698BOLB   C4C40748  25.382  13.134  27.835  0.1177  0.0229 -0.1421
 1698BOLB   C1D40749  26.649  13.383  27.751  0.1882  0.1356  0.0728
 1698BOLB   C2D40750  26.277  13.349  27.935 -0.2012 -0.0695 -0.2818
 1698BOLB   C3D40751  26.235  13.111  28.336 -0.3445 -0.0094  0.2210
 1698BOLB   C4D40752  26.393  12.843  28.747 -0.4126  0.3442  0.0163
 1699BOLB   NC140753  22.290  18.901  24.041 -0.1952  0.3137  0.2211
 1699BOLB   PO140754  22.492  18.485  23.929 -0.0020  0.3454  0.2617
 1699BOLB   GL140755  22.291  18.198  23.733  0.1810  0.1114  0.1335
 1699BOLB   GL240756  22.398  17.900  23.753 -0.0118  0.1319  0.4384
 1699BOLB   C1A40757  21.972  18.183  23.499 -0.0149 -0.2745  0.0922
 1699BOLB   C2A40758  21.606  17.984  23.348 -0.2114 -0.1258  0.0318
 1699BOLB   C3A40759  21.242  18.229  23.123  0.1667 -0.1937 -0.0947
 1699BOLB   C4A40760  20.922  18.350  22.811 -0.2769 -0.0065 -0.0868
 1699BOLB   C1B40761  22.260  17.648  24.078 -0.1627 -0.0602 -0.0673
 1699BOLB   C2B40762  21.938  17.121  24.200 -0.1133 -0.1462 -0.1489
 1699BOLB   C3B40763  21.712  17.070  24.477  0.3794 -0.0329  0.2090
 1699BOLB   C4B40764  21.320  17.054  24.613 -0.0377 -0.1223  0.3193
 1699BOLB   NC240765  22.427  19.341  23.363 -0.1290 -0.1122  0.1131
 1699BOLB   PO240766  22.513  19.126  23.667  0.1101  0.0510  0.2682
 1699BOLB   GL340767  22.046  19.166  23.552 -0.0383  0.0693 -0.0155
 1699BOLB   GL440768  21.810  19.054  23.823  0.0258  0.0790 -0.3678
 1699BOLB   C1C40769  21.792  19.321  23.083 -0.1731  0.2769  0.2563
 1699BOLB   C2C40770  21.296  19.361  22.997 -0.0153 -0.3982  0.0188
 1699BOLB   C3C40771  20.929  19.138  23.135 -0.0536  0.0970  0.0036
 1699BOLB   C4C40772  20.798  18.799  22.827  0.0649 -0.5300 -0.0430
 1699BOLB   C1D40773  21.471  18.894  23.906  0.2931  0.2989  0.1063
 1699BOLB   C2D40774  21.102  18.889  24.133 -0.0572  0.0853  0.0950
 1699BOLB   C3D40775  20.741  18.765  24.303  0.2059 -0.2105  0.1256
 1699BOLB   C4D40776  20.538  18.435  24.630 -0.1680  0.1661  0.3355
 1700BOLB   NC140777  15.213  20.734  32.109  0.0932  0.0424  0.1301
 1700BOLB   PO140778  15.387  20.684  31.691 -0.0019 -0.1707 -0.2301
 1700BOLB   GL140779  15.357  21.066  31.716 -0.4156 -0.0181 -0.1399
 1700BOLB   GL240780  15.633  21.135  31.817 -0.1505  0.3435  0.0806
 1700BOLB   C1A40781  15.285  21.496  31.536  0.1267 -0.2343  0.4604
 1700BOLB   C2A40782  14.971  21.801  31.481 -0.2155  0.0633  0.3746
 1700BOLB   C3A40783  14.992  22.282  31.436 -0.2618  0.1397 -0.3191
 1700BOLB   C4A40784  14.995  22.761  31.440  0.0901 -0.1573  0.0439
 1700BOLB   C1B40785  15.768  21.601  31.638  0.4970 -0.2228 -0.1683
 1700BOLB   C2B40786  15.922  21.985  31.691  0.1599  0.1037 -0.2156
 1700BOLB   C3B40787  16.236  22.219  31.865  0.2772  0.0617  0.3933
 1700BOLB   C4B40788  16.465  22.596  31.843 -0.2221 -0.2135 -0.2820
 1700BOLB   NC240789  14.418  25.341  31.686 -0.0277  0.1509 -0.0145
 1700BOLB   PO240790  14.749  25.336  32.014  0.2005 -0.0572 -0.2512
 1700BOLB   GL340791  14.689  24.952  32.112  0.1752  0.3038  0.0418
 1700BOLB   GL440792  14.511  24.831  31.894 -0.0720 -0.1057  0.4035
 1700BOLB   C1C40793  14.875  24.544  31.909  0.1147 -0.1491  0.1176
 1700BOLB   C2C40794  15.124  24.174  31.827 -0.1477  0.1314 -0.2209
 1700BOLB   C3C40795  15.131  23.701  31.812  0.3668  0.1659 -0.0799
 1700BOLB   C4C40796  15.123  23.192  31.631 -0.1137 -0.0957  0.0483
 1700BOLB   C1D40797  14.290  24.413  31.784  0.2064 -0.1324 -0.0573
 1700BOLB   C2D40798  14.057  24.172  32.013 -0.3513 -0.0123  0.3209
 1700BOLB   C3D40799  14.105  24.317  32.478 -0.2172 -0.1818 -0.1102
 1700BOLB   C4D40800  14.030  24.701  32.853 -0.3009  0.3597  0.2593
 1701BOLB   NC140801  20.655  16.274  27.394 -0.4333  0.0061 -0.0459
 1701BOLB   PO140802  20.837  15.757  27.335  0.2557 -0.1571 -0.1643
 1701BOLB   GL140803  21.117  16.148  27.214  0.3676  0.4195 -0.0578
 1701BOLB   GL240804  21.046  16.484  27.169  0.3967  0.0003  0.3069
 1701BOLB   C1A40805  21.585  16.355  27.262  0.2142  0.0850  0.0325
 1701BOLB   C2A40806  22.059  16.495  27.407 -0.0273 -0.0448  0.4301
 1701BOLB   C3A40807  22.252  16.670  27.795  0.0657  0.1422 -0.0231
 1701BOLB   C4A40808  22.565  16.713  28.135  0.0606  0.0369 -0.2440
 1701BOLB   C1B40809  21.277  16.868  26.914 -0.1692  0.1640 -0.0117
 1701BOLB   C2B40810  21.433  17.059  26.606 -0.2878 -0.1364  0.3774
 1701BOLB   C3B40811  21.461  17.191  26.171 -0.2482 -0.1062 -0.1265
 1701BOLB   C4B40812  21.176  17.260  25.841 -0.1620 -0.0658  0.4096
 1701BOLB   NC240813  24.898  17.318  27.015  0.4868 -0.0424 -0.1555
 1701BOLB   PO240814  24.932  17.305  27.438  0.1595 -0.1064  0.1847
 1701BOLB   GL340815  24.536  17.129  27.433  0.1069  0.0494  0.0260
 1701BOLB   GL440816  24.362  17.201  27.130  0.0127  0.1446  0.2095
 1701BOLB   C1C40817  24.085  17.194  27.587 -0.3811  0.3665 -0.0858
 1701BOLB   C2C40818  23.702  17.073  27.800  0.0749  0.0903  0.3315
 1701BOLB   C3C40819  23.376  16.844  27.918 -0.2510 -0.0382  0.0428
 1701BOLB   C4C40820  22.983  16.756  28.119 -0.1413  0.2268  0.1923
 1701BOLB   C1D40821  24.246  16.794  27.185 -0.0215  0.0516  0.4044
 1701BOLB   C2D40822  23.767  16.728  27.397  0.1294  0.1843  0.1065
 1701BOLB   C3D40823  23.504  16.544  27.592 -0.0556 -0.1405  0.0054
 1701BOLB   C4D40824  23.253  16.336  27.833 -0.1120  0.0748 -0.2207
 1702BOLB   NC140825  11.028   6.561  32.311  0.1974 -0.0335 -0.2984
 1702BOLB   PO140826  11.181   6.563  32.760  0.1201  0.3377 -0.1353
 1702BOLB   GL140827  10.845   6.379  32.810 -0.1490 -0.1759 -0.1579
 1702BOLB   GL240828  10.686   6.195  32.513 -0.2002  0.1337 -0.0898
 1702BOLB   C1A40829  10.533   6.004  32.974  0.1421  0.2222  0.0529
 1702BOLB   C2A40830  10.191   5.873  33.167 -0.3474  0.0695  0.0390
 1702BOLB   C3A40831  10.079   5.519  33.318 -0.0398  0.0984  0.0806
 1702BOLB   C4A40832  10.038   5.029  33.254  0.1488 -0.1417 -0.5554
 1702BOLB   C1B40833  10.344   5.880  32.414  0.0097 -0.0040 -0.2762
 1702BOLB   C2B40834  10.037   5.592  32.282 -0.2858 -0.2101  0.3507
 1702BOLB   C3B40835   9.665   5.688  31.952 -0.1328  0.1874 -0.0305
 1702BOLB   C4B40836   9.410   5.440  31.741 -0.2333 -0.0156 -0.3936
 1702BOLB   NC240837   9.445   3.013  34.519 -0.0146  0.0193  0.2633
 1702BOLB   PO240838   9.321   3.379  34.706 -0.2600  0.0229 -0.0012
 1702BOLB   GL340839   9.513   3.618  34.411  0.1318  0.1758  0.1299
 1702BOLB   GL440840   9.634   3.372  34.232  0.2455 -0.0307  0.2221
 1702BOLB   C1C40841   9.628   3.813  33.974  0.0275 -0.0464  0.0494
 1702BOLB   C2C40842   9.932   3.985  33.659  0.0193 -0.0866  0.1645
 1702BOLB   C3C40843  10.212   4.228  33.516 -0.0706 -0.4996 -0.1412
 1702BOLB   C4C40844  10.120   4.708  33.523  0.0080  0.0830 -0.1668
 1702BOLB   C1D40845  10.064   3.717  34.236  0.0551  0.0180 -0.2416
 1702BOLB   C2D40846  10.155   4.060  34.448 -0.1519 -0.2133 -0.0212
 1702BOLB   C3D40847  10.202   4.494  34.431 -0.1607  0.1311 -0.2925
 1702BOLB   C4D40848  10.122   4.922  34.546  0.1308  0.3822  0.5013
 1703BOLB   NC140849  17.367   9.840  19.676 -0.0101  0.1486  0.3929
 1703BOLB   PO140850  17.677   9.374  19.723 -0.1421 -0.1482  0.0278
 1703BOLB   GL140851  17.567   8.974  19.516 -0.0659  0.3815 -0.0335
 1703BOLB   GL240852  17.839   8.732  19.623 -0.2017  0.0391  0.4007
 1703BOLB   C1A40853  17.286   8.731  19.314 -0.3051 -0.0569 -0.4620
 1703BOLB   C2A40854  17.070   8.487  19.064  0.3115 -0.1262  0.1486
 1703BOLB   C3A40855  16.782   8.165  18.915 -0.0336 -0.0838 -0.3593
 1703BOLB   C4A40856  16.619   7.805  18.690  0.1104 -0.1350  0.0556
 1703BOLB   C1B40857  17.742   8.417  19.240 -0.1096  0.1525  0.1241
 1703BOLB   C2B40858  17.537   8.424  18.902  0.0907 -0.1016  0.0799
 1703BOLB   C3B40859  17.388   8.433  18.480 -0.2184 -0.1444 -0.1945
 1703BOLB   C4B40860  17.389   8.162  18.078  0.4135 -0.0460  0.1236
 1703BOLB   NC240861  14.997   6.434  17.417 -0.3851  0.1859  0.0428
 1703BOLB   PO240862  15.196   6.665  17.163 -0.2921 -0.2921 -0.0508
 1703BOLB   GL340863  15.286   6.959  17.463 -0.0591 -0.2115 -0.3409
 1703BOLB   GL440864  15.422   7.246  17.387 -0.3005 -0.0868 -0.0796
 1703BOLB   C1C40865  15.395   7.027  17.899  0.0698 -0.1222  0.2327
 1703BOLB   C2C40866  15.815   6.859  18.167 -0.4090  0.2154  0.2479
 1703BOLB   C3C40867  16.151   6.956  18.529 -0.1791  0.0177  0.1847
 1703BOLB   C4C40868  16.568   7.319  18.653  0.3146  0.1495 -0.2396
 1703BOLB   C1D40869  15.700   7.403  17.814 -0.2833 -0.1543  0.2417
 1703BOLB   C2D40870  15.791   7.328  18.208  0.0589 -0.1978 -0.1392
 1703BOLB   C3D40871  15.933   7.403  18.673 -0.1312  0.0394 -0.1899
 1703BOLB   C4D40872  15.951   7.299  19.129 -0.1483 -0.0155 -0.0026
 1704BOLB   NC140873  11.915  10.006  37.900 -0.2179 -0.0583  0.0929
 1704BOLB   PO140874  11.584   9.923  38.197 -0.0820  0.2135  0.2532
 1704BOLB   GL140875  11.355   9.789  38.449 -0.0954 -0.1926 -0.1030
 1704BOLB   GL240876  11.039   9.597  38.425  0.0822 -0.1977 -0.0061
 1704BOLB   C1A40877  11.330   9.576  38.908 -0.1457  0.3087  0.2246
 1704BOLB   C2A40878  10.919   9.329  39.142 -0.0810 -0.1682  0.2412
 1704BOLB   C3A40879  10.591   9.082  39.117  0.1759  0.1285 -0.0594
 1704BOLB   C4A40880  10.369   8.626  39.015 -0.0944  0.0292 -0.1893
 1704BOLB   C1B40881  10.723   9.442  38.662 -0.0577  0.0863  0.0155
 1704BOLB   C2B40882  10.362   9.419  38.828 -0.1066  0.3347  0.2044
 1704BOLB   C3B40883  10.154   9.274  39.192  0.0314  0.0724 -0.0163
 1704BOLB   C4B40884   9.882   9.319  39.537 -0.1830 -0.0681 -0.1834
 1704BOLB   NC240885   9.029   8.258  40.893  0.0322  0.1366 -0.0151
 1704BOLB   PO240886   9.066   7.799  40.890  0.0841 -0.1466  0.2584
 1704BOLB   GL340887   9.206   7.909  40.522 -0.0780  0.3716  0.0355
 1704BOLB   GL440888   9.522   8.117  40.557  0.1818  0.0601  0.0716
 1704BOLB   C1C40889   9.344   7.957  40.049 -0.1156  0.0015  0.1439
 1704BOLB   C2C40890   9.544   7.989  39.670  0.0407  0.2281  0.2040
 1704BOLB   C3C40891   9.992   8.118  39.473 -0.0987  0.1409  0.2605
 1704BOLB   C4C40892  10.208   8.386  39.134  0.1005  0.2351 -0.3109
 1704BOLB   C1D40893   9.267   8.383  40.321  0.0040  0.3142 -0.3335
 1704BOLB   C2D40894   9.143   8.409  39.862  0.0626  0.2978 -0.0442
 1704BOLB   C3D40895   9.317   8.480  39.434  0.2148 -0.0437  0.2436
 1704BOLB   C4D40896   9.582   8.431  39.094  0.2569  0.0410 -0.2935
 1705BOLB   NC140897  11.607  23.172  21.753 -0.0552  0.1541 -0.2983
 1705BOLB   PO140898  11.560  23.211  22.100  0.1607  0.0225  0.1756
 1705BOLB   GL140899  11.425  23.016  22.432 -0.4019  0.0674 -0.0907
 1705BOLB   GL240900  11.079  22.964  22.348  0.2817  0.0090 -0.2254
 1705BOLB   C1A40901  11.706  22.603  22.507 -0.1458 -0.0934  0.1181
 1705BOLB   C2A40902  11.892  22.173  22.682 -0.1862 -0.0783  0.0306
 1705BOLB   C3A40903  11.982  21.786  22.604  0.1617 -0.3503 -0.0450
 1705BOLB   C4A40904  11.641  21.627  22.349  0.1102  0.0165 -0.0717
 1705BOLB   C1B40905  11.168  22.688  22.775  0.0864 -0.1517 -0.1054
 1705BOLB   C2B40906  11.462  22.353  22.951  0.3675  0.1109  0.0925
 1705BOLB   C3B40907  11.867  22.187  23.227 -0.2696 -0.0175 -0.0804
 1705BOLB   C4B40908  12.016  21.785  23.439 -0.0356  0.0946  0.1254
 1705BOLB   NC240909   9.345  21.420  21.580  0.2078 -0.1917 -0.1573
 1705BOLB   PO240910   9.114  21.046  21.594  0.3306  0.1910 -0.0903
 1705BOLB   GL340911   9.625  21.080  21.762 -0.2281  0.1737 -0.3132
 1705BOLB   GL440912   9.556  20.767  21.661 -0.0013 -0.0833  0.1722
 1705BOLB   C1C40913   9.981  21.158  21.569  0.0282  0.0757 -0.2651
 1705BOLB   C2C40914  10.405  21.184  21.694  0.1155 -0.0432  0.1223
 1705BOLB   C3C40915  10.910  21.188  21.856 -0.3254  0.1020 -0.1183
 1705BOLB   C4C40916  11.252  21.463  22.071  0.0386 -0.2521  0.1407
 1705BOLB   C1D40917   9.932  20.658  21.914 -0.0119  0.2089 -0.0103
 1705BOLB   C2D40918  10.106  20.489  22.175 -0.3374 -0.3520 -0.2085
 1705BOLB   C3D40919  10.108  20.549  22.614  0.2217 -0.0460 -0.0763
 1705BOLB   C4D40920  10.184  20.298  23.020  0.2995 -0.2633  0.2838
 1706BOLB   NC140921  21.541   9.937  15.358  0.2325  0.0983  0.0616
 1706BOLB   PO140922  21.350  10.168  15.592 -0.0507 -0.1910 -0.1540
 1706BOLB   GL140923  21.130  10.496  15.879  0.0226  0.1603  0.0289
 1706BOLB   GL240924  21.220  10.757  16.146  0.1909  0.2864 -0.0897
 1706BOLB   C1A40925  20.725  10.860  15.929 -0.1552 -0.1185  0.0948
 1706BOLB   C2A40926  20.432  11.139  15.912  0.1293 -0.1088  0.2555
 1706BOLB   C3A40927  20.218  11.297  16.156 -0.3121 -0.1365 -0.0179
 1706BOLB   C4A40928  20.090  11.710  16.350  0.0152  0.2278  0.1986
 1706BOLB   C1B40929  20.993  10.699  16.556  0.0777  0.0524 -0.0759
 1706BOLB   C2B40930  20.502  10.546  16.629 -0.0981 -0.2595  0.1415
 1706BOLB   C3B40931  20.414  10.683  17.062 -0.0471 -0.0642 -0.3503
 1706BOLB   C4B40932  20.615  10.519  17.587 -0.3500  0.3834  0.3119
 1706BOLB   NC240933  20.719  13.284  15.324  0.0489  0.2195  0.1415
 1706BOLB   PO240934  21.043  13.522  15.475  0.3527 -0.1099 -0.1623
 1706BOLB   GL340935  21.130  13.443  15.903  0.0854 -0.2760  0.0589
 1706BOLB   GL440936  21.144  13.646  16.226  0.2665 -0.1708  0.1218
 1706BOLB   C1C40937  20.930  13.173  16.148 -0.1015  0.2023  0.0625
 1706BOLB   C2C40938  20.643  12.928  16.343  0.1343 -0.1448 -0.0561
 1706BOLB   C3C40939  20.449  12.496  16.533  0.1789 -0.1998  0.0232
 1706BOLB   C4C40940  20.357  12.068  16.577  0.2697  0.1303 -0.0332
 1706BOLB   C1D40941  20.722  13.569  16.326 -0.1425  0.3598 -0.0555
 1706BOLB   C2D40942  20.489  13.344  16.734  0.2853  0.2886  0.1222
 1706BOLB   C3D40943  20.336  13.429  17.158  0.1288 -0.0029  0.3642
 1706BOLB   C4D40944  20.255  13.754  17.429  0.1789 -0.1859  0.0682
 1707BOLB   NC140945  11.862  18.431  36.077 -0.0168  0.1821 -0.3951
 1707BOLB   PO140946  11.542  18.106  36.037 -0.5460 -0.2241  0.1050
 1707BOLB   GL140947  11.235  18.519  36.082  0.0619  0.2023  0.4397
 1707BOLB   GL240948  11.111  18.366  36.345 -0.3219  0.0970  0.0515
 1707BOLB   C1A40949  11.021  18.941  36.381  0.2527 -0.1292 -0.0293
 1707BOLB   C2A40950  10.861  19.034  36.811  0.0326  0.0975  0.0198
 1707BOLB   C3A40951  10.885  19.116  37.211  0.0679  0.0188 -0.2483
 1707BOLB   C4A40952  11.075  19.284  37.477 -0.1346  0.1714  0.1792
 1707BOLB   C1B40953  10.832  18.529  36.526 -0.1935 -0.1590 -0.0394
 1707BOLB   C2B40954  10.529  18.826  36.440  0.1928  0.3285 -0.0824
 1707BOLB   C3B40955  10.122  18.993  36.563  0.0662 -0.3718  0.0730
 1707BOLB   C4B40956   9.965  19.374  36.857  0.1063  0.1114  0.2590
 1707BOLB   NC240957  10.722  20.729  39.527 -0.3618  0.0701 -0.5084
 1707BOLB   PO240958  10.439  20.360  39.574  0.1275  0.0596 -0.1601
 1707BOLB   GL340959  10.671  20.414  39.205 -0.0585 -0.1385  0.1101
 1707BOLB   GL440960  10.563  20.149  39.014  0.2685  0.4754 -0.0904
 1707BOLB   C1C40961  11.038  20.349  38.785  0.1396  0.0361 -0.2697
 1707BOLB   C2C40962  11.175  20.132  38.399  0.0962 -0.0034 -0.0026
 1707BOLB   C3C40963  11.105  19.761  38.188  0.0345  0.4510  0.0641
 1707BOLB   C4C40964  11.150  19.446  37.871  0.3071 -0.2260 -0.2634
 1707BOLB   C1D40965  10.889  19.902  38.722  0.2372  0.0851  0.2165
 1707BOLB   C2D40966  11.285  19.656  38.617  0.2339  0.0240  0.2230
 1707BOLB   C3D40967  11.470  19.308  38.370 -0.1544  0.0059  0.2809
 1707BOLB   C4D40968  11.322  18.919  38.247  0.0565 -0.0197 -0.1324
 1708BOLB   NC140969  12.506  15.941  21.654 -0.3253 -0.1083 -0.2510
 1708BOLB   PO140970  12.705  16.284  21.816 -0.2005  0.1035  0.1780
 1708BOLB   GL140971  12.407  16.558  21.609  0.5134  0.1781 -0.1134
 1708BOLB   GL240972  12.276  16.475  21.237 -0.0377 -0.0569 -0.3799
 1708BOLB   C1A40973  12.106  16.921  21.429 -0.0477 -0.2152 -0.0307
 1708BOLB   C2A40974  11.850  17.233  21.195  0.1929  0.1751 -0.2645
 1708BOLB   C3A40975  11.757  17.566  20.818 -0.0665 -0.4091  0.1063
 1708BOLB   C4A40976  11.675  18.018  20.704  0.1166  0.0743  0.2699
 1708BOLB   C1B40977  12.048  16.629  20.926 -0.1662  0.0500 -0.0114
 1708BOLB   C2B40978  11.827  16.938  20.637 -0.1007 -0.4501  0.0172
 1708BOLB   C3B40979  11.901  17.259  20.315  0.0385 -0.2337 -0.0642
 1708BOLB   C4B40980  11.747  17.757  20.176 -0.0363  0.0119 -0.0577
 1708BOLB   NC240981  10.493  19.778  19.633 -0.1428 -0.2619 -0.1510
 1708BOLB   PO240982  10.924  19.660  19.555  0.0123 -0.1630  0.0621
 1708BOLB   GL340983  11.270  19.468  19.518 -0.0581 -0.0430 -0.1532
 1708BOLB   GL440984  11.434  19.280  19.205  0.2053 -0.0600  0.2071
 1708BOLB   C1C40985  11.527  19.209  19.828 -0.0513 -0.3975  0.0881
 1708BOLB   C2C40986  11.731  18.851  19.940  0.0200  0.0474 -0.2758
 1708BOLB   C3C40987  11.654  18.546  20.156  0.0642 -0.1186 -0.3673
 1708BOLB   C4C40988  11.636  18.202  20.386  0.0067  0.0011  0.0681
 1708BOLB   C1D40989  11.683  18.971  19.372 -0.1876  0.3643 -0.3589
 1708BOLB   C2D40990  12.026  18.809  19.477 -0.1650 -0.1032  0.3408
 1708BOLB   C3D40991  12.132  18.510  19.901 -0.1151 -0.3958 -0.2202
 1708BOLB   C4D40992  12.481  18.317  20.095  0.2107  0.0101  0.0942
 1709BOLB   NC140993  16.544   7.222  36.859  0.0108  0.1507  0.3467
 1709BOLB   PO140994  16.864   6.922  37.089  0.2903  0.0375 -0.2487
 1709BOLB   GL140995  16.769   6.542  37.356 -0.2484 -0.1977 -0.3716
 1709BOLB   GL240996  16.947   6.507  37.661 -0.0392 -0.0558 -0.1935
 1709BOLB   C1A40997  16.621   6.139  37.623  0.1798  0.2665 -0.0942
 1709BOLB   C2A40998  16.383   5.828  37.831  0.1121 -0.2571  0.0644
 1709BOLB   C3A40999  16.333   5.478  37.969  0.1794 -0.2229  0.0048
 1709BOLB   C4A41000  16.262   5.097  38.166 -0.3932 -0.1490 -0.0728
 1709BOLB   C1B41001  16.884   6.273  38.046  0.0527  0.1090  0.3285
 1709BOLB   C2B41002  17.068   6.040  38.405 -0.0573 -0.1499 -0.3951
 1709BOLB   C3B41003  17.199   5.847  38.747 -0.3342  0.2295  0.0096
 1709BOLB   C4B41004  17.406   5.680  39.219 -0.3239  0.2147  0.2737
 1709BOLB   NC241005  15.528   3.179  39.905 -0.1883 -0.0949  0.2614
 1709BOLB   PO241006  15.754   3.481  39.564 -0.0122 -0.1033  0.0832
 1709BOLB   GL341007  15.878   3.446  39.108  0.1072 -0.2055 -0.2096
 1709BOLB   GL441008  15.627   3.301  38.809 -0.1697 -0.4902 -0.0031
 1709BOLB   C1C41009  15.841   3.866  38.886  0.2080 -0.2646 -0.2529
 1709BOLB   C2C41010  15.792   4.145  38.551 -0.2255  0.0994  0.2021
 1709BOLB   C3C41011  15.786   4.551  38.586  0.2627 -0.4304  0.0855
 1709BOLB   C4C41012  15.886   4.942  38.405 -0.2778  0.1047  0.2413
 1709BOLB   C1D41013  15.351   3.705  38.723 -0.1108  0.2502 -0.1665
 1709BOLB   C2D41014  15.264   4.035  38.474 -0.3032 -0.2490  0.0523
 1709BOLB   C3D41015  15.075   4.347  38.170 -0.1306  0.0245  0.0310
 1709BOLB   C4D41016  14.982   4.682  37.975 -0.2077  0.2271  0.0798
 1710BOLB   NC141017   8.097  17.612  31.864 -0.2285  0.1556 -0.2301
 1710BOLB   PO141018   8.168  17.297  31.437  0.5217 -0.0395 -0.0906
 1710BOLB   GL141019   7.770  17.545  31.526 -0.0072  0.0053 -0.1974
 1710BOLB   GL241020   7.530  17.483  31.310  0.3163  0.2824  0.0872
 1710BOLB   C1A41021   7.411  17.821  31.745  0.3383  0.4034  0.1019
 1710BOLB   C2A41022   7.418  18.215  31.976  0.2070 -0.0242 -0.1513
 1710BOLB   C3A41023   7.100  18.378  31.895  0.1101  0.0253 -0.0178
 1710BOLB   C4A41024   6.927  18.735  31.962  0.1563 -0.0250  0.3272
 1710BOLB   C1B41025   7.199  17.233  31.104  0.1821 -0.0951 -0.1049
 1710BOLB   C2B41026   6.809  17.210  30.868 -0.1416  0.1467 -0.1907
 1710BOLB   C3B41027   6.490  17.377  30.619  0.0908  0.2097 -0.1068
 1710BOLB   C4B41028   6.146  17.530  30.457 -0.0692 -0.2213  0.1636
 1710BOLB   NC241029   5.228  19.774  33.449  0.0135 -0.3186 -0.0988
 1710BOLB   PO241030   4.947  19.401  33.329  0.1247 -0.1693  0.1749
 1710BOLB   GL341031   5.311  19.353  33.170 -0.2199  0.0464 -0.0371
 1710BOLB   GL441032   5.569  19.410  33.394 -0.0771  0.1577  0.1093
 1710BOLB   C1C41033   5.496  19.320  32.779  0.0488  0.2066 -0.1353
 1710BOLB   C2C41034   5.830  19.179  32.407  0.1469  0.1384  0.3968
 1710BOLB   C3C41035   6.150  18.889  32.297 -0.1183  0.1377 -0.1449
 1710BOLB   C4C41036   6.461  18.654  32.080 -0.0308 -0.2196  0.0863
 1710BOLB   C1D41037   5.804  19.204  33.117 -0.0111 -0.0066  0.0552
 1710BOLB   C2D41038   5.902  18.861  32.794  0.3492 -0.2885  0.2680
 1710BOLB   C3D41039   6.019  18.442  32.660  0.1533 -0.2445 -0.2449
 1710BOLB   C4D41040   5.960  18.029  32.353 -0.2650  0.0341 -0.1791
 1711BOLB   NC141041  17.151   8.592  20.654 -0.0858 -0.2400  0.2234
 1711BOLB   PO141042  16.819   8.174  20.515  0.1093 -0.3185 -0.1599
 1711BOLB   GL141043  16.515   7.795  20.371 -0.2481 -0.2091 -0.1820
 1711BOLB   GL241044  16.347   7.908  20.316 -0.0043  0.2223 -0.0736
 1711BOLB   C1A41045  16.267   7.384  20.360  0.0750  0.4160  0.3006
 1711BOLB   C2A41046  16.357   6.893  20.170  0.1172  0.1475 -0.0775
 1711BOLB   C3A41047  16.245   6.510  20.048 -0.0365  0.2025  0.0316
 1711BOLB   C4A41048  15.963   6.183  20.091 -0.2463  0.4217  0.0381
 1711BOLB   C1B41049  16.107   7.698  20.042  0.0117 -0.0185  0.2204
 1711BOLB   C2B41050  15.809   7.586  19.585  0.1893 -0.3575 -0.4168
 1711BOLB   C3B41051  15.734   7.802  19.267 -0.1787 -0.2263 -0.0755
 1711BOLB   C4B41052  15.502   8.153  19.114 -0.2180  0.1332  0.1847
 1711BOLB   NC241053  15.179   4.044  19.001  0.2323 -0.1536  0.2637
 1711BOLB   PO241054  15.565   3.788  19.037 -0.2261  0.4840 -0.2756
 1711BOLB   GL341055  15.662   4.158  19.119  0.1384  0.0987  0.2506
 1711BOLB   GL441056  16.011   4.247  19.156  0.4912  0.1104  0.0151
 1711BOLB   C1C41057  15.557   4.555  19.284 -0.2520  0.1216 -0.0038
 1711BOLB   C2C41058  15.822   4.990  19.371 -0.2959  0.3988 -0.1329
 1711BOLB   C3C41059  15.812   5.398  19.662  0.1751 -0.1222  0.0867
 1711BOLB   C4C41060  15.886   5.728  19.926 -0.0948 -0.1668 -0.1689
 1711BOLB   C1D41061  15.983   4.289  19.631 -0.1559 -0.1445 -0.1452
 1711BOLB   C2D41062  15.991   4.336  20.053 -0.0654 -0.4188  0.5620
 1711BOLB   C3D41063  15.909   4.495  20.494 -0.0214  0.3303  0.0538
 1711BOLB   C4D41064  15.843   4.953  20.520 -0.1381 -0.0720  0.3413
 1712BOLB   NC141065  10.940  18.494  24.468  0.4318  0.1120 -0.0549
 1712BOLB   PO141066  10.613  18.394  24.224 -0.2772  0.2046  0.1680
 1712BOLB   GL141067  10.278  18.215  23.899 -0.1601  0.0397 -0.4446
 1712BOLB   GL241068  10.059  18.027  24.011  0.0590  0.1907 -0.2861
 1712BOLB   C1A41069  10.121  18.456  23.666  0.5951 -0.4087 -0.2758
 1712BOLB   C2A41070   9.958  18.633  23.446  0.3023 -0.3250 -0.0839
 1712BOLB   C3A41071   9.592  18.934  23.381  0.0159 -0.0329  0.3115
 1712BOLB   C4A41072   9.387  19.233  23.570 -0.1688 -0.2102  0.0066
 1712BOLB   C1B41073   9.784  18.255  24.142 -0.1483 -0.1513  0.0448
 1712BOLB   C2B41074   9.648  18.741  23.947 -0.3401 -0.1591  0.0913
 1712BOLB   C3B41075   9.894  19.058  23.783  0.2355 -0.1948  0.1446
 1712BOLB   C4B41076   9.695  19.494  23.808  0.2071 -0.0134 -0.1377
 1712BOLB   NC241077   8.103  21.338  22.893  0.2496 -0.0528  0.2586
 1712BOLB   PO241078   8.072  20.915  22.695  0.3272  0.0218 -0.0606
 1712BOLB   GL341079   8.296  20.777  23.047 -0.4828 -0.1215  0.0590
 1712BOLB   GL441080   8.375  21.056  23.259  0.0627 -0.2367 -0.2987
 1712BOLB   C1C41081   8.646  20.477  23.361  0.0357 -0.2373  0.2436
 1712BOLB   C2C41082   8.858  20.250  23.563  0.3778  0.1835 -0.0821
 1712BOLB   C3C41083   9.028  19.932  23.739  0.0719  0.0610 -0.1255
 1712BOLB   C4C41084   9.226  19.594  23.508  0.1129  0.0740  0.0071
 1712BOLB   C1D41085   8.651  20.888  23.627  0.0224  0.0588  0.0517
 1712BOLB   C2D41086   8.884  20.706  23.791  0.2601  0.0152  0.4616
 1712BOLB   C3D41087   9.222  20.594  23.821  0.4363  0.1984  0.1320
 1712BOLB   C4D41088   9.424  20.235  23.922  0.1603 -0.1014 -0.2655
 1713BOLB   NC141089  23.243  10.441  34.201  0.2488  0.3800 -0.1893
 1713BOLB   PO141090  23.218  10.518  34.630 -0.0326 -0.0468  0.0260
 1713BOLB   GL141091  23.408  10.135  34.694 -0.2848 -0.0841 -0.1585
 1713BOLB   GL241092  23.737  10.325  34.739 -0.0969  0.0134 -0.0922
 1713BOLB   C1A41093  23.758   9.796  34.856  0.0034  0.1591  0.1490
 1713BOLB   C2A41094  24.090   9.648  35.006  0.0310 -0.3456  0.1007
 1713BOLB   C3A41095  24.479   9.583  35.162  0.1218 -0.0971  0.2291
 1713BOLB   C4A41096  24.869   9.628  35.371  0.1172 -0.0180  0.4192
 1713BOLB   C1B41097  24.106  10.153  35.015  0.0210 -0.3126  0.2059
 1713BOLB   C2B41098  24.599  10.080  35.076 -0.2891 -0.1441  0.2364
 1713BOLB   C3B41099  25.041  10.154  35.112 -0.0490 -0.0717  0.0648
 1713BOLB   C4B41100  25.544  10.100  35.095 -0.0067  0.1232 -0.0682
 1713BOLB   NC241101  27.009   9.748  36.285 -0.2078  0.3036  0.1728
 1713BOLB   PO241102  26.655   9.769  36.454  0.1932 -0.2211 -0.2717
 1713BOLB   GL341103  26.204   9.587  36.618 -0.1672  0.3847 -0.1205
 1713BOLB   GL441104  26.031   9.943  36.633 -0.1681 -0.0017  0.1420
 1713BOLB   C1C41105  25.895   9.428  36.422 -0.1413 -0.3128 -0.2792
 1713BOLB   C2C41106  25.788   9.480  35.993  0.2094 -0.3719  0.4391
 1713BOLB   C3C41107  25.545   9.523  35.698 -0.0833  0.0681  0.1097
 1713BOLB   C4C41108  25.245   9.729  35.491 -0.0501  0.1032 -0.0910
 1713BOLB   C1D41109  25.893   9.912  36.308  0.2872 -0.1133 -0.2306
 1713BOLB   C2D41110  25.900   9.907  35.864 -0.0237 -0.0817  0.1332
 1713BOLB   C3D41111  25.632  10.105  35.573 -0.2347 -0.2274 -0.2657
 1713BOLB   C4D41112  25.108  10.223  35.616  0.2202 -0.0560 -0.0113
 1714BOLB   NC141113  21.460   7.131  23.888 -0.1206  0.0823  0.2107
 1714BOLB   PO141114  21.286   7.536  23.860 -0.0899 -0.0595  0.0805
 1714BOLB   GL141115  21.478   7.467  23.498 -0.0468  0.2262  0.0174
 1714BOLB   GL241116  21.805   7.334  23.558  0.2027 -0.0638 -0.0953
 1714BOLB   C1A41117  21.413   7.149  23.111  0.2927  0.2800  0.1988
 1714BOLB   C2A41118  21.748   6.956  22.805 -0.2860 -0.0509  0.3981
 1714BOLB   C3A41119  21.928   6.666  22.480 -0.1302 -0.3196  0.1191
 1714BOLB   C4A41120  22.135   6.671  22.103 -0.0430  0.0351 -0.0387
 1714BOLB   C1B41121  21.788   6.933  23.405 -0.1016  0.2088  0.3173
 1714BOLB   C2B41122  21.846   6.578  23.248 -0.0055  0.2281  0.0415
 1714BOLB   C3B41123  21.952   6.145  23.229 -0.0646  0.0527 -0.1223
 1714BOLB   C4B41124  21.969   5.876  22.893 -0.4412 -0.0551 -0.2422
 1714BOLB   NC241125  23.393   5.451  20.396  0.2812  0.0115 -0.1270
 1714BOLB   PO241126  23.132   5.169  20.545  0.1556  0.2610 -0.1718
 1714BOLB   GL341127  22.820   5.505  20.730  0.1365 -0.3653 -0.4734
 1714BOLB   GL441128  23.117   5.609  20.853 -0.0085 -0.3142  0.2618
 1714BOLB   C1C41129  22.646   5.489  21.060 -0.0327 -0.1990  0.0137
 1714BOLB   C2C41130  22.673   5.800  21.369 -0.2018 -0.0632 -0.0078
 1714BOLB   C3C41131  22.617   6.146  21.572 -0.2597 -0.1810 -0.1656
 1714BOLB   C4C41132  22.424   6.545  21.784 -0.1234  0.1518 -0.0718
 1714BOLB   C1D41133  23.227   5.852  21.181  0.1290  0.3374 -0.3195
 1714BOLB   C2D41134  23.161   6.027  21.542  0.1857 -0.0007  0.3251
 1714BOLB   C3D41135  23.023   6.270  21.917  0.2234  0.1834  0.3184
 1714BOLB   C4D41136  22.699   6.196  22.183  0.0833 -0.0977  0.1867
 1715BOLB   NC141137   7.236   9.650  40.571 -0.1890 -0.0820 -0.0070
 1715BOLB   PO141138   7.136  10.018  40.200  0.0611  0.1765 -0.1581
 1715BOLB   GL141139   7.361  10.045  39.846  0.2544  0.0479 -0.0091
 1715BOLB   GL241140   7.515  10.410  39.824  0.0227 -0.2222 -0.2398
 1715BOLB   C1A41141   7.488  10.004  39.435  0.0177 -0.3288  0.0057
 1715BOLB   C2A41142   7.898  10.105  39.311  0.1746  0.0050 -0.0997
 1715BOLB   C3A41143   8.342  10.168  39.228  0.1590  0.0630  0.2664
 1715BOLB   C4A41144   8.778  10.216  39.416 -0.1132  0.2588  0.1958
 1715BOLB   C1B41145   7.578  10.499  39.444 -0.3108  0.0945 -0.2045
 1715BOLB   C2B41146   7.975  10.576  39.189  0.1581  0.1073 -0.0738
 1715BOLB   C3B41147   8.458  10.672  39.377  0.0340 -0.2709 -0.1142
 1715BOLB   C4B41148   8.795  10.661  39.091 -0.1755  0.1311  0.0013
 1715BOLB   NC241149   8.115   9.389  41.864 -0.0336  0.1623 -0.1061
 1715BOLB   PO241150   8.624   9.636  41.883  0.0076 -0.1773 -0.2085
 1715BOLB   GL341151   8.839   9.661  41.473  0.2459 -0.2296 -0.0480
 1715BOLB   GL441152   9.185   9.732  41.221 -0.0231  0.0442  0.0632
 1715BOLB   C1C41153   8.656   9.685  41.047 -0.0645  0.0805 -0.3772
 1715BOLB   C2C41154   8.929   9.693  40.685 -0.2477  0.0228 -0.0341
 1715BOLB   C3C41155   9.116  10.025  40.416  0.0346  0.0102 -0.1210
 1715BOLB   C4C41156   8.844  10.280  39.987  0.3792 -0.3127 -0.1942
 1715BOLB   C1D41157   9.381   9.712  40.817  0.2814  0.1357 -0.1451
 1715BOLB   C2D41158   9.634   9.765  40.539  0.3220 -0.2587 -0.0864
 1715BOLB   C3D41159   9.977   9.671  40.296 -0.2064  0.1065  0.1192
 1715BOLB   C4D41160  10.267   9.388  40.169  0.0329  0.0112 -0.0364
 1716BOLB   NC141161  15.571   5.321  23.895 -0.1693 -0.1590  0.0366
 1716BOLB   PO141162  15.144   5.552  24.053 -0.0230  0.1329  0.0311
 1716BOLB   GL141163  15.117   5.174  23.856 -0.1232 -0.3784  0.1356
 1716BOLB   GL241164  15.087   5.220  23.664  0.2760  0.0867 -0.2841
 1716BOLB   C1A41165  15.029   4.789  23.946  0.0484  0.0211  0.0241
 1716BOLB   C2A41166  15.007   4.359  23.889 -0.0143 -0.1139  0.0107
 1716BOLB   C3A41167  15.311   4.114  23.711  0.2720  0.2035 -0.0325
 1716BOLB   C4A41168  15.138   3.679  23.617  0.0302  0.0897 -0.0243
 1716BOLB   C1B41169  15.188   4.903  23.417 -0.3227 -0.2049  0.2588
 1716BOLB   C2B41170  14.995   4.451  23.317  0.0487 -0.1322  0.3213
 1716BOLB   C3B41171  14.714   4.138  23.323 -0.0068  0.2004  0.0970
 1716BOLB   C4B41172  14.320   3.970  23.384  0.3029  0.0640 -0.1034
 1716BOLB   NC241173  15.134   1.089  22.579  0.2939 -0.1970 -0.0480
 1716BOLB   PO241174  15.227   1.596  22.638  0.0200  0.0580 -0.1731
 1716BOLB   GL341175  15.253   1.815  23.024  0.0746  0.1976 -0.0964
 1716BOLB   GL441176  15.495   1.886  23.063  0.1692  0.3083 -0.2010
 1716BOLB   C1C41177  15.068   2.012  23.387 -0.0406 -0.1814  0.1914
 1716BOLB   C2C41178  15.158   2.442  23.498 -0.0536 -0.2524  0.2528
 1716BOLB   C3C41179  15.109   2.816  23.721  0.3209 -0.4638  0.1121
 1716BOLB   C4C41180  15.152   3.253  23.706 -0.0200 -0.2194 -0.4022
 1716BOLB   C1D41181  15.847   2.160  23.302 -0.1169  0.0569  0.1678
 1716BOLB   C2D41182  16.236   2.344  23.431  0.2832 -0.2280 -0.1572
 1716BOLB   C3D41183  16.130   2.707  23.474  0.1751  0.3295 -0.0165
 1716BOLB   C4D41184  16.113   3.128  23.457  0.2106  0.0281  0.1365
 1717BOLB   NC141185  13.912  10.350  39.558  0.3122 -0.1253 -0.0074
 1717BOLB   PO141186  13.715  10.833  39.683 -0.0053 -0.0519 -0.0958
 1717BOLB   GL141187  13.718  10.953  40.112  0.2911 -0.1504  0.1858
 1717BOLB   GL241188  13.506  11.157  40.149  0.2504  0.0750  0.0848
 1717BOLB   C1A41189  13.732  10.951  40.531 -0.1002 -0.0925 -0.3016
 1717BOLB   C2A41190  13.827  10.851  40.954 -0.1452  0.1768  0.0187
 1717BOLB   C3A41191  13.983  10.648  41.320 -0.0483 -0.1803  0.2103
 1717BOLB   C4A41192  13.748  10.594  41.633 -0.1326  0.1785 -0.0199
 1717BOLB   C1B41193  13.597  11.481  40.626 -0.0771  0.0507  0.2072
 1717BOLB   C2B41194  13.697  11.414  41.073  0.1559  0.0735 -0.1167
 1717BOLB   C3B41195  13.358  11.541  41.482  0.1801  0.2399  0.2032
 1717BOLB   C4B41196  13.031  11.703  41.853 -0.0307 -0.1545 -0.2384
 1717BOLB   NC241197  12.614   9.161  43.061 -0.1433  0.1063 -0.0705
 1717BOLB   PO241198  12.417   9.531  43.142  0.1731 -0.0221  0.2347
 1717BOLB   GL341199  12.608   9.684  42.821  0.0535  0.0992  0.3679
 1717BOLB   GL441200  12.573  10.025  42.837 -0.4478 -0.3759 -0.3270
 1717BOLB   C1C41201  12.882   9.819  42.527  0.0650 -0.0006  0.1037
 1717BOLB   C2C41202  12.864  10.037  42.163  0.0861  0.1261  0.1666
 1717BOLB   C3C41203  13.189  10.268  41.978 -0.1105 -0.1445 -0.2729
 1717BOLB   C4C41204  13.331  10.484  41.685 -0.2168 -0.1877  0.1212
 1717BOLB   C1D41205  12.476  10.151  42.447 -0.3084 -0.1644  0.0171
 1717BOLB   C2D41206  12.358  10.043  41.997 -0.0002 -0.1550 -0.1911
 1717BOLB   C3D41207  12.506  10.134  41.712 -0.2317  0.0617 -0.0688
 1717BOLB   C4D41208  12.880  10.176  41.516 -0.0848 -0.1474 -0.2166
 1718BOLB   NC141209   3.538  12.873  35.344  0.2885  0.1699  0.2065
 1718BOLB   PO141210   3.676  12.943  34.974 -0.0609 -0.2465 -0.0253
 1718BOLB   GL141211   4.047  12.695  34.939 -0.0178 -0.1317  0.0280
 1718BOLB   GL241212   4.236  12.941  34.731 -0.4052 -0.0760  0.0141
 1718BOLB   C1A41213   4.444  12.511  34.940  0.1826  0.3490 -0.3139
 1718BOLB   C2A41214   4.851  12.454  35.248  0.1711 -0.3905  0.0862
 1718BOLB   C3A41215   5.239  12.555  35.210  0.0460  0.2307  0.0207
 1718BOLB   C4A41216   5.636  12.616  35.214  0.0321  0.1564 -0.3219
 1718BOLB   C1B41217   4.635  12.911  34.547  0.2358  0.1044  0.1145
 1718BOLB   C2B41218   4.880  12.625  34.414 -0.1738 -0.1472 -0.2047
 1718BOLB   C3B41219   5.172  12.693  34.043  0.2497  0.0770  0.0063
 1718BOLB   C4B41220   5.469  12.587  33.723 -0.0861  0.2350 -0.0582
 1718BOLB   NC241221   4.407  13.944  35.728 -0.0718  0.1861  0.0611
 1718BOLB   PO241222   4.212  14.064  36.101 -0.2222  0.2385 -0.2302
 1718BOLB   GL341223   4.739  14.113  36.078  0.0844  0.2455  0.2620
 1718BOLB   GL441224   4.974  14.307  36.157 -0.0089 -0.0305  0.0690
 1718BOLB   C1C41225   5.025  13.811  35.999  0.1719  0.2956 -0.0632
 1718BOLB   C2C41226   5.348  13.668  35.739  0.6414  0.0024  0.3172
 1718BOLB   C3C41227   5.607  13.329  35.479  0.0374 -0.2049 -0.3601
 1718BOLB   C4C41228   5.784  12.964  35.351 -0.1067  0.4360 -0.0052
 1718BOLB   C1D41229   5.286  14.177  35.798 -0.0555 -0.4533  0.0195
 1718BOLB   C2D41230   5.778  13.916  35.767  0.0485 -0.0288  0.3450
 1718BOLB   C3D41231   5.956  13.738  35.361 -0.0567 -0.0828 -0.1524
 1718BOLB   C4D41232   6.153  13.787  34.995 -0.1201  0.1195 -0.1137
 1719BOLB   NC141233  16.498  23.630  20.650  0.1358 -0.0554  0.2253
 1719BOLB   PO141234  16.166  23.271  20.641  0.0058 -0.2953  0.1864
 1719BOLB   GL141235  16.078  22.793  20.718 -0.2282 -0.3443 -0.1998
 1719BOLB   GL241236  16.023  22.843  20.982  0.3635 -0.0454 -0.0571
 1719BOLB   C1A41237  15.863  22.441  20.779 -0.1316  0.2963  0.0652
 1719BOLB   C2A41238  15.787  22.141  21.143 -0.1215 -0.0524 -0.0186
 1719BOLB   C3A41239  16.025  21.842  21.366 -0.2602  0.1585  0.1538
 1719BOLB   C4A41240  16.025  21.973  21.770 -0.0476  0.0565  0.0763
 1719BOLB   C1B41241  16.191  22.396  21.208  0.4413  0.1390 -0.1651
 1719BOLB   C2B41242  16.494  22.304  21.425 -0.0488 -0.1340  0.3436
 1719BOLB   C3B41243  16.548  21.936  21.456 -0.2075 -0.0615  0.2469
 1719BOLB   C4B41244  16.280  21.550  21.688  0.0623 -0.0779  0.0813
 1719BOLB   NC241245  17.109  24.029  22.580 -0.2521 -0.2758 -0.1823
 1719BOLB   PO241246  17.417  24.022  22.321  0.2727  0.0666  0.0840
 1719BOLB   GL341247  17.251  23.633  22.227 -0.0653 -0.0146  0.1667
 1719BOLB   GL441248  17.364  23.420  22.518  0.1042  0.0452 -0.2846
 1719BOLB   C1C41249  16.958  23.351  22.240 -0.0934  0.1610  0.4894
 1719BOLB   C2C41250  16.628  22.988  22.240 -0.2321 -0.2055 -0.0796
 1719BOLB   C3C41251  16.588  22.527  22.159  0.1828  0.1868 -0.0368
 1719BOLB   C4C41252  16.358  22.211  21.915  0.1825  0.0407  0.0084
 1719BOLB   C1D41253  17.307  23.042  22.319 -0.1516  0.0253 -0.0738
 1719BOLB   C2D41254  17.060  22.793  22.344 -0.1762  0.2410  0.0706
 1719BOLB   C3D41255  16.943  22.368  22.446  0.3704  0.0795  0.1473
 1719BOLB   C4D41256  16.485  22.130  22.437 -0.2266 -0.1449 -0.0731
 1720BOLB   NC141257  11.688   5.697  30.149  0.2523 -0.2712  0.1509
 1720BOLB   PO141258  11.180   5.665  30.092 -0.1439  0.0474  0.0980
 1720BOLB   GL141259  10.975   5.254  30.025  0.1282 -0.1403  0.3148
 1720BOLB   GL241260  10.759   5.145  30.240  0.0725 -0.1159 -0.1177
 1720BOLB   C1A41261  10.779   4.923  29.729 -0.1323 -0.1925  0.0697
 1720BOLB   C2A41262  10.623   4.795  29.305 -0.0400 -0.1245 -0.1699
 1720BOLB   C3A41263  10.227   4.749  29.215 -0.1821  0.0937  0.0871
 1720BOLB   C4A41264   9.914   4.484  29.188 -0.1423 -0.1699 -0.1170
 1720BOLB   C1B41265  10.433   4.923  30.282  0.1203 -0.0785  0.1138
 1720BOLB   C2B41266  10.097   4.837  30.615  0.2167  0.0147  0.0406
 1720BOLB   C3B41267   9.812   4.565  30.738  0.2971 -0.1123 -0.0583
 1720BOLB   C4B41268   9.795   4.180  30.996  0.1005 -0.1175 -0.0524
 1720BOLB   NC241269   9.169   2.624  28.124 -0.1505  0.0602 -0.0942
 1720BOLB   PO241270   9.115   2.838  27.626 -0.0285 -0.3559 -0.4156
 1720BOLB   GL341271   9.222   3.090  27.903  0.2594 -0.4494 -0.2321
 1720BOLB   GL441272   9.548   3.021  28.085 -0.2712  0.0639  0.2026
 1720BOLB   C1C41273   9.507   3.456  27.934 -0.3042 -0.2375  0.3736
 1720BOLB   C2C41274   9.736   3.869  27.994 -0.1111 -0.0999 -0.2026
 1720BOLB   C3C41275   9.732   4.259  28.306 -0.1094 -0.3191  0.1018
 1720BOLB   C4C41276   9.764   4.425  28.772  0.1836 -0.0257  0.0523
 1720BOLB   C1D41277  10.028   3.267  28.145 -0.0334 -0.2445  0.0584
 1720BOLB   C2D41278  10.332   3.444  28.364 -0.4291  0.1068 -0.0168
 1720BOLB   C3D41279  10.548   3.841  28.506  0.1056  0.0210 -0.2974
 1720BOLB   C4D41280  10.727   4.288  28.420 -0.0938  0.0001 -0.5113
 1721BOLB   NC141281   4.796  17.393  34.899  0.0873  0.0969 -0.4260
 1721BOLB   PO141282   4.597  17.202  35.230  0.0138  0.0537 -0.1499
 1721BOLB   GL141283   4.631  16.822  35.032 -0.0950 -0.0686  0.2495
 1721BOLB   GL241284   4.745  16.922  34.729  0.3247  0.2768  0.0077
 1721BOLB   C1A41285   4.985  16.540  35.050 -0.0898 -0.2736  0.0963
 1721BOLB   C2A41286   5.272  16.325  34.937 -0.1164 -0.0780  0.1165
 1721BOLB   C3A41287   5.651  16.267  34.949 -0.3584 -0.0456 -0.1249
 1721BOLB   C4A41288   5.925  15.953  35.074  0.0640  0.0432 -0.3441
 1721BOLB   C1B41289   5.170  16.624  34.566  0.1038 -0.4079 -0.1888
 1721BOLB   C2B41290   5.583  16.618  34.551 -0.0984  0.0460 -0.2264
 1721BOLB   C3B41291   5.836  16.761  34.135  0.3841  0.0807  0.1406
 1721BOLB   C4B41292   5.534  16.987  33.779 -0.0452  0.0209  0.2103
 1721BOLB   NC241293   5.098  15.835  36.544 -0.3853  0.1369  0.1613
 1721BOLB   PO241294   4.884  15.856  36.151 -0.0323 -0.4155  0.1508
 1721BOLB   GL341295   5.314  15.642  36.130 -0.1108 -0.3563 -0.2090
 1721BOLB   GL441296   5.316  15.928  35.887 -0.0681 -0.0840 -0.1931
 1721BOLB   C1C41297   5.655  15.403  36.085  0.2615 -0.2463 -0.1479
 1721BOLB   C2C41298   6.030  15.323  35.944  0.0258  0.1183 -0.0698
 1721BOLB   C3C41299   6.282  15.550  35.669  0.3762  0.3810  0.1338
 1721BOLB   C4C41300   6.324  15.731  35.294  0.1312 -0.0776  0.2345
 1721BOLB   C1D41301   5.483  16.326  35.788  0.0141  0.2625 -0.1342
 1721BOLB   C2D41302   5.883  16.488  36.015  0.1582 -0.0420 -0.1532
 1721BOLB   C3D41303   6.274  16.318  36.078 -0.1197 -0.1216 -0.1004
 1721BOLB   C4D41304   6.436  16.178  36.481  0.2212 -0.2108  0.2053
 1722BOLB   NC141305  18.498  19.247  26.975  0.2019  0.0506  0.0590
 1722BOLB   PO141306  18.211  19.554  26.829 -0.2055 -0.0610 -0.0117
 1722BOLB   GL141307  18.107  19.964  26.919  0.0306  0.2221 -0.0242
 1722BOLB   GL241308  18.040  20.121  26.648 -0.1992 -0.0445  0.0488
 1722BOLB   C1A41309  18.294  20.306  27.029  0.1485 -0.1065 -0.4527
 1722BOLB   C2A41310  18.542  20.639  26.957  0.1665 -0.0357  0.1282
 1722BOLB   C3A41311  18.473  21.029  26.883  0.0832 -0.5395 -0.2688
 1722BOLB   C4A41312  18.347  21.473  26.743 -0.1047 -0.0903 -0.2713
 1722BOLB   C1B41313  18.273  20.425  26.415 -0.0296 -0.0072 -0.0193
 1722BOLB   C2B41314  18.613  20.827  26.362 -0.0302  0.0625 -0.1289
 1722BOLB   C3B41315  18.447  21.213  26.327 -0.4234 -0.0293 -0.2291
 1722BOLB   C4B41316  18.746  21.624  26.205  0.0467 -0.0655  0.0521
 1722BOLB   NC241317  19.238  23.911  26.462  0.1285 -0.3202  0.0798
 1722BOLB   PO241318  19.103  23.792  26.126  0.4012 -0.1522 -0.3735
 1722BOLB   GL341319  18.902  23.469  26.256  0.1444 -0.0318  0.0901
 1722BOLB   GL441320  18.869  23.547  26.572  0.0642 -0.2351 -0.2861
 1722BOLB   C1C41321  18.801  23.026  26.209  0.0028 -0.1731  0.0447
 1722BOLB   C2C41322  18.601  22.707  26.346  0.0377  0.2372  0.0730
 1722BOLB   C3C41323  18.509  22.229  26.492  0.2880  0.0084 -0.1022
 1722BOLB   C4C41324  18.292  21.888  26.549  0.0220  0.0835 -0.0498
 1722BOLB   C1D41325  18.567  23.196  26.673  0.3434  0.2328  0.0160
 1722BOLB   C2D41326  18.355  22.846  26.738 -0.0590 -0.2081 -0.0127
 1722BOLB   C3D41327  18.191  22.445  26.851 -0.0541 -0.2322 -0.0043
 1722BOLB   C4D41328  18.335  22.163  27.143  0.1923 -0.1888  0.2996
 1723BOLB   NC141329   9.399  16.179  35.054  0.2419 -0.1392  0.0821
 1723BOLB   PO141330   9.269  16.145  35.469  0.1117  0.2237  0.2168
 1723BOLB   GL141331   8.833  16.112  35.657  0.0820  0.1104 -0.0833
 1723BOLB   GL241332   8.781  16.467  35.609 -0.2317  0.1769  0.1540
 1723BOLB   C1A41333   8.422  16.212  35.708  0.2095  0.0496  0.2214
 1723BOLB   C2A41334   8.076  16.293  35.890 -0.0204 -0.0351  0.1884
 1723BOLB   C3A41335   7.870  16.587  36.104  0.4620  0.1630 -0.0837
 1723BOLB   C4A41336   7.681  17.008  35.881  0.2083  0.1026  0.3048
 1723BOLB   C1B41337   8.662  16.582  36.010  0.0138  0.0798  0.1880
 1723BOLB   C2B41338   8.365  16.522  36.307  0.1302  0.2471 -0.2690
 1723BOLB   C3B41339   7.998  16.720  36.553  0.1825 -0.1814 -0.1212
 1723BOLB   C4B41340   7.847  16.906  37.002 -0.3658  0.0083  0.0647
 1723BOLB   NC241341   5.828  17.978  37.173 -0.1522 -0.1454  0.1008
 1723BOLB   PO241342   6.050  17.754  37.446  0.0070  0.3265 -0.1755
 1723BOLB   GL341343   6.188  17.630  37.069  0.3745 -0.1683 -0.1041
 1723BOLB   GL441344   6.014  17.730  36.822  0.0759  0.1461 -0.0049
 1723BOLB   C1C41345   6.564  17.705  36.696 -0.2197  0.0768 -0.1400
 1723BOLB   C2C41346   6.847  17.626  36.286 -0.0015 -0.0251 -0.0180
 1723BOLB   C3C41347   7.101  17.513  35.957  0.2239  0.2087  0.1690
 1723BOLB   C4C41348   7.555  17.406  35.911 -0.0405 -0.1151 -0.2013
 1723BOLB   C1D41349   6.163  17.243  36.792 -0.0417 -0.2449 -0.0416
 1723BOLB   C2D41350   6.660  17.176  36.884  0.0148 -0.0144  0.2860
 1723BOLB   C3D41351   7.011  17.370  37.074  0.1175  0.0363 -0.0145
 1723BOLB   C4D41352   7.478  17.187  36.977  0.2363  0.2669  0.0105
 1724BOLB   NC141353  15.817   6.021  35.644  0.2686 -0.1296  0.2679
 1724BOLB   PO141354  15.456   5.839  35.499  0.3399 -0.1990 -0.0585
 1724BOLB   GL141355  15.229   5.483  35.708 -0.0265 -0.2452  0.0744
 1724BOLB   GL241356  15.088   5.555  36.030  0.0032  0.2230  0.2466
 1724BOLB   C1A41357  14.983   5.120  35.892  0.2180 -0.1354  0.2622
 1724BOLB   C2A41358  14.977   4.711  35.974  0.4175  0.2472 -0.4242
 1724BOLB   C3A41359  15.289   4.267  36.034 -0.0428 -0.2100 -0.1733
 1724BOLB   C4A41360  15.314   3.889  36.301 -0.1359 -0.1700 -0.0033
 1724BOLB   C1B41361  14.962   5.306  36.376  0.3280  0.2902 -0.0188
 1724BOLB   C2B41362  15.125   4.972  36.501  0.0647  0.1334  0.2015
 1724BOLB   C3B41363  14.903   4.546  36.422  0.0851  0.1689 -0.1761
 1724BOLB   C4B41364  14.705   4.190  36.192 -0.0919  0.0087 -0.2721
 1724BOLB   NC241365  14.137   1.974  37.986 -0.2170  0.0352 -0.0216
 1724BOLB   PO241366  14.010   2.079  37.617 -0.1816  0.0276  0.1035
 1724BOLB   GL341367  14.200   2.477  37.367  0.2331 -0.0603  0.1118
 1724BOLB   GL441368  14.235   2.766  37.548  0.0739  0.0314  0.3660
 1724BOLB   C1C41369  14.157   2.889  37.081  0.0959  0.0726 -0.3031
 1724BOLB   C2C41370  14.487   3.178  36.907 -0.1402 -0.3868 -0.2363
 1724BOLB   C3C41371  14.765   3.388  36.585  0.3125 -0.0871 -0.0279
 1724BOLB   C4C41372  15.068   3.590  36.509  0.1437  0.0917  0.3939
 1724BOLB   C1D41373  14.675   2.951  37.348 -0.0528  0.0296 -0.1417
 1724BOLB   C2D41374  14.866   3.284  37.246  0.3494  0.0198 -0.0061
 1724BOLB   C3D41375  15.147   3.651  37.112 -0.0865 -0.5506  0.0750
 1724BOLB   C4D41376  15.398   3.706  36.791 -0.1217 -0.1827  0.0667
 1725BOLB   NC141377  21.720  16.389  35.110 -0.1766 -0.0596  0.1672
 1725BOLB   PO141378  21.502  16.652  34.763 -0.0880 -0.0850  0.2603
 1725BOLB   GL141379  21.989  16.783  34.878  0.1091  0.1516  0.0595
 1725BOLB   GL241380  22.060  16.810  35.140 -0.0891 -0.3619 -0.0984
 1725BOLB   C1A41381  22.513  16.908  34.756 -0.0062  0.1606  0.0390
 1725BOLB   C2A41382  22.663  17.306  34.690 -0.0002  0.0810 -0.1867
 1725BOLB   C3A41383  23.038  17.476  34.407  0.0822  0.0585  0.2328
 1725BOLB   C4A41384  23.457  17.474  34.183 -0.1641  0.0239 -0.1329
 1725BOLB   C1B41385  22.363  17.149  35.234 -0.1802 -0.2087 -0.4211
 1725BOLB   C2B41386  22.622  17.426  35.159  0.0620  0.0108 -0.1345
 1725BOLB   C3B41387  22.979  17.641  34.868  0.0743 -0.2676 -0.0570
 1725BOLB   C4B41388  23.311  17.500  34.833  0.0095 -0.0997  0.0914
 1725BOLB   NC241389  25.221  19.523  34.110 -0.3782  0.3698 -0.3229
 1725BOLB   PO241390  25.372  19.102  34.019 -0.1362 -0.1907 -0.1673
 1725BOLB   GL341391  25.062  18.914  33.961 -0.2241  0.1298 -0.1940
 1725BOLB   GL441392  24.809  18.912  33.716 -0.1209  0.0384 -0.1482
 1725BOLB   C1C41393  24.908  18.434  34.016 -0.2755  0.0935  0.2544
 1725BOLB   C2C41394  24.663  18.052  34.012 -0.5585  0.0908  0.0520
 1725BOLB   C3C41395  24.388  17.791  34.153 -0.1397 -0.0771 -0.0103
 1725BOLB   C4C41396  23.796  17.740  34.170  0.1184 -0.3400  0.0844
 1725BOLB   C1D41397  24.436  18.685  33.738 -0.2149 -0.3075  0.3177
 1725BOLB   C2D41398  24.288  18.384  33.871  0.0062 -0.4705  0.1477
 1725BOLB   C3D41399  23.987  18.087  33.878 -0.0903 -0.2721  0.1021
 1725BOLB   C4D41400  23.816  17.640  33.684 -0.0388  0.0385  0.1327
 1726BOLB   NC141401  12.808  17.469  17.090 -0.1058  0.1721  0.1947
 1726BOLB   PO141402  13.221  17.310  17.151  0.2277 -0.4138 -0.3127
 1726BOLB   GL141403  13.308  17.162  17.453 -0.4244 -0.2398  0.3383
 1726BOLB   GL241404  13.149  16.806  17.526 -0.0486  0.1572  0.1186
 1726BOLB   C1A41405  13.409  17.313  17.851 -0.2032 -0.2750  0.1703
 1726BOLB   C2A41406  13.547  17.234  18.215  0.2745  0.0165 -0.0281
 1726BOLB   C3A41407  13.487  16.866  18.435  0.2950 -0.0300  0.1668
 1726BOLB   C4A41408  13.164  16.548  18.579 -0.3797 -0.4418 -0.0771
 1726BOLB   C1B41409  13.616  16.638  17.521  0.0201 -0.0453  0.0099
 1726BOLB   C2B41410  13.931  16.598  17.895 -0.0603  0.0545 -0.0403
 1726BOLB   C3B41411  13.977  16.817  18.221 -0.1917  0.0145  0.1856
 1726BOLB   C4B41412  14.128  16.781  18.558 -0.0690  0.0915 -0.0836
 1726BOLB   NC241413  12.017  16.908  16.556  0.1411 -0.2733  0.1351
 1726BOLB   PO241414  11.985  16.529  16.833  0.0253 -0.0421 -0.2240
 1726BOLB   GL341415  12.134  16.349  17.288 -0.0105  0.0387  0.0477
 1726BOLB   GL441416  12.190  15.905  17.243  0.7051  0.3355  0.2343
 1726BOLB   C1C41417  12.345  16.144  17.662  0.0905  0.0729 -0.0184
 1726BOLB   C2C41418  12.254  16.162  18.156 -0.3271 -0.0433 -0.0486
 1726BOLB   C3C41419  12.555  15.967  18.354  0.1203 -0.2298  0.0450
 1726BOLB   C4C41420  12.889  16.172  18.628 -0.1646 -0.1672  0.0243
 1726BOLB   C1D41421  12.615  15.760  17.321  0.1069 -0.1919  0.1666
 1726BOLB   C2D41422  12.919  15.465  17.457  0.3497 -0.0663 -0.3710
 1726BOLB   C3D41423  13.061  15.332  17.917 -0.0661 -0.1510  0.2899
 1726BOLB   C4D41424  13.239  15.237  18.330  0.0940  0.1718  0.3581
 1727BOLB   NC141425  11.153   5.727  27.793 -0.1420  0.0962  0.4904
 1727BOLB   PO141426  11.315   5.727  28.236  0.0358  0.0127  0.0991
 1727BOLB   GL141427  10.864   5.559  28.189  0.2193 -0.2458 -0.4908
 1727BOLB   GL241428  10.562   5.515  27.898 -0.1057 -0.0422 -0.0127
 1727BOLB   C1A41429  10.611   5.342  28.339 -0.1036 -0.1769 -0.0601
 1727BOLB   C2A41430  10.324   5.107  28.403 -0.0529 -0.1547  0.4583
 1727BOLB   C3A41431   9.949   4.916  28.234  0.2766 -0.4616  0.2586
 1727BOLB   C4A41432   9.504   4.749  28.402  0.1463 -0.2295  0.1768
 1727BOLB   C1B41433  10.273   5.195  27.868  0.1188  0.1866  0.2119
 1727BOLB   C2B41434  10.213   4.709  27.689 -0.1826  0.0973 -0.0097
 1727BOLB   C3B41435  10.082   4.480  27.349 -0.1616  0.0341 -0.0879
 1727BOLB   C4B41436  10.029   4.219  26.999 -0.1064  0.0607  0.1529
 1727BOLB   NC241437   8.604   2.602  28.841  0.0143  0.0399  0.1034
 1727BOLB   PO241438   8.676   2.699  28.366 -0.0405  0.0944  0.0159
 1727BOLB   GL341439   9.026   2.959  28.597  0.4488  0.0959  0.0883
 1727BOLB   GL441440   9.235   3.080  28.415 -0.0374 -0.0730  0.0127
 1727BOLB   C1C41441   9.166   3.230  28.938 -0.0733  0.3347 -0.5736
 1727BOLB   C2C41442   9.322   3.688  28.965  0.1342  0.2000  0.0584
 1727BOLB   C3C41443   9.509   4.002  28.799 -0.0953  0.0604 -0.1688
 1727BOLB   C4C41444   9.297   4.414  28.688 -0.0442  0.2341 -0.1185
 1727BOLB   C1D41445   9.640   3.292  28.505  0.1079  0.1880  0.1182
 1727BOLB   C2D41446   9.784   3.627  28.414 -0.1279  0.1092 -0.1425
 1727BOLB   C3D41447   9.989   3.918  28.679 -0.2458 -0.2932 -0.4598
 1727BOLB   C4D41448  10.274   4.268  28.856  0.0716 -0.4900 -0.5603
 1728BOLB   NC141449  25.194   9.886  38.717 -0.0130  0.0545  0.1552
 1728BOLB   PO141450  25.526  10.120  38.508  0.3949  0.3288  0.1017
 1728BOLB   GL141451  25.105  10.321  38.270 -0.2277  0.0454  0.1355
 1728BOLB   GL241452  25.004  10.656  38.169 -0.4314 -0.0239 -0.0157
 1728BOLB   C1A41453  24.716  10.345  38.493 -0.2237  0.2286  0.3441
 1728BOLB   C2A41454  24.265  10.498  38.442  0.1566  0.3329  0.1176
 1728BOLB   C3A41455  24.055  10.755  38.182  0.0437  0.1456 -0.0837
 1728BOLB   C4A41456  23.998  11.188  38.175  0.0067  0.2905  0.1584
 1728BOLB   C1B41457  24.860  10.857  37.758  0.1292  0.1104  0.0888
 1728BOLB   C2B41458  24.831  11.265  37.573 -0.2128 -0.3663 -0.0946
 1728BOLB   C3B41459  24.416  11.532  37.394 -0.0181  0.4109 -0.0799
 1728BOLB   C4B41460  24.250  11.483  37.051 -0.0863 -0.1774 -0.0255
 1728BOLB   NC241461  25.735  12.267  39.684  0.0517 -0.1078  0.2230
 1728BOLB   PO241462  25.472  12.550  39.286 -0.1684  0.0692 -0.0088
 1728BOLB   GL341463  25.107  12.522  39.059  0.2261  0.0249 -0.0456
 1728BOLB   GL441464  25.104  12.225  38.910  0.3344  0.2590 -0.2039
 1728BOLB   C1C41465  24.714  12.648  38.823 -0.2286  0.2182 -0.2803
 1728BOLB   C2C41466  24.423  12.344  38.575  0.0598 -0.1440 -0.0726
 1728BOLB   C3C41467  24.113  12.053  38.469  0.0544 -0.2918  0.0402
 1728BOLB   C4C41468  24.052  11.571  38.434 -0.3173  0.1887  0.2201
 1728BOLB   C1D41469  24.844  12.079  38.534 -0.0521  0.2293 -0.2064
 1728BOLB   C2D41470  24.647  11.997  38.148 -0.0539 -0.2208 -0.0546
 1728BOLB   C3D41471  24.533  12.096  37.757 -0.0337  0.0534  0.1825
 1728BOLB   C4D41472  24.077  12.200  37.579  0.0067 -0.1573 -0.1939
 1729BOLB   NC141473   6.731  22.392  27.823  0.1461  0.0422  0.0365
 1729BOLB   PO141474   7.196  22.230  27.888 -0.0122  0.0091  0.4151
 1729BOLB   GL141475   7.493  22.187  28.071 -0.0323 -0.1440  0.1471
 1729BOLB   GL241476   7.535  21.857  28.052  0.0869  0.1097  0.0936
 1729BOLB   C1A41477   7.926  22.252  28.117 -0.0956  0.0255 -0.1944
 1729BOLB   C2A41478   8.266  21.991  27.985 -0.0695 -0.0457  0.0402
 1729BOLB   C3A41479   8.496  21.749  27.966  0.0765 -0.4906  0.0467
 1729BOLB   C4A41480   8.540  21.304  27.944 -0.1078 -0.1142 -0.1022
 1729BOLB   C1B41481   7.903  21.659  28.099 -0.0702  0.2204 -0.3654
 1729BOLB   C2B41482   8.042  21.208  28.025  0.0843  0.0842  0.1252
 1729BOLB   C3B41483   7.976  20.762  28.050 -0.2746  0.0531 -0.0219
 1729BOLB   C4B41484   7.934  20.410  28.412  0.1815  0.1774 -0.0250
 1729BOLB   NC241485   6.827  21.736  25.973  0.2492  0.0026  0.3224
 1729BOLB   PO241486   6.828  21.410  26.334 -0.0668  0.0223 -0.0390
 1729BOLB   GL341487   7.046  21.172  26.592 -0.2547  0.0619  0.0377
 1729BOLB   GL441488   6.974  20.846  26.559 -0.1610  0.1000  0.0821
 1729BOLB   C1C41489   7.327  21.109  26.962  0.1254 -0.1092 -0.0815
 1729BOLB   C2C41490   7.656  20.965  27.118  0.1901  0.0725 -0.1810
 1729BOLB   C3C41491   7.879  20.994  27.531  0.2776 -0.2054 -0.1187
 1729BOLB   C4C41492   8.393  21.032  27.667  0.0272 -0.2013 -0.3178
 1729BOLB   C1D41493   7.310  20.628  26.621  0.1892 -0.0654  0.2055
 1729BOLB   C2D41494   7.735  20.383  26.620 -0.0191  0.2612 -0.0674
 1729BOLB   C3D41495   8.097  20.119  26.592 -0.1392 -0.1148 -0.0794
 1729BOLB   C4D41496   8.279  19.825  26.312 -0.2780  0.2302  0.0786
 1730BOLB   NC141497   9.286  18.997  31.411 -0.1613  0.2492  0.1239
 1730BOLB   PO141498   9.268  19.111  30.936  0.0838 -0.0237  0.0641
 1730BOLB   GL141499   9.114  19.540  31.143  0.0061 -0.0722 -0.0834
 1730BOLB   GL241500   9.104  19.600  31.436 -0.0810  0.0692 -0.1029
 1730BOLB   C1A41501   8.713  19.879  31.210 -0.1992 -0.2135 -0.0256
 1730BOLB   C2A41502   8.370  20.101  31.454  0.2466  0.2083 -0.4207
 1730BOLB   C3A41503   8.125  20.476  31.463  0.0400  0.0566  0.2778
 1730BOLB   C4A41504   7.759  20.743  31.423  0.0697 -0.2047 -0.0055
 1730BOLB   C1B41505   8.985  19.970  31.636  0.3618 -0.3219  0.1784
 1730BOLB   C2B41506   8.668  20.340  31.690 -0.5261 -0.1447 -0.1128
 1730BOLB   C3B41507   8.460  20.641  31.784 -0.0826 -0.0910 -0.3333
 1730BOLB   C4B41508   8.212  20.923  32.066  0.0305  0.0027 -0.1626
 1730BOLB   NC241509   6.966  22.841  32.262 -0.1965 -0.1693 -0.0291
 1730BOLB   PO241510   6.668  22.566  32.304  0.0309  0.1473 -0.1226
 1730BOLB   GL341511   6.895  22.198  32.327  0.1584 -0.0857 -0.1491
 1730BOLB   GL441512   7.237  22.397  32.358 -0.0131 -0.1709  0.0272
 1730BOLB   C1C41513   7.058  21.820  32.145  0.0632 -0.0914 -0.2870
 1730BOLB   C2C41514   7.049  21.530  31.849 -0.2388  0.0657 -0.0032
 1730BOLB   C3C41515   7.321  21.237  31.622 -0.2742 -0.0489  0.1054
 1730BOLB   C4C41516   7.496  21.065  31.429  0.0640  0.2077 -0.1387
 1730BOLB   C1D41517   7.475  22.052  32.442 -0.0525  0.1585 -0.1483
 1730BOLB   C2D41518   7.799  21.754  32.542  0.0652 -0.1094  0.0437
 1730BOLB   C3D41519   8.225  21.516  32.483 -0.0312 -0.0708 -0.0172
 1730BOLB   C4D41520   8.472  21.107  32.652 -0.0598 -0.2882  0.1590
 1731BOLB   NC141521  16.347  12.519  40.039  0.2330  0.5949  0.0356
 1731BOLB   PO141522  16.737  12.705  40.254  0.1272 -0.0504  0.0899
 1731BOLB   GL141523  17.158  12.651  40.402 -0.0148  0.1583 -0.3152
 1731BOLB   GL241524  17.390  12.703  40.267 -0.0387 -0.1413  0.0667
 1731BOLB   C1A41525  17.337  12.532  40.746 -0.1381  0.3341  0.1975
 1731BOLB   C2A41526  17.636  12.661  41.096 -0.2308  0.3202  0.0793
 1731BOLB   C3A41527  17.436  12.383  41.461 -0.1774  0.1549  0.3485
 1731BOLB   C4A41528  17.555  12.073  41.824 -0.1504 -0.0748 -0.0022
 1731BOLB   C1B41529  17.781  12.607  40.647 -0.3432 -0.4050  0.1560
 1731BOLB   C2B41530  18.069  12.376  40.926  0.1173 -0.1556  0.2023
 1731BOLB   C3B41531  18.405  12.335  41.185 -0.2261  0.0140  0.0424
 1731BOLB   C4B41532  18.884  12.196  41.083 -0.0565 -0.1847  0.1720
 1731BOLB   NC241533  18.259  11.635  43.958  0.0457 -0.0722 -0.2111
 1731BOLB   PO241534  18.178  11.346  43.690 -0.2362  0.0871 -0.2601
 1731BOLB   GL341535  17.927  11.455  43.351  0.0408 -0.1251  0.1893
 1731BOLB   GL441536  17.569  11.527  43.331 -0.1569  0.0217  0.0428
 1731BOLB   C1C41537  18.115  11.568  42.991 -0.0829 -0.1147  0.3148
 1731BOLB   C2C41538  18.278  11.761  42.547  0.1454  0.2971  0.1991
 1731BOLB   C3C41539  18.075  12.058  42.315  0.0793 -0.0371  0.0636
 1731BOLB   C4C41540  17.764  12.215  42.165 -0.1895  0.0789 -0.0156
 1731BOLB   C1D41541  17.379  11.425  43.024 -0.0507  0.2255  0.3134
 1731BOLB   C2D41542  17.059  11.568  42.748  0.0907  0.0585 -0.0974
 1731BOLB   C3D41543  16.762  11.474  42.415  0.0114  0.1574 -0.1795
 1731BOLB   C4D41544  16.867  11.426  42.022  0.0207  0.2783  0.3717
 1732BOLB   NC141545  12.271  12.549  39.408 -0.0085  0.0672  0.0923
 1732BOLB   PO141546  11.896  12.517  39.253 -0.0495  0.0026 -0.0916
 1732BOLB   GL141547  11.641  12.573  39.599  0.2283  0.3362  0.0294
 1732BOLB   GL241548  11.791  12.753  39.737  0.0839  0.0893  0.0567
 1732BOLB   C1A41549  11.251  12.639  39.876  0.1854 -0.0235  0.1440
 1732BOLB   C2A41550  10.848  12.731  39.961 -0.0321 -0.0595  0.0004
 1732BOLB   C3A41551  10.367  12.621  40.017 -0.0191 -0.0352  0.0740
 1732BOLB   C4A41552  10.097  12.475  40.295  0.0436 -0.2565  0.3895
 1732BOLB   C1B41553  11.822  12.719  40.158 -0.0117  0.0016  0.0051
 1732BOLB   C2B41554  11.913  12.536  40.550 -0.2883  0.1716  0.0297
 1732BOLB   C3B41555  12.214  12.261  40.730  0.1194  0.1186  0.0622
 1732BOLB   C4B41556  12.532  12.054  40.713  0.1568 -0.0847 -0.1508
 1732BOLB   NC241557   9.322  13.251  42.494  0.1389 -0.1982  0.1341
 1732BOLB   PO241558   9.204  12.805  42.248 -0.0470 -0.0307 -0.1974
 1732BOLB   GL341559   9.344  12.504  42.021 -0.0084  0.2497 -0.0672
 1732BOLB   GL441560   9.624  12.543  42.137  0.0742 -0.1689  0.5344
 1732BOLB   C1C41561   9.255  12.353  41.678 -0.0800  0.3432  0.1396
 1732BOLB   C2C41562   9.429  12.418  41.286  0.0348  0.1998 -0.1141
 1732BOLB   C3C41563   9.639  12.532  40.954  0.0743  0.1557 -0.0836
 1732BOLB   C4C41564   9.751  12.468  40.535 -0.0530 -0.2297 -0.1379
 1732BOLB   C1D41565   9.761  12.474  41.786  0.1995  0.1613 -0.2113
 1732BOLB   C2D41566   9.897  12.574  41.420 -0.1968 -0.0771  0.1515
 1732BOLB   C3D41567  10.183  12.471  41.127 -0.1434  0.0230  0.2425
 1732BOLB   C4D41568  10.395  12.532  40.722  0.3610 -0.1435  0.0258
 1733BOLB   NC141569  19.967   3.756  39.975 -0.0367 -0.1203 -0.3954
 1733BOLB   PO141570  20.122   3.996  39.771  0.0860  0.1007 -0.1279
 1733BOLB   GL141571  20.212   4.190  39.401  0.0611 -0.4047 -0.0362
 1733BOLB   GL241572  20.384   4.451  39.545 -0.1684 -0.1245  0.1048
 1733BOLB   C1A41573  19.874   4.192  39.197  0.1086  0.1715 -0.2006
 1733BOLB   C2A41574  19.549   4.225  38.867 -0.1587 -0.3288  0.3124
 1733BOLB   C3A41575  19.210   4.366  38.834  0.1926  0.3014  0.4009
 1733BOLB   C4A41576  18.816   4.470  38.676 -0.0562 -0.0360 -0.0508
 1733BOLB   C1B41577  20.160   4.591  39.163 -0.1354  0.1120 -0.2659
 1733BOLB   C2B41578  20.240   4.881  38.814 -0.3011 -0.0415 -0.0422
 1733BOLB   C3B41579  19.995   5.155  38.438  0.0500  0.1860 -0.2049
 1733BOLB   C4B41580  19.952   5.563  38.054  0.2569 -0.0976  0.0728
 1733BOLB   NC241581  17.854   4.021  40.095 -0.0902 -0.2871 -0.0220
 1733BOLB   PO241582  17.429   4.023  39.901 -0.0682 -0.4395 -0.1575
 1733BOLB   GL341583  17.460   4.295  39.549 -0.1846  0.2204  0.2832
 1733BOLB   GL441584  17.578   4.116  39.266 -0.1462 -0.2890 -0.0368
 1733BOLB   C1C41585  17.517   4.634  39.164 -0.0666  0.1761 -0.4143
 1733BOLB   C2C41586  17.781   4.766  38.764  0.2202 -0.1227  0.0829
 1733BOLB   C3C41587  18.087   4.825  38.675 -0.2470  0.0948 -0.2633
 1733BOLB   C4C41588  18.430   4.565  38.582 -0.0099 -0.0894  0.0610
 1733BOLB   C1D41589  17.771   4.222  38.879 -0.0481 -0.4101 -0.1558
 1733BOLB   C2D41590  17.843   4.207  38.467 -0.2568  0.0001  0.5434
 1733BOLB   C3D41591  18.132   4.371  38.201  0.0293  0.2164 -0.0691
 1733BOLB   C4D41592  18.161   4.725  38.106  0.0071 -0.1849  0.2999
 1734BOLB   NC141593  14.769   6.219  22.881 -0.1961 -0.0306  0.0797
 1734BOLB   PO141594  14.969   6.577  22.691  0.1596 -0.2521  0.0016
 1734BOLB   GL141595  14.970   6.216  22.414 -0.0487  0.0174 -0.0422
 1734BOLB   GL241596  14.852   6.414  22.228 -0.0271  0.0516 -0.1002
 1734BOLB   C1A41597  14.927   5.924  22.205  0.0567 -0.0924  0.3757
 1734BOLB   C2A41598  14.863   5.586  21.808 -0.1538  0.0905 -0.0951
 1734BOLB   C3A41599  15.019   5.284  21.488 -0.0612  0.1186  0.0775
 1734BOLB   C4A41600  15.015   5.000  21.010  0.2415 -0.1514 -0.0966
 1734BOLB   C1B41601  14.538   6.265  21.991 -0.1183 -0.2734  0.0990
 1734BOLB   C2B41602  14.091   6.086  21.920  0.2381  0.0938  0.2692
 1734BOLB   C3B41603  13.744   6.029  21.668  0.1795  0.0896  0.0975
 1734BOLB   C4B41604  13.412   6.039  21.237  0.2534  0.1339  0.0183
 1734BOLB   NC241605  13.229   3.193  19.853  0.0988  0.0179 -0.1870
 1734BOLB   PO241606  13.165   3.543  20.132  0.0517 -0.0024 -0.1087
 1734BOLB   GL341607  13.510   3.827  20.360  0.1869  0.3290 -0.1106
 1734BOLB   GL441608  13.708   3.840  20.646 -0.2004  0.3414 -0.0169
 1734BOLB   C1C41609  13.911   4.100  20.271 -0.2221  0.1714 -0.1066
 1734BOLB   C2C41610  14.048   4.517  20.384 -0.0338  0.2539  0.0231
 1734BOLB   C3C41611  14.194   4.738  20.748  0.3214 -0.0331 -0.1793
 1734BOLB   C4C41612  14.670   4.813  20.934  0.1217 -0.2447  0.1300
 1734BOLB   C1D41613  13.925   4.131  20.932 -0.0545  0.3662  0.1913
 1734BOLB   C2D41614  14.181   4.404  21.171  0.0517 -0.1281  0.4806
 1734BOLB   C3D41615  14.089   4.749  21.413 -0.3191  0.2933 -0.3825
 1734BOLB   C4D41616  14.142   4.847  21.861  0.0787  0.0677  0.0833
 1735BOLB   NC141617  13.635  14.949  21.154  0.0710  0.1488  0.0521
 1735BOLB   PO141618  13.630  15.222  20.787 -0.2743 -0.2304  0.1518
 1735BOLB   GL141619  13.557  15.462  20.434 -0.0122  0.1136 -0.0839
 1735BOLB   GL241620  13.250  15.464  20.426  0.0497 -0.2746  0.2446
 1735BOLB   C1A41621  13.498  15.500  19.902 -0.1926 -0.0611 -0.2512
 1735BOLB   C2A41622  13.279  15.384  19.489 -0.1185  0.1821 -0.0913
 1735BOLB   C3A41623  12.872  15.424  19.211 -0.1781  0.0093  0.2700
 1735BOLB   C4A41624  12.521  15.601  19.291 -0.0523  0.1248 -0.0350
 1735BOLB   C1B41625  13.075  15.637  20.131 -0.0666 -0.3526  0.1208
 1735BOLB   C2B41626  12.817  15.962  20.085 -0.4929 -0.1310 -0.2044
 1735BOLB   C3B41627  12.635  16.199  19.774  0.1732 -0.1344  0.1714
 1735BOLB   C4B41628  12.518  16.406  19.354 -0.0342  0.1338  0.0477
 1735BOLB   NC241629  10.252  15.667  17.931  0.0680  0.2052  0.1817
 1735BOLB   PO241630  10.469  15.971  17.834  0.2886 -0.0558 -0.1836
 1735BOLB   GL341631  10.776  15.734  18.170  0.4618 -0.0574 -0.0665
 1735BOLB   GL441632  10.694  15.419  18.292 -0.3212  0.0130  0.0004
 1735BOLB   C1C41633  10.975  15.751  18.555  0.0611 -0.0870 -0.1007
 1735BOLB   C2C41634  11.356  15.850  18.801  0.2909 -0.0703 -0.3260
 1735BOLB   C3C41635  11.745  15.760  18.986  0.2093 -0.0973  0.0540
 1735BOLB   C4C41636  12.183  15.611  19.057 -0.1236  0.3141 -0.1532
 1735BOLB   C1D41637  10.674  15.234  18.581  0.1974 -0.0028 -0.1311
 1735BOLB   C2D41638  10.927  15.103  18.809  0.0869  0.1666  0.1180
 1735BOLB   C3D41639  11.272  15.074  19.109 -0.0369  0.3695 -0.4043
 1735BOLB   C4D41640  11.367  15.214  19.535  0.0793  0.0470 -0.0946
 1736BOLB   NC141641  10.377  17.720  25.587 -0.0968 -0.1398 -0.1839
 1736BOLB   PO141642  10.065  18.082  25.762  0.0694 -0.0388  0.0018
 1736BOLB   GL141643  10.148  18.439  25.376  0.2314  0.1248  0.1389
 1736BOLB   GL241644  10.231  18.407  25.046 -0.3492 -0.0961  0.4000
 1736BOLB   C1A41645  10.148  18.821  25.224 -0.0626 -0.1694 -0.1928
 1736BOLB   C2A41646   9.861  19.075  24.909  0.2900 -0.1773  0.2525
 1736BOLB   C3A41647   9.539  19.279  24.628  0.1292 -0.0322 -0.0012
 1736BOLB   C4A41648   9.148  19.479  24.510  0.3053  0.0114 -0.0953
 1736BOLB   C1B41649   9.980  18.671  24.650  0.0558  0.1102  0.4218
 1736BOLB   C2B41650   9.686  18.899  24.381  0.3005  0.3678 -0.0502
 1736BOLB   C3B41651   9.406  19.182  24.126 -0.1358 -0.1853 -0.1489
 1736BOLB   C4B41652   9.150  19.555  24.044 -0.0824 -0.0453 -0.0113
 1736BOLB   NC241653   6.369  19.827  24.119  0.0540 -0.1619 -0.1802
 1736BOLB   PO241654   6.782  19.897  23.958  0.0853  0.2073 -0.3527
 1736BOLB   GL341655   7.213  19.849  24.139 -0.0532 -0.3253 -0.3411
 1736BOLB   GL441656   7.212  19.844  24.601  0.0941 -0.0089  0.0776
 1736BOLB   C1C41657   7.654  19.921  24.169  0.1005 -0.1000 -0.1172
 1736BOLB   C2C41658   7.981  20.059  24.510 -0.0724 -0.0001 -0.1902
 1736BOLB   C3C41659   8.364  19.876  24.526 -0.1847  0.1286  0.0345
 1736BOLB   C4C41660   8.792  19.807  24.331  0.1368  0.1561  0.0550
 1736BOLB   C1D41661   7.428  20.130  24.767  0.1254  0.1404  0.0519
 1736BOLB   C2D41662   7.648  20.200  24.958 -0.5166  0.0353 -0.2715
 1736BOLB   C3D41663   8.015  19.992  25.022 -0.0607  0.0283 -0.2478
 1736BOLB   C4D41664   8.089  19.643  25.322  0.1918  0.3268 -0.1750
 1737BOLB   NC141665  21.162   6.791  30.041 -0.1436 -0.1775 -0.0583
 1737BOLB   PO141666  21.649   6.783  30.110 -0.1602  0.2010  0.1742
 1737BOLB   GL141667  22.088   6.722  30.028  0.1592 -0.1997  0.0452
 1737BOLB   GL241668  22.188   6.395  30.149 -0.2672 -0.1000  0.0747
 1737BOLB   C1A41669  22.516   6.810  29.965 -0.0827 -0.0327 -0.0701
 1737BOLB   C2A41670  22.908   6.704  30.198  0.0672  0.2523 -0.4427
 1737BOLB   C3A41671  23.417   6.543  30.169 -0.3106 -0.4372 -0.1453
 1737BOLB   C4A41672  23.890   6.438  30.363  0.0043 -0.0692 -0.1909
 1737BOLB   C1B41673  22.610   6.305  30.332 -0.1528  0.0728 -0.2206
 1737BOLB   C2B41674  23.062   6.181  30.417 -0.0212 -0.2643 -0.0944
 1737BOLB   C3B41675  23.498   6.058  30.247 -0.1148 -0.1441 -0.2316
 1737BOLB   C4B41676  23.736   5.772  30.283 -0.2183 -0.2022 -0.1414
 1737BOLB   NC241677  26.687   6.103  30.216 -0.1454  0.1902 -0.2705
 1737BOLB   PO241678  26.503   6.197  29.856 -0.0048 -0.0938  0.1665
 1737BOLB   GL341679  26.131   6.158  30.100  0.1352 -0.0972  0.1007
 1737BOLB   GL441680  26.130   6.040  30.390  0.0362 -0.5176  0.1082
 1737BOLB   C1C41681  25.606   6.059  30.118 -0.2470  0.0250  0.1823
 1737BOLB   C2C41682  25.171   6.122  30.101 -0.1237  0.0623 -0.2176
 1737BOLB   C3C41683  24.785   6.218  30.235  0.0411 -0.1350  0.2898
 1737BOLB   C4C41684  24.357   6.317  30.208  0.5605  0.0126 -0.1675
 1737BOLB   C1D41685  25.766   6.352  30.538 -0.2845  0.0494  0.0918
 1737BOLB   C2D41686  25.393   6.410  30.492  0.1285 -0.1587  0.0655
 1737BOLB   C3D41687  25.093   6.594  30.646  0.1711  0.0005 -0.0850
 1737BOLB   C4D41688  24.831   6.790  30.486 -0.1571  0.2292  0.1396
 1738BOLB   NC141689  21.078  14.729  26.612  0.0674  0.0649  0.0119
 1738BOLB   PO141690  21.540  14.767  26.611 -0.3761  0.0284 -0.1442
 1738BOLB   GL141691  21.992  14.708  26.471 -0.1065 -0.0121 -0.2646
 1738BOLB   GL241692  22.090  14.629  26.761  0.2605 -0.2721 -0.0783
 1738BOLB   C1A41693  22.166  15.028  26.134 -0.0585  0.0920 -0.2406
 1738BOLB   C2A41694  22.569  15.072  25.757  0.0633 -0.2195 -0.0461
 1738BOLB   C3A41695  22.877  15.210  25.536  0.2061  0.0868  0.2963
 1738BOLB   C4A41696  23.322  15.248  25.278  0.2628 -0.1358 -0.0378
 1738BOLB   C1B41697  22.530  14.607  26.614 -0.3244 -0.0163  0.1422
 1738BOLB   C2B41698  22.833  14.820  26.630 -0.2056 -0.1248 -0.2272
 1738BOLB   C3B41699  22.881  15.309  26.603  0.1016  0.3012  0.3445
 1738BOLB   C4B41700  22.751  15.737  26.367  0.1617 -0.1001  0.0517
 1738BOLB   NC241701  25.318  15.708  24.048 -0.1221  0.3704 -0.0057
 1738BOLB   PO241702  25.396  16.047  24.359  0.0817 -0.3555  0.1761
 1738BOLB   GL341703  24.944  15.896  24.416  0.2971  0.1423 -0.1917
 1738BOLB   GL441704  24.954  15.541  24.316  0.0497 -0.1421  0.3732
 1738BOLB   C1C41705  24.481  15.866  24.539 -0.1731  0.0750  0.5379
 1738BOLB   C2C41706  24.156  15.640  24.702  0.5073  0.0553 -0.2428
 1738BOLB   C3C41707  23.884  15.541  24.929 -0.0274  0.1028 -0.0126
 1738BOLB   C4C41708  23.506  15.343  24.978  0.0472 -0.1400  0.2525
 1738BOLB   C1D41709  24.517  15.366  24.367 -0.2309 -0.0531  0.0562
 1738BOLB   C2D41710  24.084  15.154  24.326  0.0342 -0.0236  0.0411
 1738BOLB   C3D41711  23.752  15.041  24.577  0.0489  0.2624 -0.2718
 1738BOLB   C4D41712  23.328  15.156  24.509 -0.2027  0.1579  0.0816
 1739BOLB   NC141713  12.286  14.276  21.313  0.4012 -0.2142 -0.0919
 1739BOLB   PO141714  12.610  13.970  21.062  0.2497 -0.0606  0.2808
 1739BOLB   GL141715  12.216  13.867  20.787 -0.0082 -0.0540  0.1499
 1739BOLB   GL241716  11.980  14.082  20.896  0.1915 -0.1154 -0.1542
 1739BOLB   C1A41717  11.948  13.993  20.410  0.0668 -0.1926 -0.0917
 1739BOLB   C2A41718  11.492  14.176  20.251  0.0193  0.0016  0.1881
 1739BOLB   C3A41719  11.126  14.312  20.145 -0.2293 -0.2359 -0.0246
 1739BOLB   C4A41720  10.720  14.246  20.011 -0.0854  0.1941 -0.0499
 1739BOLB   C1B41721  11.601  14.265  20.781  0.2874 -0.0796  0.1915
 1739BOLB   C2B41722  11.221  14.523  20.632 -0.1087  0.3750  0.0186
 1739BOLB   C3B41723  10.971  14.717  20.319 -0.1125 -0.2129  0.3719
 1739BOLB   C4B41724  10.737  14.946  20.052 -0.2333  0.1987  0.1416
 1739BOLB   NC241725   8.842  14.575  18.077  0.0885 -0.1938 -0.0003
 1739BOLB   PO241726   9.027  14.304  18.337 -0.0436 -0.1148 -0.0956
 1739BOLB   GL341727   9.131  14.458  18.740  0.0722 -0.2164 -0.1033
 1739BOLB   GL441728   8.938  14.737  18.964 -0.0781 -0.0583 -0.1732
 1739BOLB   C1C41729   9.401  14.380  19.112  0.0727 -0.1740 -0.1279
 1739BOLB   C2C41730   9.827  14.428  19.396 -0.0802  0.1493  0.1958
 1739BOLB   C3C41731   9.994  14.391  19.805  0.1857  0.0346 -0.3791
 1739BOLB   C4C41732  10.387  14.184  19.956 -0.1934  0.0063  0.0433
 1739BOLB   C1D41733   9.200  14.777  19.333 -0.0427 -0.0177 -0.4216
 1739BOLB   C2D41734   9.605  14.784  19.566  0.2686 -0.2396 -0.0823
 1739BOLB   C3D41735   9.930  14.870  19.571  0.0288 -0.1158  0.0566
 1739BOLB   C4D41736  10.357  15.105  19.688  0.0899 -0.0846 -0.1533
 1740BOLB   NC141737  11.435  20.836  30.533  0.0163  0.2378  0.1113
 1740BOLB   PO141738  11.312  20.644  30.132  0.0124 -0.0140 -0.0644
 1740BOLB   GL141739  11.135  21.047  30.194  0.0005  0.1783 -0.1068
 1740BOLB   GL241740  10.809  21.108  30.109  0.2105  0.2258  0.2075
 1740BOLB   C1A41741  11.016  21.407  30.462 -0.0280  0.0008 -0.0965
 1740BOLB   C2A41742  10.857  21.735  30.534 -0.2492  0.1507  0.1423
 1740BOLB   C3A41743  10.553  21.883  30.426  0.0712 -0.0124 -0.0255
 1740BOLB   C4A41744  10.148  22.080  30.383 -0.2737 -0.0604 -0.1105
 1740BOLB   C1B41745  10.608  21.482  30.174 -0.1060 -0.2716 -0.0495
 1740BOLB   C2B41746  10.348  21.764  30.041 -0.0584 -0.4247  0.0795
 1740BOLB   C3B41747  10.122  21.840  29.724  0.0282 -0.2211 -0.0720
 1740BOLB   C4B41748   9.850  22.091  29.952 -0.0019 -0.1026 -0.2435
 1740BOLB   NC241749   9.112  24.598  30.831  0.0123  0.1132  0.2858
 1740BOLB   PO241750   9.183  24.237  30.732 -0.0513 -0.0404 -0.1948
 1740BOLB   GL341751   9.393  23.908  30.577  0.0160 -0.0007 -0.0527
 1740BOLB   GL441752   9.635  23.895  30.329  0.1085 -0.1462  0.0012
 1740BOLB   C1C41753   9.444  23.445  30.473 -0.0827  0.3245 -0.3419
 1740BOLB   C2C41754   9.417  22.954  30.549 -0.0059  0.0136  0.1013
 1740BOLB   C3C41755   9.559  22.516  30.512  0.2093  0.0116  0.2292
 1740BOLB   C4C41756   9.826  22.222  30.561 -0.0712 -0.0952  0.1166
 1740BOLB   C1D41757   9.997  23.709  30.527  0.2619 -0.0318 -0.0232
 1740BOLB   C2D41758   9.878  23.268  30.638 -0.1837  0.1942  0.1328
 1740BOLB   C3D41759   9.814  22.834  30.741  0.0474 -0.1987  0.0896
 1740BOLB   C4D41760   9.783  22.512  31.016 -0.1601 -0.0878  0.0462
 1741BOLB   NC141761   3.680  19.056  31.252 -0.2596 -0.2770  0.0863
 1741BOLB   PO141762   4.137  18.969  31.108 -0.2077 -0.0455 -0.0837
 1741BOLB   GL141763   4.464  18.852  31.000  0.0728  0.2519  0.4250
 1741BOLB   GL241764   4.409  18.544  30.886 -0.1727  0.1142 -0.0853
 1741BOLB   C1A41765   4.864  18.667  31.134  0.1915  0.1482 -0.1186
 1741BOLB   C2A41766   5.217  18.562  31.163  0.2481 -0.0680 -0.2130
 1741BOLB   C3A41767   5.536  18.497  31.220  0.2088 -0.0278  0.2970
 1741BOLB   C4A41768   5.826  18.934  31.140  0.1890 -0.2239  0.0319
 1741BOLB   C1B41769   4.677  18.229  30.713 -0.2191 -0.0267  0.1656
 1741BOLB   C2B41770   4.980  18.052  30.423 -0.1890 -0.1309 -0.0222
 1741BOLB   C3B41771   5.177  17.695  30.371  0.0392 -0.0320  0.2869
 1741BOLB   C4B41772   5.616  17.552  30.274 -0.0315 -0.0267  0.1288
 1741BOLB   NC241773   4.661  20.474  30.941 -0.0777  0.0310 -0.2944
 1741BOLB   PO241774   5.056  20.182  31.102 -0.1092  0.3336 -0.0349
 1741BOLB   GL341775   5.447  20.247  31.172 -0.0717 -0.1307  0.0571
 1741BOLB   GL441776   5.418  20.410  31.525 -0.1853 -0.1028  0.0104
 1741BOLB   C1C41777   5.781  20.197  30.978 -0.0160 -0.0267  0.2904
 1741BOLB   C2C41778   5.908  19.901  30.693  0.0295  0.0352  0.2521
 1741BOLB   C3C41779   5.860  19.481  30.786  0.0446  0.1610 -0.0094
 1741BOLB   C4C41780   5.934  19.109  30.846  0.1898  0.1816  0.0186
 1741BOLB   C1D41781   5.726  20.010  31.595 -0.1183  0.1204 -0.0194
 1741BOLB   C2D41782   6.028  19.846  31.409 -0.0799  0.3207  0.2916
 1741BOLB   C3D41783   6.158  19.748  31.088 -0.1630 -0.2691  0.2530
 1741BOLB   C4D41784   6.355  19.630  30.775  0.0542  0.1392 -0.1445
 1742BOLB   NC141785  23.493  17.483  23.018  0.0411  0.0379  0.2727
 1742BOLB   PO141786  23.445  17.615  23.349 -0.1299 -0.2193  0.1875
 1742BOLB   GL141787  23.212  17.212  23.305 -0.0957  0.1314 -0.0556
 1742BOLB   GL241788  22.864  17.112  23.591  0.0185 -0.0048 -0.0151
 1742BOLB   C1A41789  23.148  16.805  23.140 -0.0009  0.0282  0.0605
 1742BOLB   C2A41790  23.000  16.425  23.139  0.1323  0.1472  0.1249
 1742BOLB   C3A41791  22.745  16.115  23.112 -0.2155  0.0470  0.0779
 1742BOLB   C4A41792  22.385  15.989  23.250 -0.1274 -0.1101 -0.0220
 1742BOLB   C1B41793  22.471  17.295  23.450 -0.1871 -0.1439 -0.1703
 1742BOLB   C2B41794  22.034  17.290  23.632 -0.2925 -0.0811  0.1386
 1742BOLB   C3B41795  21.585  17.333  23.959 -0.0669  0.2359 -0.0572
 1742BOLB   C4B41796  21.473  17.627  24.239 -0.2354 -0.1596 -0.0919
 1742BOLB   NC241797  23.296  17.228  23.807 -0.2816  0.0131  0.2461
 1742BOLB   PO241798  23.254  17.528  24.166  0.2209 -0.0504 -0.0282
 1742BOLB   GL341799  23.072  17.201  24.319  0.2004  0.0622 -0.0849
 1742BOLB   GL441800  23.102  17.103  24.594 -0.3854  0.3113  0.0117
 1742BOLB   C1C41801  22.870  16.887  24.088  0.1175  0.0466  0.0268
 1742BOLB   C2C41802  22.480  16.650  24.158  0.0683  0.1677 -0.1261
 1742BOLB   C3C41803  22.212  16.290  23.906  0.0121  0.0913  0.0467
 1742BOLB   C4C41804  22.119  16.064  23.572  0.0552  0.1500 -0.2681
 1742BOLB   C1D41805  22.675  16.954  24.568 -0.0635  0.2400 -0.2910
 1742BOLB   C2D41806  22.184  16.792  24.544 -0.1432 -0.4620  0.1060
 1742BOLB   C3D41807  21.794  16.779  24.839 -0.4854  0.0394 -0.3949
 1742BOLB   C4D41808  21.624  16.630  25.213 -0.0543 -0.0522 -0.2593
 1743BOLB   NC141809  10.586  12.867  37.163  0.0974  0.3331 -0.1042
 1743BOLB   PO141810  10.203  12.567  37.196  0.0709 -0.0281  0.2012
 1743BOLB   GL141811   9.923  12.508  37.539 -0.2008 -0.0659  0.0991
 1743BOLB   GL241812   9.797  12.177  37.651  0.0344 -0.2450 -0.2268
 1743BOLB   C1A41813   9.464  12.602  37.581 -0.2151 -0.0612 -0.0020
 1743BOLB   C2A41814   9.132  12.553  37.663  0.2796  0.3952 -0.0865
 1743BOLB   C3A41815   8.888  12.400  38.005 -0.2453  0.2960  0.1242
 1743BOLB   C4A41816   8.469  12.384  38.242  0.0791 -0.0033  0.1062
 1743BOLB   C1B41817   9.472  12.102  37.923 -0.0372 -0.1610  0.1899
 1743BOLB   C2B41818   9.120  12.003  38.084 -0.1922 -0.0800 -0.0289
 1743BOLB   C3B41819   8.702  11.934  38.088 -0.0826  0.0449  0.0200
 1743BOLB   C4B41820   8.441  12.114  37.813 -0.1155  0.1100  0.0457
 1743BOLB   NC241821   6.987  13.240  40.547 -0.2423  0.1168 -0.3523
 1743BOLB   PO241822   7.281  12.886  40.569  0.1189 -0.0178 -0.1917
 1743BOLB   GL341823   7.431  12.653  40.221 -0.0951 -0.0577 -0.4108
 1743BOLB   GL441824   7.616  12.414  40.180 -0.0246 -0.1621 -0.2082
 1743BOLB   C1C41825   7.514  12.550  39.754 -0.2128 -0.1796  0.3434
 1743BOLB   C2C41826   7.746  12.432  39.336 -0.1387  0.1432 -0.3186
 1743BOLB   C3C41827   8.006  12.276  39.078  0.0013 -0.3085  0.1271
 1743BOLB   C4C41828   8.192  12.250  38.616 -0.1139 -0.1241 -0.3808
 1743BOLB   C1D41829   8.003  12.371  39.929 -0.2098  0.4602 -0.0402
 1743BOLB   C2D41830   8.311  12.632  39.938 -0.2088 -0.1137  0.2015
 1743BOLB   C3D41831   8.705  12.803  39.972  0.1597 -0.3030  0.0295
 1743BOLB   C4D41832   9.142  12.997  39.891 -0.1871 -0.3809 -0.0425
 1744BOLB   NC141833  13.358  15.789  39.006 -0.0483 -0.2601  0.1760
 1744BOLB   PO141834  13.611  15.416  39.151  0.0659  0.2369 -0.1136
 1744BOLB   GL141835  13.453  15.675  39.532  0.0407  0.3436 -0.1665
 1744BOLB   GL241836  13.362  15.960  39.461  0.2186  0.2308 -0.1763
 1744BOLB   C1A41837  13.302  15.764  39.936  0.0210  0.0542 -0.1236
 1744BOLB   C2A41838  12.887  15.897  40.201  0.1895 -0.5082 -0.2592
 1744BOLB   C3A41839  12.411  15.773  40.387  0.0112 -0.3545  0.1508
 1744BOLB   C4A41840  12.203  15.657  40.742  0.1440 -0.1422  0.2558
 1744BOLB   C1B41841  12.928  15.988  39.746 -0.1271  0.1551  0.0252
 1744BOLB   C2B41842  12.653  16.350  39.706 -0.4988 -0.1564 -0.0215
 1744BOLB   C3B41843  12.544  16.688  39.933  0.2634 -0.4409  0.1129
 1744BOLB   C4B41844  12.447  16.834  40.356 -0.3598  0.2541 -0.0823
 1744BOLB   NC241845  11.164  16.366  42.271 -0.0867  0.0679 -0.0302
 1744BOLB   PO241846  10.842  16.350  42.101  0.5961 -0.0812  0.0996
 1744BOLB   GL341847  10.905  16.358  41.643 -0.1369  0.0723  0.3864
 1744BOLB   GL441848  10.721  16.096  41.683  0.2035  0.0152 -0.0819
 1744BOLB   C1C41849  11.120  16.113  41.353 -0.1584  0.0113  0.0344
 1744BOLB   C2C41850  11.561  16.077  41.125  0.3939  0.2320 -0.1297
 1744BOLB   C3C41851  11.873  15.908  41.286  0.0117 -0.1779 -0.2740
 1744BOLB   C4C41852  12.206  15.695  41.207 -0.0304 -0.0993 -0.2286
 1744BOLB   C1D41853  10.757  15.784  41.439 -0.1155 -0.0512 -0.3743
 1744BOLB   C2D41854  10.942  15.330  41.232 -0.1148  0.1474  0.2706
 1744BOLB   C3D41855  11.089  14.942  40.927 -0.0944  0.1071 -0.2128
 1744BOLB   C4D41856  11.109  14.603  40.563 -0.0410  0.0904  0.0231
 1745BOLB   NC141857   9.461  12.268  24.587 -0.0193 -0.0191 -0.0516
 1745BOLB   PO141858   9.201  11.916  24.768 -0.2203 -0.3132 -0.0550
 1745BOLB   GL141859   8.711  12.015  24.691 -0.1212  0.3661  0.6328
 1745BOLB   GL241860   8.624  12.329  24.638  0.1061  0.0209 -0.0035
 1745BOLB   C1A41861   8.206  11.946  24.845 -0.2413 -0.1135  0.4044
 1745BOLB   C2A41862   7.767  12.042  24.924  0.3462 -0.0811  0.0430
 1745BOLB   C3A41863   7.371  12.130  24.792  0.3530 -0.3130 -0.2293
 1745BOLB   C4A41864   7.294  12.114  24.300 -0.2920 -0.1865 -0.1344
 1745BOLB   C1B41865   8.208  12.387  24.417  0.0620 -0.0472  0.2707
 1745BOLB   C2B41866   8.182  12.260  23.937 -0.2929 -0.0436 -0.1679
 1745BOLB   C3B41867   8.022  12.078  23.604  0.0250  0.4479  0.0534
 1745BOLB   C4B41868   8.019  12.052  23.137 -0.0317  0.1271 -0.3339
 1745BOLB   NC241869   5.454  13.627  23.360  0.1737 -0.0891  0.1983
 1745BOLB   PO241870   5.433  13.308  23.137  0.4850 -0.2159  0.1601
 1745BOLB   GL341871   5.872  13.243  23.362 -0.5535  0.0581  0.1840
 1745BOLB   GL441872   5.828  13.502  23.609 -0.1337 -0.3042 -0.1062
 1745BOLB   C1C41873   6.310  13.106  23.532  0.0103  0.0948  0.1514
 1745BOLB   C2C41874   6.591  12.847  23.613 -0.0048  0.0264 -0.2472
 1745BOLB   C3C41875   6.809  12.698  23.880  0.1075 -0.0855  0.0489
 1745BOLB   C4C41876   7.049  12.341  23.974 -0.2091  0.0184 -0.0755
 1745BOLB   C1D41877   6.137  13.706  23.505  0.1696 -0.0259 -0.2145
 1745BOLB   C2D41878   6.444  13.776  23.659  0.1064  0.1139  0.0233
 1745BOLB   C3D41879   6.564  13.233  23.926  0.1484  0.1070 -0.0712
 1745BOLB   C4D41880   6.349  12.980  24.241 -0.3896  0.1814 -0.1920
 1746BOLB   NC141881  14.786  16.741  38.580  0.1567  0.0053 -0.0234
 1746BOLB   PO141882  15.054  16.993  38.738 -0.1758  0.4490 -0.0899
 1746BOLB   GL141883  14.932  17.177  39.052 -0.2269  0.2524 -0.2529
 1746BOLB   GL241884  14.771  17.480  38.927  0.0450 -0.3555 -0.4155
 1746BOLB   C1A41885  15.015  17.249  39.506 -0.0528  0.1547  0.1895
 1746BOLB   C2A41886  15.127  17.705  39.710  0.1513 -0.0727 -0.1068
 1746BOLB   C3A41887  14.869  18.011  39.886 -0.1781 -0.1392 -0.1550
 1746BOLB   C4A41888  14.617  18.307  39.935  0.0070 -0.0020  0.0922
 1746BOLB   C1B41889  14.699  17.727  39.359 -0.0230 -0.0100  0.3258
 1746BOLB   C2B41890  14.499  17.917  39.584 -0.0568 -0.1594  0.0754
 1746BOLB   C3B41891  14.211  18.008  39.833 -0.1121 -0.0066 -0.2623
 1746BOLB   C4B41892  14.035  17.819  40.230  0.0479 -0.0949 -0.1558
 1746BOLB   NC241893  14.760  20.452  41.620  0.0040  0.1566  0.2233
 1746BOLB   PO241894  14.751  19.991  41.508 -0.0549  0.2085  0.2221
 1746BOLB   GL341895  14.605  19.614  41.083  0.2649  0.1309  0.1120
 1746BOLB   GL441896  14.658  19.282  41.247  0.1106  0.0442 -0.0148
 1746BOLB   C1C41897  14.392  19.436  40.743  0.0801  0.0545 -0.2917
 1746BOLB   C2C41898  14.253  19.277  40.477  0.2361  0.4602  0.1725
 1746BOLB   C3C41899  14.194  18.949  40.206 -0.3654 -0.0245 -0.3446
 1746BOLB   C4C41900  14.329  18.656  39.891  0.0143  0.2436 -0.0851
 1746BOLB   C1D41901  14.880  18.956  41.229  0.2246 -0.2924  0.4062
 1746BOLB   C2D41902  14.866  18.573  41.350 -0.0449  0.1332  0.2177
 1746BOLB   C3D41903  14.787  18.451  41.719  0.1586  0.0883 -0.1465
 1746BOLB   C4D41904  14.788  17.973  41.808 -0.0627 -0.0745  0.4576
 1747BOLB   NC141905  19.888   5.230  26.994 -0.2651  0.1633 -0.4632
 1747BOLB   PO141906  19.628   5.043  27.383 -0.3879  0.3092 -0.1020
 1747BOLB   GL141907  19.728   4.514  27.447  0.1488  0.0011  0.0584
 1747BOLB   GL241908  19.499   4.354  27.580  0.2786  0.1759  0.0165
 1747BOLB   C1A41909  20.197   4.428  27.513  0.0187  0.1122 -0.2219
 1747BOLB   C2A41910  20.536   4.049  27.373 -0.1086  0.0922 -0.0642
 1747BOLB   C3A41911  20.722   3.598  27.196  0.2510 -0.1347  0.0489
 1747BOLB   C4A41912  20.941   3.146  27.132  0.0531  0.0144  0.2089
 1747BOLB   C1B41913  19.525   3.904  27.578 -0.0452  0.0549 -0.0530
 1747BOLB   C2B41914  19.536   3.429  27.793 -0.5014  0.0055  0.1037
 1747BOLB   C3B41915  19.663   3.127  27.996  0.0078 -0.1767 -0.1620
 1747BOLB   C4B41916  19.871   2.845  27.859 -0.0756 -0.1052 -0.0269
 1747BOLB   NC241917  21.841   0.876  28.018  0.1267  0.1966  0.3235
 1747BOLB   PO241918  22.098   1.106  27.656 -0.0251 -0.0932 -0.1619
 1747BOLB   GL341919  21.971   1.407  27.750  0.2756 -0.0974 -0.4791
 1747BOLB   GL441920  22.261   1.714  27.751 -0.0938  0.3950  0.1464
 1747BOLB   C1C41921  21.656   1.818  27.827 -0.3455 -0.1921 -0.1583
 1747BOLB   C2C41922  21.581   2.151  27.769 -0.2597  0.3473 -0.1946
 1747BOLB   C3C41923  21.244   2.289  27.613 -0.2359  0.0198  0.0388
 1747BOLB   C4C41924  21.074   2.653  27.296 -0.1010 -0.1958  0.2225
 1747BOLB   C1D41925  22.037   2.056  27.613 -0.0173 -0.0001  0.0010
 1747BOLB   C2D41926  21.661   2.464  27.375 -0.1104  0.1410 -0.0088
 1747BOLB   C3D41927  21.632   2.885  27.503 -0.1283  0.1032 -0.0077
 1747BOLB   C4D41928  21.701   3.140  27.876  0.0521  0.2418 -0.2095
 1748BOLB   NC141929  23.568  12.156  29.408  0.0149 -0.1432 -0.0446
 1748BOLB   PO141930  23.464  12.478  29.131  0.1878  0.1021 -0.0411
 1748BOLB   GL141931  23.884  12.501  29.035  0.0037  0.1220 -0.1149
 1748BOLB   GL241932  24.072  12.354  28.894 -0.2402 -0.2611  0.1147
 1748BOLB   C1A41933  24.171  12.837  28.965  0.2153 -0.0511 -0.1180
 1748BOLB   C2A41934  24.545  12.708  28.754  0.4659 -0.0792 -0.4522
 1748BOLB   C3A41935  24.942  12.775  28.672  0.1279 -0.2103 -0.2112
 1748BOLB   C4A41936  25.398  12.840  28.483 -0.0190  0.2966  0.1438
 1748BOLB   C1B41937  24.430  12.204  28.886 -0.1668  0.1697 -0.0242
 1748BOLB   C2B41938  24.887  12.275  28.768 -0.0242  0.5358  0.2635
 1748BOLB   C3B41939  25.256  12.410  28.748 -0.0759  0.0243  0.1376
 1748BOLB   C4B41940  25.752  12.369  28.647 -0.1805  0.1142  0.0152
 1748BOLB   NC241941   0.573  12.729  26.920  0.2437 -0.1154 -0.0194
 1748BOLB   PO241942   0.591  12.948  27.276 -0.0115 -0.1117  0.2303
 1748BOLB   GL341943   0.077  13.025  27.353 -0.0188 -0.0866  0.0403
 1748BOLB   GL441944  26.981  12.824  27.188 -0.1019  0.1061 -0.2180
 1748BOLB   C1C41945  26.607  13.072  27.386 -0.5782  0.0812  0.0581
 1748BOLB   C2C41946  26.269  12.958  27.588 -0.1774  0.0323  0.1501
 1748BOLB   C3C41947  26.025  12.905  27.953 -0.1676 -0.0587  0.1551
 1748BOLB   C4C41948  25.708  13.013  28.296  0.2988 -0.4330 -0.3607
 1748BOLB   C1D41949  26.537  12.834  26.930 -0.0417  0.1632  0.1896
 1748BOLB   C2D41950  26.281  13.138  27.008  0.1696 -0.0033  0.1238
 1748BOLB   C3D41951  25.944  13.193  26.726 -0.0096  0.0703 -0.0702
 1748BOLB   C4D41952  25.617  12.882  26.845 -0.0695 -0.0745  0.4906
 1749BOLB   NC141953  19.438   7.617  37.292 -0.0913 -0.0828  0.2679
 1749BOLB   PO141954  19.144   7.287  37.446  0.2107 -0.1942 -0.2277
 1749BOLB   GL141955  19.198   6.946  37.703 -0.1027 -0.1663 -0.0390
 1749BOLB   GL241956  19.406   6.812  37.674  0.0943  0.0654  0.0159
 1749BOLB   C1A41957  19.029   6.608  38.030 -0.1002  0.4482 -0.0338
 1749BOLB   C2A41958  19.121   6.229  38.023 -0.2259 -0.2858 -0.0597
 1749BOLB   C3A41959  18.960   5.774  37.983 -0.0076  0.0892  0.2478
 1749BOLB   C4A41960  18.998   5.290  38.027  0.0761 -0.1610 -0.0038
 1749BOLB   C1B41961  19.564   6.374  37.685 -0.0015 -0.0471 -0.1494
 1749BOLB   C2B41962  19.453   5.882  37.689  0.3223 -0.0228 -0.2046
 1749BOLB   C3B41963  19.435   5.499  37.551 -0.0384 -0.2236 -0.1052
 1749BOLB   C4B41964  19.558   5.156  37.270 -0.0927 -0.1401 -0.2026
 1749BOLB   NC241965  20.681   4.183  39.036 -0.2204  0.0868  0.1545
 1749BOLB   PO241966  20.464   3.791  39.143 -0.3568 -0.0683 -0.1214
 1749BOLB   GL341967  20.236   3.980  38.782 -0.1444  0.1047 -0.0162
 1749BOLB   GL441968  20.421   4.295  38.641  0.0897  0.1050 -0.0513
 1749BOLB   C1C41969  20.065   3.998  38.364  0.2521 -0.1304 -0.0297
 1749BOLB   C2C41970  19.773   4.162  38.144  0.0496 -0.2615  0.0891
 1749BOLB   C3C41971  19.546   4.567  37.957  0.0538  0.1510  0.0020
 1749BOLB   C4C41972  19.335   4.997  37.873 -0.2374 -0.1154  0.1381
 1749BOLB   C1D41973  20.021   4.499  38.589  0.4559  0.0293 -0.1978
 1749BOLB   C2D41974  19.735   4.713  38.429 -0.0125 -0.1372 -0.2754
 1749BOLB   C3D41975  19.462   5.128  38.370 -0.0470  0.0467  0.0925
 1749BOLB   C4D41976  19.464   5.468  38.043  0.2010 -0.3248 -0.0097
 1750BOLB   NC141977  25.582  18.579  29.399 -0.0150  0.3962  0.3288
 1750BOLB   PO141978  25.374  18.334  29.046  0.0428  0.3820 -0.1366
 1750BOLB   GL141979  25.143  18.080  28.984 -0.0967 -0.1368 -0.0062
 1750BOLB   GL241980  25.132  17.813  28.779 -0.4194 -0.3011  0.2667
 1750BOLB   C1A41981  24.835  17.901  29.171  0.1347 -0.3216  0.0066
 1750BOLB   C2A41982  24.638  17.718  29.498  0.1656  0.0897 -0.0784
 1750BOLB   C3A41983  24.212  17.656  29.728 -0.1701 -0.1177  0.1121
 1750BOLB   C4A41984  23.929  17.354  29.590 -0.1829 -0.1162  0.2050
 1750BOLB   C1B41985  24.657  18.002  28.764  0.1346 -0.2890 -0.0183
 1750BOLB   C2B41986  24.404  17.919  29.014  0.3713 -0.0492 -0.2460
 1750BOLB   C3B41987  24.226  18.202  29.279  0.3346 -0.1102  0.1570
 1750BOLB   C4B41988  24.086  18.552  29.169  0.0247  0.0022  0.2049
 1750BOLB   NC241989  25.533  18.118  28.630  0.3541 -0.2002  0.2400
 1750BOLB   PO241990  25.333  18.220  28.259  0.0737 -0.0473  0.1498
 1750BOLB   GL341991  25.030  17.832  28.191  0.2114 -0.1577 -0.4235
 1750BOLB   GL441992  25.242  17.598  28.210  0.2925  0.1017 -0.1030
 1750BOLB   C1C41993  24.658  17.495  28.264  0.2068 -0.1970  0.1442
 1750BOLB   C2C41994  24.286  17.312  28.474 -0.0258  0.2812  0.0684
 1750BOLB   C3C41995  24.014  17.137  28.738 -0.1158  0.0080  0.0597
 1750BOLB   C4C41996  23.810  17.275  29.210  0.0288  0.1504 -0.0184
 1750BOLB   C1D41997  25.069  17.193  28.275 -0.0231  0.0370 -0.2998
 1750BOLB   C2D41998  24.650  16.978  28.425  0.2809 -0.3778  0.0944
 1750BOLB   C3D41999  24.312  16.765  28.600  0.2231  0.0432  0.1474
 1750BOLB   C4D42000  24.089  16.465  28.496 -0.4197  0.1399 -0.0647
 1751BOLB   NC142001  22.910   7.544  17.165 -0.1120  0.1851 -0.4050
 1751BOLB   PO142002  22.544   7.722  17.086 -0.2174  0.0829  0.3436
 1751BOLB   GL142003  22.238   7.936  17.283  0.1663  0.0633  0.1156
 1751BOLB   GL242004  22.154   8.276  17.530 -0.0540  0.0714  0.0650
 1751BOLB   C1A42005  21.761   8.014  17.397  0.1159 -0.3136  0.0703
 1751BOLB   C2A42006  21.318   8.012  17.415 -0.3662 -0.3280  0.0578
 1751BOLB   C3A42007  20.997   8.366  17.429 -0.2037 -0.0648 -0.1512
 1751BOLB   C4A42008  20.786   8.715  17.298 -0.3729 -0.0732 -0.1497
 1751BOLB   C1B42009  21.998   8.398  17.871 -0.1540  0.2029  0.0842
 1751BOLB   C2B42010  21.661   8.556  18.188 -0.1096 -0.1338  0.0502
 1751BOLB   C3B42011  21.569   8.759  18.636 -0.3909 -0.2372  0.0375
 1751BOLB   C4B42012  21.315   9.123  18.743  0.0349  0.1914  0.3491
 1751BOLB   NC242013  20.848   9.808  15.750 -0.1437 -0.1976 -0.3012
 1751BOLB   PO242014  21.154   9.647  15.585 -0.2838  0.0783 -0.1631
 1751BOLB   GL342015  21.312   9.699  15.961  0.0808  0.0579 -0.1508
 1751BOLB   GL442016  21.279   9.985  16.065 -0.1483 -0.0766  0.0713
 1751BOLB   C1C42017  21.258   9.472  16.396  0.1471  0.3164  0.0838
 1751BOLB   C2C42018  21.241   9.619  16.872 -0.0939 -0.1060 -0.0798
 1751BOLB   C3C42019  21.222   9.441  17.287  0.2183 -0.4842 -0.0686
 1751BOLB   C4C42020  20.886   9.100  17.404 -0.1617  0.0006  0.3611
 1751BOLB   C1D42021  21.178  10.269  16.430 -0.1517 -0.2207 -0.1271
 1751BOLB   C2D42022  20.961  10.237  16.820 -0.2752 -0.2849  0.0754
 1751BOLB   C3D42023  21.015  10.515  17.261 -0.0584  0.1563 -0.0758
 1751BOLB   C4D42024  21.180  10.748  17.678 -0.0816 -0.1601 -0.0015
 1752BOLB   NC142025  19.738   6.508  35.936  0.4260  0.1037  0.1581
 1752BOLB   PO142026  19.993   6.607  36.139 -0.3391 -0.0487  0.0007
 1752BOLB   GL142027  20.133   6.318  36.391 -0.0020 -0.0667 -0.1508
 1752BOLB   GL242028  20.425   6.472  36.280  0.2700  0.3394  0.1285
 1752BOLB   C1A42029  20.411   6.011  36.525  0.1089  0.3421  0.2924
 1752BOLB   C2A42030  20.648   5.964  36.844 -0.1120  0.1116 -0.0868
 1752BOLB   C3A42031  20.631   5.736  37.248  0.0881 -0.2128 -0.0366
 1752BOLB   C4A42032  20.723   5.608  37.599 -0.4000  0.1812 -0.1852
 1752BOLB   C1B42033  20.805   6.350  36.257 -0.0159 -0.1603  0.2721
 1752BOLB   C2B42034  21.116   6.241  36.520 -0.0223  0.1310  0.3017
 1752BOLB   C3B42035  21.209   6.003  36.966 -0.2134  0.1574 -0.4714
 1752BOLB   C4B42036  21.412   5.992  37.290 -0.1920  0.3215 -0.2227
 1752BOLB   NC242037  21.944   4.419  39.225  0.0198 -0.0797 -0.0779
 1752BOLB   PO242038  22.261   4.235  38.920  0.2067  0.1195 -0.1857
 1752BOLB   GL342039  22.138   4.629  38.687 -0.3771  0.0499 -0.3357
 1752BOLB   GL442040  22.268   4.805  38.500  0.1977  0.0920 -0.0287
 1752BOLB   C1C42041  21.734   4.891  38.667 -0.1322  0.1622 -0.1000
 1752BOLB   C2C42042  21.447   5.116  38.435 -0.1609  0.0233 -0.0667
 1752BOLB   C3C42043  21.013   5.135  38.256 -0.3524  0.2991 -0.1520
 1752BOLB   C4C42044  20.805   5.335  37.940 -0.3257 -0.1346  0.2476
 1752BOLB   C1D42045  21.995   5.117  38.297 -0.2065  0.0675 -0.1658
 1752BOLB   C2D42046  21.779   5.394  38.063  0.1977 -0.1904  0.1149
 1752BOLB   C3D42047  21.677   5.703  37.800  0.0247 -0.0532 -0.1217
 1752BOLB   C4D42048  21.913   5.915  37.348  0.3741 -0.1480  0.2207
 1753BOLB   NC142049  17.148  19.169  35.007 -0.1951  0.2612 -0.2370
 1753BOLB   PO142050  17.357  19.655  34.932  0.0753 -0.0992 -0.2814
 1753BOLB   GL142051  17.671  19.983  34.889 -0.2134  0.1130 -0.3166
 1753BOLB   GL242052  17.519  20.214  34.671 -0.1795  0.1569  0.0837
 1753BOLB   C1A42053  17.838  20.345  35.060  0.0449  0.0994 -0.1744
 1753BOLB   C2A42054  17.994  20.788  34.921  0.1559  0.1939 -0.2428
 1753BOLB   C3A42055  17.956  21.308  35.059 -0.2430  0.2187 -0.2794
 1753BOLB   C4A42056  18.302  21.546  35.030  0.1024 -0.3884  0.1068
 1753BOLB   C1B42057  18.001  20.135  34.512 -0.2730 -0.0677 -0.3980
 1753BOLB   C2B42058  18.402  20.334  34.628 -0.0773 -0.0460 -0.2077
 1753BOLB   C3B42059  18.542  20.750  34.788  0.2358  0.1884 -0.1882
 1753BOLB   C4B42060  18.586  21.097  34.701  0.1654 -0.0805 -0.0777
 1753BOLB   NC242061  20.155  23.474  34.776 -0.1689  0.4670  0.1511
 1753BOLB   PO242062  19.939  23.133  35.094  0.0815  0.0847  0.0904
 1753BOLB   GL342063  19.809  22.711  34.962  0.1015  0.0423  0.2144
 1753BOLB   GL442064  19.921  22.525  35.217 -0.2004  0.3486  0.1755
 1753BOLB   C1C42065  19.370  22.543  35.031 -0.1360 -0.0042 -0.0705
 1753BOLB   C2C42066  19.369  22.160  34.863  0.1290  0.1468  0.1513
 1753BOLB   C3C42067  19.081  21.814  34.911 -0.0592 -0.0179 -0.0147
 1753BOLB   C4C42068  18.646  21.709  34.803  0.5159 -0.0065  0.0847
 1753BOLB   C1D42069  20.304  22.164  35.299  0.0929  0.0219  0.0770
 1753BOLB   C2D42070  20.571  21.924  34.944  0.1399 -0.0977  0.6578
 1753BOLB   C3D42071  20.526  21.614  34.588 -0.2107  0.0039  0.0270
 1753BOLB   C4D42072  20.426  21.090  34.396  0.1166  0.2005  0.2235
 1754BOLB   NC142073  13.522  22.144  39.879  0.1438  0.1168  0.3227
 1754BOLB   PO142074  13.493  21.703  39.949 -0.3831  0.1868 -0.0192
 1754BOLB   GL142075  13.756  21.434  39.661  0.2030 -0.1866  0.2629
 1754BOLB   GL242076  14.040  21.411  39.584  0.1787  0.1584 -0.3027
 1754BOLB   C1A42077  13.628  21.097  39.394 -0.0112  0.1866  0.0163
 1754BOLB   C2A42078  13.666  20.713  39.209  0.1512  0.0011 -0.0554
 1754BOLB   C3A42079  13.450  20.394  39.055  0.0010 -0.1183 -0.2009
 1754BOLB   C4A42080  13.238  20.058  39.126  0.0481 -0.0537 -0.0595
 1754BOLB   C1B42081  14.153  21.180  39.226 -0.1171 -0.1889  0.1335
 1754BOLB   C2B42082  14.175  20.848  38.984  0.0354  0.1562  0.1764
 1754BOLB   C3B42083  14.248  20.499  38.703  0.2106  0.0502 -0.1090
 1754BOLB   C4B42084  14.414  20.255  38.350 -0.2316  0.2397 -0.0363
 1754BOLB   NC242085  11.208  20.486  40.331  0.1262 -0.1902  0.0055
 1754BOLB   PO242086  11.053  20.084  40.220 -0.1985  0.1506 -0.2433
 1754BOLB   GL342087  11.132  20.186  39.806  0.0236  0.2282 -0.2565
 1754BOLB   GL442088  10.905  20.184  39.583  0.1001 -0.3085 -0.0842
 1754BOLB   C1C42089  11.572  20.058  39.554 -0.0770 -0.1284  0.0157
 1754BOLB   C2C42090  12.033  19.928  39.532 -0.3345  0.0138  0.3886
 1754BOLB   C3C42091  12.426  19.820  39.309 -0.1651  0.3132  0.2923
 1754BOLB   C4C42092  12.931  19.979  39.301  0.0965 -0.1999  0.1985
 1754BOLB   C1D42093  10.870  19.866  39.269 -0.0865 -0.0724  0.1083
 1754BOLB   C2D42094  10.886  19.578  39.090 -0.0847 -0.2183 -0.1858
 1754BOLB   C3D42095  10.999  19.242  38.930  0.1429  0.1329 -0.1834
 1754BOLB   C4D42096  11.368  19.083  38.804  0.2683 -0.0366  0.2213
 1755BOLB   NC142097  13.877  14.381  39.467 -0.2262 -0.1200 -0.3610
 1755BOLB   PO142098  13.845  14.666  39.205  0.2914 -0.0245 -0.1544
 1755BOLB   GL142099  13.738  15.038  39.565 -0.2727  0.1757  0.0579
 1755BOLB   GL242100  13.453  15.181  39.614  0.3472  0.2743 -0.1459
 1755BOLB   C1A42101  14.076  15.252  39.849  0.1106 -0.1722  0.0222
 1755BOLB   C2A42102  13.987  15.651  40.011  0.0497 -0.0805  0.1445
 1755BOLB   C3A42103  13.688  15.884  40.227 -0.4711  0.0006 -0.1621
 1755BOLB   C4A42104  13.295  16.110  40.507  0.0213  0.1071  0.0080
 1755BOLB   C1B42105  13.499  15.072  40.021  0.0343  0.1433 -0.0247
 1755BOLB   C2B42106  13.436  15.319  40.240 -0.2919 -0.0347  0.3292
 1755BOLB   C3B42107  13.620  15.523  40.637  0.2310 -0.0521  0.0458
 1755BOLB   C4B42108  13.719  15.871  40.922 -0.3158 -0.2565 -0.0957
 1755BOLB   NC242109  11.859  16.161  42.969 -0.0091  0.1024 -0.2358
 1755BOLB   PO242110  12.010  16.356  42.527 -0.2815  0.1508  0.2236
 1755BOLB   GL342111  11.724  16.332  42.020  0.0703 -0.1300  0.0725
 1755BOLB   GL442112  11.451  16.089  41.988 -0.1134  0.0312  0.2887
 1755BOLB   C1C42113  11.970  16.269  41.722  0.0428  0.0505  0.0992
 1755BOLB   C2C42114  12.247  16.207  41.360 -0.1889  0.1450 -0.0622
 1755BOLB   C3C42115  12.534  16.003  41.022  0.1794 -0.0534  0.0829
 1755BOLB   C4C42116  12.898  16.208  40.721 -0.1172  0.1538 -0.3435
 1755BOLB   C1D42117  11.496  15.916  41.641 -0.1271 -0.2802  0.0256
 1755BOLB   C2D42118  11.356  15.620  41.216 -0.0822  0.0965 -0.0425
 1755BOLB   C3D42119  11.314  15.569  40.707 -0.0357  0.0967  0.1976
 1755BOLB   C4D42120  11.404  15.186  40.521 -0.2449  0.0294  0.3561
 1756BOLB   NC142121  21.930  13.228  35.637  0.0686 -0.2874 -0.1188
 1756BOLB   PO142122  22.363  12.981  35.849 -0.2554  0.0975 -0.0234
 1756BOLB   GL142123  22.588  13.384  36.147 -0.1939  0.0694  0.0096
 1756BOLB   GL242124  22.619  13.368  36.520 -0.0372 -0.2379 -0.2737
 1756BOLB   C1A42125  23.054  13.405  36.293 -0.2144  0.3705  0.3045
 1756BOLB   C2A42126  23.278  13.474  36.612 -0.0195  0.6213 -0.1420
 1756BOLB   C3A42127  23.629  13.259  36.842 -0.4611  0.1315 -0.1351
 1756BOLB   C4A42128  23.698  13.296  37.296 -0.2031 -0.3460 -0.1747
 1756BOLB   C1B42129  22.825  13.141  36.832  0.2023 -0.0309  0.0910
 1756BOLB   C2B42130  23.245  12.937  37.011  0.1431 -0.0430  0.0697
 1756BOLB   C3B42131  23.358  12.922  37.431  0.2198  0.0347 -0.2160
 1756BOLB   C4B42132  23.483  12.929  37.840  0.0101 -0.2668  0.0204
 1756BOLB   NC242133  26.157  13.534  38.363 -0.0033 -0.0723 -0.3585
 1756BOLB   PO242134  25.894  13.139  38.411 -0.1504  0.0101 -0.2036
 1756BOLB   GL342135  25.559  13.407  38.300  0.0861  0.2884  0.2209
 1756BOLB   GL442136  25.694  13.597  38.138  0.0708 -0.1750 -0.1284
 1756BOLB   C1C42137  25.135  13.242  38.160  0.2723 -0.3252  0.1181
 1756BOLB   C2C42138  24.748  13.097  38.050  0.0101 -0.1315  0.0264
 1756BOLB   C3C42139  24.353  13.174  37.867 -0.1497  0.5658  0.3352
 1756BOLB   C4C42140  24.028  13.289  37.582 -0.1413 -0.0044  0.0528
 1756BOLB   C1D42141  25.250  13.655  37.921  0.2668  0.1384  0.0494
 1756BOLB   C2D42142  24.884  13.559  37.749 -0.2136  0.0693  0.2923
 1756BOLB   C3D42143  24.495  13.524  37.612  0.2519 -0.1127 -0.2175
 1756BOLB   C4D42144  24.324  13.534  37.203 -0.1787  0.2829 -0.2984
 1757BOLB   NC142145  14.493  13.318  40.105 -0.2567 -0.4328  0.1449
 1757BOLB   PO142146  14.108  13.496  39.931  0.2227  0.1925 -0.3363
 1757BOLB   GL142147  14.051  13.342  40.355 -0.1267  0.0799 -0.0529
 1757BOLB   GL242148  13.843  13.390  40.421  0.0420 -0.4825 -0.0077
 1757BOLB   C1A42149  14.193  13.513  40.729  0.0790 -0.1794 -0.2511
 1757BOLB   C2A42150  14.268  13.724  41.089  0.1837  0.0413 -0.0350
 1757BOLB   C3A42151  14.420  13.646  41.521 -0.2820  0.0733  0.2882
 1757BOLB   C4A42152  14.177  13.681  41.782  0.2285 -0.0671  0.2588
 1757BOLB   C1B42153  13.812  13.140  40.760 -0.1421  0.3230  0.3476
 1757BOLB   C2B42154  13.736  12.861  41.177 -0.0082  0.0682 -0.0392
 1757BOLB   C3B42155  13.811  12.958  41.607 -0.0903 -0.1842  0.3570
 1757BOLB   C4B42156  14.163  13.056  41.912 -0.0992 -0.1561  0.0706
 1757BOLB   NC242157  13.078  13.835  43.714  0.3047  0.1085  0.3272
 1757BOLB   PO242158  12.929  13.588  43.411  0.0603 -0.1496 -0.2797
 1757BOLB   GL342159  12.737  13.921  43.196  0.1841  0.3180  0.4876
 1757BOLB   GL442160  12.392  13.958  43.196 -0.1381  0.0412  0.1190
 1757BOLB   C1C42161  12.821  14.094  42.828  0.0266 -0.1875 -0.1113
 1757BOLB   C2C42162  13.223  13.933  42.543 -0.1313  0.2144 -0.3613
 1757BOLB   C3C42163  13.565  14.065  42.271  0.0451  0.0193  0.2410
 1757BOLB   C4C42164  13.824  13.859  41.891  0.3218 -0.3554 -0.0028
 1757BOLB   C1D42165  12.399  13.690  42.863 -0.0325 -0.1501 -0.2044
 1757BOLB   C2D42166  12.144  13.627  42.388 -0.1719  0.0478  0.1216
 1757BOLB   C3D42167  12.215  13.987  42.222  0.2501  0.1900  0.0785
 1757BOLB   C4D42168  12.217  14.271  42.003  0.1744 -0.0905  0.3262
 1758BOLB   NC142169  22.854   7.768  28.141  0.1605  0.1539 -0.1781
 1758BOLB   PO142170  22.853   8.078  28.452  0.0422 -0.1027  0.1779
 1758BOLB   GL142171  23.212   8.097  28.256 -0.0826  0.1589 -0.0309
 1758BOLB   GL242172  23.318   8.331  28.262 -0.2094  0.0837 -0.0509
 1758BOLB   C1A42173  23.523   7.859  28.388  0.0891 -0.3377 -0.0329
 1758BOLB   C2A42174  23.928   7.956  28.304 -0.1727 -0.2510 -0.4938
 1758BOLB   C3A42175  24.308   7.958  28.386 -0.0472  0.1517  0.3607
 1758BOLB   C4A42176  24.636   7.715  28.311  0.0442 -0.0089  0.2702
 1758BOLB   C1B42177  23.641   8.524  28.154 -0.1000  0.2508  0.2208
 1758BOLB   C2B42178  24.058   8.496  28.029 -0.1403 -0.2146  0.1831
 1758BOLB   C3B42179  24.344   8.263  27.951  0.2973 -0.1048 -0.0415
 1758BOLB   C4B42180  24.494   8.047  27.690  0.1576  0.1856  0.1320
 1758BOLB   NC242181  26.898   7.429  27.240  0.0430  0.0386 -0.4112
 1758BOLB   PO242182  26.973   7.689  27.553  0.0853 -0.1238  0.1426
 1758BOLB   GL342183  26.612   7.679  27.698 -0.0797 -0.2481  0.0353
 1758BOLB   GL442184  26.508   7.386  27.845  0.0869 -0.1410  0.0005
 1758BOLB   C1C42185  26.143   7.701  27.803 -0.1782 -0.1265 -0.0078
 1758BOLB   C2C42186  25.800   7.541  27.947  0.1267 -0.1322 -0.1779
 1758BOLB   C3C42187  25.430   7.418  28.245  0.1314 -0.1872 -0.0857
 1758BOLB   C4C42188  25.007   7.417  28.173 -0.0228  0.2474 -0.3243
 1758BOLB   C1D42189  26.365   7.025  28.032 -0.2167  0.0416 -0.0748
 1758BOLB   C2D42190  26.062   6.838  28.171  0.0656 -0.1646  0.0714
 1758BOLB   C3D42191  25.660   6.961  28.093 -0.1400  0.1419 -0.1138
 1758BOLB   C4D42192  25.264   7.002  27.956  0.0994 -0.3659 -0.1024
 1759BOLB   NC142193  15.252  20.959  28.245  0.1076  0.3572 -0.4130
 1759BOLB   PO142194  15.038  20.776  27.873  0.1511  0.1816  0.0559
 1759BOLB   GL142195  15.159  21.141  27.780  0.3654 -0.1166  0.0577
 1759BOLB   GL242196  15.509  21.057  27.811 -0.0661  0.0723  0.0559
 1759BOLB   C1A42197  15.412  21.528  27.830  0.2438  0.0496  0.0018
 1759BOLB   C2A42198  15.759  21.812  27.698  0.1216 -0.0589 -0.1300
 1759BOLB   C3A42199  16.088  22.100  27.731  0.1781 -0.0647 -0.0009
 1759BOLB   C4A42200  16.462  22.241  27.786  0.3304 -0.0353 -0.0931
 1759BOLB   C1B42201  16.034  21.272  27.851  0.3435 -0.1435 -0.0028
 1759BOLB   C2B42202  16.469  21.576  27.842 -0.0524 -0.3520 -0.1411
 1759BOLB   C3B42203  16.776  21.876  28.080 -0.1182  0.1207  0.1246
 1759BOLB   C4B42204  17.216  22.000  28.021  0.2239 -0.1037  0.1764
 1759BOLB   NC242205  17.552  24.849  28.646 -0.1774  0.0744  0.2544
 1759BOLB   PO242206  17.481  24.586  28.318  0.4947 -0.0987 -0.0083
 1759BOLB   GL342207  17.203  24.304  28.135 -0.1811 -0.1665  0.0229
 1759BOLB   GL442208  17.059  24.280  27.798 -0.4460 -0.0193 -0.0104
 1759BOLB   C1C42209  16.921  23.876  28.209  0.1284 -0.1487  0.0658
 1759BOLB   C2C42210  16.638  23.568  28.133 -0.2246 -0.0798 -0.0361
 1759BOLB   C3C42211  16.535  23.176  28.221  0.2635  0.4391  0.1946
 1759BOLB   C4C42212  16.534  22.668  28.099 -0.3083 -0.0526 -0.2584
 1759BOLB   C1D42213  16.924  23.919  27.671  0.0575 -0.5016 -0.4802
 1759BOLB   C2D42214  16.967  23.492  27.774 -0.0578 -0.2908  0.2356
 1759BOLB   C3D42215  17.073  23.219  28.093  0.1861  0.0146  0.0153
 1759BOLB   C4D42216  17.122  22.971  28.252  0.1228  0.0867 -0.0787
 1760BOLB   NC142217   9.000  18.793  32.021 -0.4194  0.2095 -0.1909
 1760BOLB   PO142218   8.588  18.665  32.245 -0.0259  0.0386 -0.1125
 1760BOLB   GL142219   8.107  18.798  32.251  0.1016  0.1745 -0.3298
 1760BOLB   GL242220   7.817  18.596  32.046  0.3102 -0.0555  0.1413
 1760BOLB   C1A42221   7.782  19.041  32.356 -0.4590  0.0987  0.0067
 1760BOLB   C2A42222   7.528  19.403  32.409  0.3226  0.0657  0.1178
 1760BOLB   C3A42223   7.580  19.748  32.598  0.1261 -0.2127  0.1547
 1760BOLB   C4A42224   7.440  20.003  32.911  0.0234 -0.0051  0.0696
 1760BOLB   C1B42225   7.411  18.708  32.127 -0.1817  0.0980  0.0297
 1760BOLB   C2B42226   7.296  19.034  32.373  0.2905  0.3291 -0.1046
 1760BOLB   C3B42227   7.268  19.119  32.732  0.0791  0.0243  0.0946
 1760BOLB   C4B42228   7.155  19.497  32.871  0.0619  0.0432  0.1178
 1760BOLB   NC242229   5.880  21.187  34.639  0.0485 -0.0210  0.1854
 1760BOLB   PO242230   6.246  21.274  34.536  0.2952 -0.0652  0.0343
 1760BOLB   GL342231   6.380  20.978  34.297 -0.0154  0.2346  0.2411
 1760BOLB   GL442232   6.164  20.890  33.983 -0.1606 -0.1559  0.1121
 1760BOLB   C1C42233   6.417  20.513  34.199  0.1378 -0.2359 -0.2465
 1760BOLB   C2C42234   6.513  20.310  33.799  0.1455 -0.5326 -0.0314
 1760BOLB   C3C42235   6.731  20.465  33.405  0.1788 -0.1167 -0.2642
 1760BOLB   C4C42236   7.208  20.296  33.188  0.1269  0.0256 -0.1060
 1760BOLB   C1D42237   6.576  20.833  33.797 -0.0150  0.0129  0.2769
 1760BOLB   C2D42238   6.940  20.759  33.921  0.1332 -0.0792 -0.2569
 1760BOLB   C3D42239   7.384  20.714  34.082 -0.1373  0.2405 -0.1653
 1760BOLB   C4D42240   7.808  20.452  34.105  0.2320  0.0305 -0.4476
 1761BOLB   NC142241  13.198   8.844  37.762  0.1666  0.2659  0.2764
 1761BOLB   PO142242  13.152   8.453  38.086 -0.4289 -0.2097 -0.0066
 1761BOLB   GL142243  12.782   8.199  38.303 -0.0616 -0.0510  0.3493
 1761BOLB   GL242244  12.771   7.920  38.494 -0.2678 -0.0945 -0.0773
 1761BOLB   C1A42245  12.775   8.290  38.784  0.0028 -0.1736  0.0833
 1761BOLB   C2A42246  12.547   8.119  39.161  0.1619  0.3759 -0.0477
 1761BOLB   C3A42247  12.156   8.230  39.346  0.0017  0.0103 -0.1403
 1761BOLB   C4A42248  12.114   8.281  39.777  0.1434  0.1769  0.0911
 1761BOLB   C1B42249  12.816   7.790  38.881 -0.3505  0.0979  0.0442
 1761BOLB   C2B42250  12.831   7.552  39.269  0.0038 -0.2157  0.1285
 1761BOLB   C3B42251  12.528   7.518  39.533  0.1762  0.2807 -0.2399
 1761BOLB   C4B42252  12.215   7.256  39.682 -0.3673 -0.1328  0.0359
 1761BOLB   NC242253  11.407   7.075  42.025  0.0250  0.2712 -0.2913
 1761BOLB   PO242254  11.850   7.052  41.919 -0.1550  0.1608 -0.1367
 1761BOLB   GL342255  11.913   7.451  41.619  0.1015  0.0348 -0.0550
 1761BOLB   GL442256  11.707   7.455  41.331 -0.0377  0.0153 -0.0345
 1761BOLB   C1C42257  12.190   7.663  41.260 -0.0790 -0.2793 -0.2130
 1761BOLB   C2C42258  11.961   8.021  41.001 -0.0749 -0.3489 -0.1069
 1761BOLB   C3C42259  11.930   8.179  40.615 -0.2541  0.0157  0.0802
 1761BOLB   C4C42260  12.035   8.172  40.170  0.0238  0.1021 -0.0953
 1761BOLB   C1D42261  11.485   7.722  40.959  0.1139  0.1414  0.1606
 1761BOLB   C2D42262  11.474   8.056  40.660  0.1366  0.1714 -0.0547
 1761BOLB   C3D42263  11.557   8.271  40.286 -0.2320  0.0919  0.2041
 1761BOLB   C4D42264  11.709   8.608  39.984  0.0774 -0.1729  0.0940
 1762BOLB   NC142265  14.406   8.228  38.676 -0.2284  0.2189  0.1205
 1762BOLB   PO142266  14.800   8.174  38.623  0.0807 -0.0733  0.2389
 1762BOLB   GL142267  14.751   7.907  38.937 -0.0815  0.0823 -0.2911
 1762BOLB   GL242268  14.967   7.691  39.100 -0.0113  0.0505 -0.0923
 1762BOLB   C1A42269  14.417   7.603  39.071 -0.2095  0.0406  0.0310
 1762BOLB   C2A42270  14.587   7.449  39.367  0.1875  0.0905  0.2034
 1762BOLB   C3A42271  14.795   7.187  39.737 -0.1759 -0.0664  0.2362
 1762BOLB   C4A42272  14.802   7.202  40.248  0.0287 -0.0192  0.1509
 1762BOLB   C1B42273  15.072   7.320  39.245  0.4563  0.2653  0.1280
 1762BOLB   C2B42274  15.286   7.017  39.560 -0.3475  0.1367  0.2004
 1762BOLB   C3B42275  15.369   6.557  39.488  0.2370 -0.4388 -0.1410
 1762BOLB   C4B42276  15.504   6.246  39.537  0.0060  0.0576  0.0695
 1762BOLB   NC242277  14.946   6.056  42.390 -0.1286 -0.2938 -0.0726
 1762BOLB   PO242278  14.921   5.723  42.226 -0.0199 -0.3042 -0.0751
 1762BOLB   GL342279  15.007   6.110  41.888  0.3900 -0.1282 -0.4271
 1762BOLB   GL442280  14.844   6.476  41.825 -0.0587 -0.1430 -0.3074
 1762BOLB   C1C42281  15.129   6.181  41.433  0.2268  0.1559  0.1558
 1762BOLB   C2C42282  15.116   6.514  41.084 -0.1421 -0.2603 -0.1732
 1762BOLB   C3C42283  14.935   6.644  40.728  0.0689  0.1146 -0.2648
 1762BOLB   C4C42284  15.019   6.948  40.471  0.1356 -0.2343 -0.5197
 1762BOLB   C1D42285  14.969   6.735  41.591 -0.4523 -0.0737 -0.1888
 1762BOLB   C2D42286  14.646   6.698  41.298  0.0963  0.2485 -0.3772
 1762BOLB   C3D42287  14.530   6.850  40.859  0.0853  0.0103 -0.1275
 1762BOLB   C4D42288  14.453   6.616  40.543 -0.0643  0.0108 -0.5090
 1763BOLB   NC142289   5.964   9.930  37.773 -0.3112 -0.2739 -0.1137
 1763BOLB   PO142290   5.806  10.079  37.418  0.0785 -0.3040 -0.0913
 1763BOLB   GL142291   6.230  10.300  37.382 -0.1135 -0.0264 -0.2287
 1763BOLB   GL242292   6.298  10.342  37.768  0.3908 -0.0248  0.0042
 1763BOLB   C1A42293   6.451  10.278  37.062 -0.0534 -0.1652 -0.0408
 1763BOLB   C2A42294   6.524  10.023  36.735 -0.2770 -0.0334 -0.0747
 1763BOLB   C3A42295   6.603   9.737  36.490  0.5285 -0.1205 -0.1585
 1763BOLB   C4A42296   6.555   9.342  36.354  0.0748  0.1197 -0.2162
 1763BOLB   C1B42297   6.767  10.236  37.733 -0.0340  0.0808 -0.0304
 1763BOLB   C2B42298   6.893  10.241  37.277 -0.2203  0.0256  0.0073
 1763BOLB   C3B42299   7.202  10.325  36.915  0.1255  0.1541  0.3912
 1763BOLB   C4B42300   7.605  10.134  36.669 -0.0835 -0.0315 -0.1433
 1763BOLB   NC242301   6.201   6.810  37.129  0.3775  0.0197  0.2902
 1763BOLB   PO242302   6.161   7.214  36.776 -0.2517 -0.0682 -0.1981
 1763BOLB   GL342303   6.449   7.428  36.612 -0.1849  0.1477  0.1816
 1763BOLB   GL442304   6.815   7.331  36.442  0.0034 -0.2081 -0.0695
 1763BOLB   C1C42305   6.612   7.790  36.536  0.0081 -0.0425 -0.1073
 1763BOLB   C2C42306   6.538   8.254  36.338  0.0680  0.1010  0.1701
 1763BOLB   C3C42307   6.232   8.627  36.241 -0.0454  0.2649 -0.2623
 1763BOLB   C4C42308   6.287   9.049  36.329  0.0610  0.3775 -0.1267
 1763BOLB   C1D42309   7.119   7.345  36.115  0.2446 -0.0626  0.0148
 1763BOLB   C2D42310   7.382   7.642  35.882  0.2414 -0.0298 -0.2692
 1763BOLB   C3D42311   7.600   7.776  35.421 -0.1488 -0.1719 -0.0789
 1763BOLB   C4D42312   7.666   7.826  34.921  0.2273  0.2405  0.3485
 1764BOLB   NC142313  20.288   7.817  37.230 -0.1056 -0.0872  0.0698
 1764BOLB   PO142314  19.954   8.140  37.352 -0.0272 -0.0671 -0.0772
 1764BOLB   GL142315  20.181   8.102  37.770 -0.0973 -0.2725  0.2604
 1764BOLB   GL242316  20.278   8.356  37.995 -0.0427 -0.4353 -0.1229
 1764BOLB   C1A42317  20.323   7.848  38.143 -0.3802  0.0207  0.1636
 1764BOLB   C2A42318  20.258   7.442  38.287 -0.1144 -0.0442 -0.3090
 1764BOLB   C3A42319  20.400   7.194  38.612 -0.1930 -0.0203  0.1230
 1764BOLB   C4A42320  20.648   7.122  39.040  0.1195 -0.1938  0.4770
 1764BOLB   C1B42321  20.647   8.463  38.197  0.1504 -0.2515  0.2812
 1764BOLB   C2B42322  20.870   8.233  38.391 -0.0307 -0.0698  0.2268
 1764BOLB   C3B42323  21.049   7.942  38.739  0.0794  0.4350 -0.2674
 1764BOLB   C4B42324  21.451   7.818  38.898 -0.1868 -0.4233 -0.3278
 1764BOLB   NC242325  22.254   6.683  40.726 -0.1738 -0.5532 -0.0898
 1764BOLB   PO242326  22.200   6.515  40.374 -0.2677 -0.2223 -0.2075
 1764BOLB   GL342327  22.235   6.577  39.963  0.1843 -0.1462 -0.2283
 1764BOLB   GL442328  22.467   6.595  39.900 -0.0262 -0.2712  0.5070
 1764BOLB   C1C42329  22.054   6.946  39.792  0.1177  0.2385 -0.0845
 1764BOLB   C2C42330  21.562   6.775  39.668  0.2526 -0.4835  0.1270
 1764BOLB   C3C42331  21.295   6.915  39.446 -0.2149 -0.1618  0.2072
 1764BOLB   C4C42332  20.951   7.008  39.385  0.1919 -0.3599  0.1533
 1764BOLB   C1D42333  22.367   6.687  39.453  0.1406  0.0791 -0.2518
 1764BOLB   C2D42334  22.381   6.812  39.015 -0.5555  0.0882  0.1373
 1764BOLB   C3D42335  22.649   6.736  38.674  0.0388  0.0401  0.0301
 1764BOLB   C4D42336  22.780   6.944  38.291  0.0394 -0.0404 -0.2141
 1765BOLB   NC142337  14.657  20.143  24.495  0.0857 -0.2186  0.0194
 1765BOLB   PO142338  14.811  20.561  24.409  0.5663  0.0913  0.1988
 1765BOLB   GL142339  14.770  20.974  24.538 -0.2971  0.2164 -0.0736
 1765BOLB   GL242340  14.451  20.970  24.469 -0.1259  0.1493  0.0021
 1765BOLB   C1A42341  15.027  21.295  24.532  0.4236 -0.2594  0.0920
 1765BOLB   C2A42342  15.211  21.566  24.613  0.0117 -0.0714  0.3687
 1765BOLB   C3A42343  15.569  21.972  24.710 -0.0460 -0.0391 -0.1719
 1765BOLB   C4A42344  15.504  22.355  24.729  0.1273 -0.4956  0.0217
 1765BOLB   C1B42345  14.580  21.378  24.232  0.0154  0.2125 -0.2837
 1765BOLB   C2B42346  14.703  21.635  23.883  0.1658 -0.0406 -0.0362
 1765BOLB   C3B42347  14.855  21.819  23.500 -0.0055  0.0312 -0.1392
 1765BOLB   C4B42348  14.867  21.967  23.117  0.0456 -0.0896  0.1811
 1765BOLB   NC242349  16.406  24.906  25.059 -0.2276 -0.1469  0.0180
 1765BOLB   PO242350  16.112  24.589  25.076  0.0797  0.1686  0.2322
 1765BOLB   GL342351  16.245  24.201  25.025  0.2411 -0.0037  0.0785
 1765BOLB   GL442352  16.500  24.053  24.820 -0.0985  0.1245  0.3339
 1765BOLB   C1C42353  16.022  23.863  25.040  0.1493  0.2948  0.0030
 1765BOLB   C2C42354  15.889  23.507  25.025 -0.1694 -0.1515  0.2237
 1765BOLB   C3C42355  15.736  23.181  25.144 -0.2208  0.1860 -0.1449
 1765BOLB   C4C42356  15.572  22.722  25.128 -0.0766  0.1983 -0.0792
 1765BOLB   C1D42357  16.483  23.558  24.912  0.1478 -0.0507 -0.0342
 1765BOLB   C2D42358  16.326  23.130  25.077  0.0964  0.0741 -0.1703
 1765BOLB   C3D42359  16.153  22.757  25.121  0.0045 -0.1577 -0.0242
 1765BOLB   C4D42360  16.247  22.411  25.001 -0.0641  0.1732 -0.2732
 1766BOLB   NC142361  15.676  20.059  25.901  0.0486 -0.0338  0.4950
 1766BOLB   PO142362  15.835  20.443  25.625 -0.0457  0.2103 -0.1197
 1766BOLB   GL142363  15.839  20.628  25.296  0.1480 -0.0358  0.0424
 1766BOLB   GL242364  15.748  20.490  25.062  0.1382 -0.3319 -0.1687
 1766BOLB   C1A42365  16.013  21.017  25.270  0.0912 -0.0464 -0.1590
 1766BOLB   C2A42366  16.239  21.368  25.248  0.1878 -0.0959 -0.1973
 1766BOLB   C3A42367  16.317  21.886  25.276  0.2614  0.2326 -0.1776
 1766BOLB   C4A42368  16.459  22.282  25.524  0.3514  0.0149 -0.3655
 1766BOLB   C1B42369  15.807  20.853  24.761 -0.0187  0.1372  0.1102
 1766BOLB   C2B42370  15.968  21.174  24.662 -0.0467  0.1204 -0.1012
 1766BOLB   C3B42371  16.271  21.390  24.641 -0.2603  0.1442 -0.2833
 1766BOLB   C4B42372  16.653  21.524  24.829  0.0891  0.2419 -0.0747
 1766BOLB   NC242373  17.105  24.433  25.043 -0.0870 -0.1500 -0.0270
 1766BOLB   PO242374  16.685  24.519  24.986 -0.1091 -0.2217 -0.0588
 1766BOLB   GL342375  16.734  24.232  25.319  0.2004 -0.0562 -0.0434
 1766BOLB   GL442376  16.375  24.356  25.523 -0.0626  0.1164  0.0557
 1766BOLB   C1C42377  16.494  23.889  25.307 -0.0103 -0.2015 -0.3146
 1766BOLB   C2C42378  16.152  23.537  25.454  0.1840  0.1085 -0.0276
 1766BOLB   C3C42379  16.173  23.119  25.710  0.0867  0.0325  0.0234
 1766BOLB   C4C42380  16.270  22.742  25.648  0.1173 -0.2050  0.2396
 1766BOLB   C1D42381  16.188  24.057  25.672 -0.1694 -0.1877  0.2196
 1766BOLB   C2D42382  16.093  23.638  25.968  0.4928  0.4044  0.1536
 1766BOLB   C3D42383  15.890  23.234  26.158 -0.0928  0.2579  0.0604
 1766BOLB   C4D42384  16.024  22.743  26.071  0.1187 -0.0638  0.0796
 1767BOLB   NC142385   8.149  16.198  27.466  0.2365  0.0530 -0.2015
 1767BOLB   PO142386   8.480  16.244  27.131  0.2302  0.0717  0.1266
 1767BOLB   GL142387   8.025  16.477  27.041 -0.1665  0.2696  0.0214
 1767BOLB   GL242388   7.800  16.289  27.086 -0.1692 -0.2762  0.2568
 1767BOLB   C1A42389   7.927  16.870  26.951  0.0130 -0.1996  0.1620
 1767BOLB   C2A42390   7.655  17.180  26.828  0.1048  0.0027  0.0717
 1767BOLB   C3A42391   7.364  17.523  26.972  0.1218 -0.2257 -0.0239
 1767BOLB   C4A42392   6.867  17.612  26.992  0.0922  0.3511 -0.1918
 1767BOLB   C1B42393   7.407  16.257  26.777  0.0850 -0.1165 -0.3045
 1767BOLB   C2B42394   7.172  16.458  26.403 -0.1408  0.0870 -0.0340
 1767BOLB   C3B42395   7.078  16.844  26.487  0.1917 -0.3160 -0.2434
 1767BOLB   C4B42396   6.835  17.240  26.568 -0.0354 -0.2714 -0.0683
 1767BOLB   NC242397   5.068  18.619  26.560 -0.0595 -0.0845 -0.3258
 1767BOLB   PO242398   5.168  19.059  26.450  0.3734 -0.0446 -0.1053
 1767BOLB   GL342399   5.532  18.901  26.512 -0.2081  0.0597 -0.3711
 1767BOLB   GL442400   5.825  19.137  26.657  0.2132 -0.1179  0.0417
 1767BOLB   C1C42401   5.720  18.612  26.849 -0.0568 -0.1757 -0.0604
 1767BOLB   C2C42402   5.847  18.252  26.938  0.0831  0.1616  0.0500
 1767BOLB   C3C42403   6.064  17.850  27.013 -0.2131 -0.3792 -0.2788
 1767BOLB   C4C42404   6.445  17.614  27.092  0.1467 -0.0084 -0.0970
 1767BOLB   C1D42405   6.190  19.146  26.534 -0.1821 -0.0402 -0.1854
 1767BOLB   C2D42406   6.551  18.924  26.299  0.4385 -0.2581 -0.1248
 1767BOLB   C3D42407   6.753  18.706  25.966 -0.1373  0.0609 -0.0861
 1767BOLB   C4D42408   6.979  18.764  25.619 -0.2480  0.1857 -0.1965
 1768BOLB   NC142409  11.963  10.671  38.586  0.2098  0.1819  0.1449
 1768BOLB   PO142410  11.637  10.949  38.389  0.0037  0.1478 -0.0989
 1768BOLB   GL142411  11.377  10.842  38.751 -0.0890 -0.0251  0.1602
 1768BOLB   GL242412  11.593  10.635  38.967  0.1302  0.1867 -0.1863
 1768BOLB   C1A42413  11.110  10.556  38.993 -0.1025 -0.1794 -0.1193
 1768BOLB   C2A42414  11.077  10.257  39.332 -0.0925  0.1569 -0.0473
 1768BOLB   C3A42415  11.020   9.855  39.479  0.1510 -0.0192 -0.3357
 1768BOLB   C4A42416  10.999   9.513  39.755 -0.2865 -0.1311 -0.4728
 1768BOLB   C1B42417  11.582  10.434  39.319 -0.1903 -0.0244  0.0832
 1768BOLB   C2B42418  11.613  10.200  39.663 -0.4867 -0.0797 -0.0833
 1768BOLB   C3B42419  11.439   9.899  39.963  0.0589 -0.2933 -0.2910
 1768BOLB   C4B42420  11.463   9.495  40.166 -0.2478  0.4604  0.1187
 1768BOLB   NC242421  10.497   7.634  41.450 -0.0660  0.0021  0.1550
 1768BOLB   PO242422  10.066   7.732  41.193  0.0050  0.3185 -0.3590
 1768BOLB   GL342423  10.369   7.908  40.959 -0.3187  0.1307  0.1600
 1768BOLB   GL442424  10.724   7.768  41.016  0.0930 -0.0964  0.1942
 1768BOLB   C1C42425  10.585   8.008  40.623 -0.1675 -0.3645 -0.2506
 1768BOLB   C2C42426  10.618   8.278  40.281  0.5878  0.0808 -0.0387
 1768BOLB   C3C42427  10.671   8.750  40.133 -0.1182  0.2112 -0.0132
 1768BOLB   C4C42428  10.874   9.077  39.774 -0.2730 -0.2112  0.0276
 1768BOLB   C1D42429  11.047   7.710  40.686 -0.0504  0.0427  0.1322
 1768BOLB   C2D42430  11.104   8.021  40.318  0.5364  0.0212  0.0359
 1768BOLB   C3D42431  11.077   8.418  40.088 -0.2223 -0.1930  0.1872
 1768BOLB   C4D42432  11.167   8.617  39.724 -0.1543  0.2257  0.1512
 1769BOLB   NC142433  15.000   4.723  32.745  0.0889  0.3509  0.1583
 1769BOLB   PO142434  14.599   4.790  32.823 -0.2217  0.1155 -0.1283
 1769BOLB   GL142435  14.596   4.415  33.005  0.3473 -0.3631 -0.0418
 1769BOLB   GL242436  14.713   4.252  32.797  0.2050  0.1090  0.1914
 1769BOLB   C1A42437  14.418   3.921  33.070 -0.2575 -0.0953 -0.0847
 1769BOLB   C2A42438  14.362   3.509  33.283 -0.4177  0.0471 -0.0199
 1769BOLB   C3A42439  14.146   3.124  33.510  0.1146  0.1268 -0.0942
 1769BOLB   C4A42440  14.178   2.683  33.591 -0.1516  0.4832  0.2808
 1769BOLB   C1B42441  14.876   3.838  32.580  0.1058 -0.1875  0.2606
 1769BOLB   C2B42442  15.084   3.453  32.708 -0.2820 -0.0025 -0.1620
 1769BOLB   C3B42443  15.183   3.066  32.952 -0.2708  0.0606 -0.2856
 1769BOLB   C4B42444  14.721   3.006  33.158  0.0057 -0.0808  0.1257
 1769BOLB   NC242445  12.750   0.982  34.140 -0.3300 -0.2238 -0.0455
 1769BOLB   PO242446  13.155   0.844  34.040  0.1157 -0.2981 -0.0564
 1769BOLB   GL342447  13.473   1.176  33.799 -0.2364  0.0470 -0.2114
 1769BOLB   GL442448  13.286   1.265  33.627 -0.1083 -0.1535  0.0822
 1769BOLB   C1C42449  13.769   1.335  33.480  0.1374  0.1013 -0.0724
 1769BOLB   C2C42450  13.869   1.736  33.272  0.0769 -0.0283 -0.1088
 1769BOLB   C3C42451  14.111   2.084  33.260  0.1026  0.0669  0.0037
 1769BOLB   C4C42452  14.093   2.435  33.349  0.1198 -0.1414  0.2286
 1769BOLB   C1D42453  13.396   1.697  33.495  0.0628  0.4090  0.5439
 1769BOLB   C2D42454  13.594   2.184  33.449 -0.3908  0.1292 -0.1612
 1769BOLB   C3D42455  13.656   2.570  33.597 -0.6122 -0.1257  0.0451
 1769BOLB   C4D42456  13.722   3.014  33.753  0.3362  0.2227 -0.2253
 1770BOLB   NC142457  23.829  10.606  29.781 -0.2351 -0.0439  0.2104
 1770BOLB   PO142458  23.906  10.856  30.093 -0.1446  0.0249  0.0131
 1770BOLB   GL142459  24.253  10.809  30.340 -0.0267 -0.2168  0.1264
 1770BOLB   GL242460  24.458  11.059  30.560  0.2463  0.0138  0.1113
 1770BOLB   C1A42461  24.556  10.512  30.519 -0.1776  0.0331 -0.2570
 1770BOLB   C2A42462  24.828  10.113  30.505 -0.0486 -0.2843 -0.2000
 1770BOLB   C3A42463  25.187   9.989  30.673 -0.0175 -0.0381 -0.1200
 1770BOLB   C4A42464  25.624   9.616  30.543 -0.1059 -0.1124  0.0839
 1770BOLB   C1B42465  24.711  10.848  30.179 -0.0634  0.0109  0.0135
 1770BOLB   C2B42466  24.901  10.441  30.124 -0.2270  0.1567 -0.1117
 1770BOLB   C3B42467  25.214  10.200  29.761  0.4024 -0.0931 -0.2769
 1770BOLB   C4B42468  25.616  10.275  29.649 -0.1762  0.0313  0.4268
 1770BOLB   NC242469   0.943   9.056  31.437  0.3261 -0.0356  0.4081
 1770BOLB   PO242470   0.579   8.758  31.216 -0.0163 -0.2469 -0.3863
 1770BOLB   GL342471   0.139   8.782  31.155 -0.2213  0.1346  0.1244
 1770BOLB   GL442472  26.907   8.581  31.281 -0.1593 -0.0129  0.1214
 1770BOLB   C1C42473  26.962   8.967  30.757 -0.2504  0.1204 -0.1957
 1770BOLB   C2C42474  26.663   9.020  30.323  0.0254  0.2583 -0.0045
 1770BOLB   C3C42475  26.223   9.038  30.183 -0.2094 -0.1000 -0.0748
 1770BOLB   C4C42476  25.816   9.259  30.263  0.0701  0.0542  0.0405
 1770BOLB   C1D42477  26.573   8.785  31.052  0.0323  0.1188  0.0003
 1770BOLB   C2D42478  26.436   9.035  30.734  0.0310 -0.3812 -0.3766
 1770BOLB   C3D42479  26.721   9.392  30.646 -0.1328  0.0824  0.1605
 1770BOLB   C4D42480  26.977   9.611  30.897  0.3872 -0.0145  0.0172
 1771BOLB   NC142481  14.430  25.026  28.019  0.0826  0.0099  0.1145
 1771BOLB   PO142482  14.031  25.127  27.712 -0.0975 -0.1138  0.0252
 1771BOLB   GL142483  14.104  24.703  27.773  0.1146 -0.0460 -0.2304
 1771BOLB   GL242484  14.181  24.508  28.119 -0.1448 -0.0198  0.2238
 1771BOLB   C1A42485  14.173  24.233  27.718  0.0743  0.2201 -0.1743
 1771BOLB   C2A42486  14.538  23.913  27.705  0.2313 -0.2676 -0.1307
 1771BOLB   C3A42487  14.675  23.643  27.425 -0.1162  0.3155 -0.0516
 1771BOLB   C4A42488  14.770  23.339  27.052 -0.2396  0.1952  0.0156
 1771BOLB   C1B42489  14.419  24.169  28.301 -0.1350  0.2492 -0.1746
 1771BOLB   C2B42490  14.621  23.838  28.427  0.3037  0.0210 -0.1490
 1771BOLB   C3B42491  14.642  23.392  28.490 -0.0934  0.4575 -0.2156
 1771BOLB   C4B42492  14.467  22.971  28.524  0.0505  0.0938  0.0551
 1771BOLB   NC242493  16.820  24.494  26.329 -0.0399 -0.1618  0.1561
 1771BOLB   PO242494  16.507  24.687  26.498  0.1109 -0.1302 -0.0128
 1771BOLB   GL342495  16.367  24.168  26.421  0.4293  0.0459 -0.1277
 1771BOLB   GL442496  16.618  24.044  26.111 -0.2450  0.0768 -0.0547
 1771BOLB   C1C42497  16.081  23.836  26.461 -0.0480  0.3983  0.1345
 1771BOLB   C2C42498  15.685  23.690  26.474 -0.1650 -0.0922 -0.1175
 1771BOLB   C3C42499  15.486  23.408  26.598 -0.0388 -0.1574 -0.2260
 1771BOLB   C4C42500  15.042  23.236  26.716 -0.3320 -0.0423 -0.4266
 1771BOLB   C1D42501  16.542  23.639  26.299  0.2027  0.4050  0.0296
 1771BOLB   C2D42502  16.402  23.128  26.181  0.0419  0.0958  0.1271
 1771BOLB   C3D42503  16.560  22.620  26.075  0.0968  0.1136  0.0121
 1771BOLB   C4D42504  17.062  22.517  26.029  0.0957 -0.2627  0.0846
 1772BOLB   NC142505  10.469   6.287  31.706 -0.3942 -0.1799  0.0730
 1772BOLB   PO142506  10.911   6.219  31.907  0.1098 -0.0246 -0.0131
 1772BOLB   GL142507  10.689   5.915  32.077  0.0908 -0.1435  0.2138
 1772BOLB   GL242508  10.911   5.646  32.158  0.0296  0.1645  0.1488
 1772BOLB   C1A42509  10.333   5.663  31.918 -0.1511 -0.0150 -0.0257
 1772BOLB   C2A42510  10.171   5.242  31.809 -0.2961  0.0232 -0.0548
 1772BOLB   C3A42511  10.190   4.768  31.650 -0.0827  0.0089 -0.1857
 1772BOLB   C4A42512  10.217   4.384  31.878  0.1023  0.0868 -0.1639
 1772BOLB   C1B42513  10.629   5.358  32.170  0.0371 -0.1239 -0.0298
 1772BOLB   C2B42514  10.262   5.151  32.360 -0.1647  0.3457  0.1709
 1772BOLB   C3B42515   9.826   5.207  32.205  0.2973 -0.0466  0.2840
 1772BOLB   C4B42516   9.425   5.079  32.096 -0.2193 -0.2548  0.1016
 1772BOLB   NC242517   8.553   2.686  33.272  0.1250  0.0626 -0.0525
 1772BOLB   PO242518   8.687   3.068  33.205  0.0186 -0.0272  0.2874
 1772BOLB   GL342519   9.071   3.228  33.121  0.0895 -0.1136  0.0166
 1772BOLB   GL442520   9.276   3.024  32.886 -0.1273 -0.1899  0.1483
 1772BOLB   C1C42521   9.174   3.639  32.902  0.3386  0.2082  0.1754
 1772BOLB   C2C42522   9.675   3.801  32.757  0.3107  0.1963 -0.1938
 1772BOLB   C3C42523   9.819   3.839  32.370  0.1266 -0.2830 -0.2706
 1772BOLB   C4C42524   9.895   4.213  32.134 -0.3709 -0.0759  0.1175
 1772BOLB   C1D42525   9.616   3.258  32.946 -0.1782  0.0323 -0.2551
 1772BOLB   C2D42526   9.990   3.181  33.002 -0.0686  0.3685 -0.1343
 1772BOLB   C3D42527  10.374   3.346  33.053 -0.1483 -0.0174 -0.1435
 1772BOLB   C4D42528  10.687   3.625  32.962  0.2890  0.3127 -0.2514
 1773BOLB   NC142529  15.165  20.243  24.559 -0.3195 -0.0174  0.3617
 1773BOLB   PO142530  15.092  20.418  24.901  0.0428  0.1306 -0.1039
 1773BOLB   GL142531  15.198  20.792  25.027 -0.0641 -0.0652 -0.1192
 1773BOLB   GL242532  14.939  20.928  25.027 -0.3107 -0.0153  0.2748
 1773BOLB   C1A42533  15.431  21.167  24.907 -0.3171  0.0242 -0.1074
 1773BOLB   C2A42534  15.669  21.469  24.841  0.2658 -0.5750 -0.3587
 1773BOLB   C3A42535  16.027  21.746  24.908  0.1090 -0.1853 -0.3510
 1773BOLB   C4A42536  16.446  22.009  24.757 -0.0038  0.3469 -0.0356
 1773BOLB   C1B42537  14.948  21.389  25.091 -0.1043 -0.0457  0.0561
 1773BOLB   C2B42538  15.213  21.659  25.097 -0.2715  0.0500  0.1527
 1773BOLB   C3B42539  15.189  22.039  25.074  0.0718  0.2978  0.2423
 1773BOLB   C4B42540  15.096  22.097  24.635  0.0890  0.2450 -0.2712
 1773BOLB   NC242541  17.977  23.773  24.772 -0.1260 -0.2819 -0.4665
 1773BOLB   PO242542  17.613  23.844  24.458  0.2164  0.1299 -0.1212
 1773BOLB   GL342543  17.688  23.473  24.444  0.1501  0.1685 -0.1613
 1773BOLB   GL442544  17.585  23.291  24.138 -0.2401 -0.1409  0.2822
 1773BOLB   C1C42545  17.715  22.994  24.569  0.2049  0.0120  0.0392
 1773BOLB   C2C42546  17.324  22.750  24.633 -0.0921 -0.2215  0.0056
 1773BOLB   C3C42547  17.147  22.402  24.633 -0.0572 -0.0811  0.1127
 1773BOLB   C4C42548  16.813  22.156  24.704  0.2067  0.3665  0.2968
 1773BOLB   C1D42549  17.315  23.000  23.955  0.1155 -0.1641 -0.0675
 1773BOLB   C2D42550  17.278  22.482  23.979 -0.0451 -0.0827 -0.0798
 1773BOLB   C3D42551  17.247  22.230  23.598  0.1046 -0.1776  0.0098
 1773BOLB   C4D42552  17.322  21.968  23.230 -0.1725  0.0386  0.1388
 1774BOLB   NC142553  12.280  13.138  39.394 -0.1960  0.0589 -0.0862
 1774BOLB   PO142554  12.316  13.611  39.535 -0.4471 -0.2355 -0.2946
 1774BOLB   GL142555  12.105  13.812  39.838  0.0251 -0.1958  0.0078
 1774BOLB   GL242556  11.834  13.528  40.107 -0.1320  0.1632  0.1095
 1774BOLB   C1A42557  11.781  14.055  40.014  0.1200 -0.3417 -0.0411
 1774BOLB   C2A42558  11.408  14.183  40.339  0.3097  0.0371  0.2445
 1774BOLB   C3A42559  11.223  14.038  40.773 -0.1983 -0.2002  0.0710
 1774BOLB   C4A42560  11.361  14.026  41.180  0.0500  0.2138  0.3943
 1774BOLB   C1B42561  11.316  13.634  39.935 -0.3405  0.5285  0.0254
 1774BOLB   C2B42562  11.126  13.887  40.034 -0.4117  0.0005  0.1675
 1774BOLB   C3B42563  10.715  14.137  39.957 -0.0989 -0.0627  0.1040
 1774BOLB   C4B42564  10.364  14.520  39.969  0.0364  0.0898 -0.2358
 1774BOLB   NC242565  11.508  13.427  43.432  0.1662  0.1720 -0.2085
 1774BOLB   PO242566  11.409  13.000  43.337  0.0474 -0.0974 -0.1464
 1774BOLB   GL342567  11.407  12.917  42.943  0.4591 -0.1595 -0.0711
 1774BOLB   GL442568  11.778  12.820  42.877  0.2385  0.5093  0.0243
 1774BOLB   C1C42569  11.249  13.010  42.490  0.0272 -0.0298  0.1089
 1774BOLB   C2C42570  11.063  13.085  42.094 -0.1787 -0.1271 -0.1964
 1774BOLB   C3C42571  11.111  13.526  41.919  0.0718 -0.2684  0.2291
 1774BOLB   C4C42572  11.309  13.820  41.680 -0.0591  0.0256  0.0213
 1774BOLB   C1D42573  12.158  12.699  42.704 -0.1499 -0.3480 -0.3316
 1774BOLB   C2D42574  12.327  12.581  42.334  0.1937  0.1077 -0.0241
 1774BOLB   C3D42575  12.403  12.751  41.973 -0.1634  0.3593  0.1845
 1774BOLB   C4D42576  12.370  13.008  41.521  0.1807  0.1037 -0.2223
 1775BOLB   NC142577  11.602  18.034  24.059  0.2328 -0.2768  0.1323
 1775BOLB   PO142578  11.906  18.308  23.864 -0.0511  0.0152  0.1967
 1775BOLB   GL142579  11.781  18.818  23.635 -0.2341  0.0642 -0.2877
 1775BOLB   GL242580  11.384  18.956  23.756 -0.2903  0.1614 -0.1321
 1775BOLB   C1A42581  11.681  19.205  23.383 -0.4904 -0.0005  0.0134
 1775BOLB   C2A42582  11.789  19.327  22.980 -0.0953  0.0772 -0.0282
 1775BOLB   C3A42583  11.704  19.257  22.591 -0.0410 -0.1284  0.1011
 1775BOLB   C4A42584  11.568  19.506  22.333 -0.0295  0.1759  0.2237
 1775BOLB   C1B42585  11.028  19.136  23.678 -0.1492  0.0291  0.2923
 1775BOLB   C2B42586  10.662  19.493  23.691 -0.2108 -0.0922 -0.2815
 1775BOLB   C3B42587  10.403  19.928  23.736 -0.2508  0.3241 -0.1737
 1775BOLB   C4B42588  10.419  20.287  23.957  0.1620 -0.2178 -0.3342
 1775BOLB   NC242589   9.271  20.676  21.291  0.2666 -0.2680 -0.0582
 1775BOLB   PO242590   9.650  20.334  21.221  0.0317  0.0172 -0.0527
 1775BOLB   GL342591   9.949  20.330  21.597 -0.1429 -0.3152  0.1994
 1775BOLB   GL442592  10.237  20.536  21.512  0.4539 -0.0681 -0.0758
 1775BOLB   C1C42593  10.296  20.140  21.834 -0.0873  0.0854 -0.0587
 1775BOLB   C2C42594  10.748  20.141  21.937 -0.0886 -0.2662 -0.1940
 1775BOLB   C3C42595  11.063  20.109  22.076 -0.3530  0.0031 -0.0955
 1775BOLB   C4C42596  11.373  19.856  22.209 -0.5731 -0.2678  0.5085
 1775BOLB   C1D42597  10.315  20.118  21.282 -0.1913  0.3269  0.5261
 1775BOLB   C2D42598  10.598  19.756  21.452  0.1645  0.1711 -0.0597
 1775BOLB   C3D42599  10.518  19.660  21.864 -0.0077 -0.1388  0.1013
 1775BOLB   C4D42600  10.699  19.713  22.334  0.1914  0.0484 -0.0607
 1776BOLB   NC142601  22.770   8.556  26.974 -0.1611  0.1305  0.0979
 1776BOLB   PO142602  22.715   8.929  27.173  0.3521 -0.0538 -0.2909
 1776BOLB   GL142603  23.196   8.725  27.176  0.2260  0.0388  0.0598
 1776BOLB   GL242604  23.223   8.676  26.857  0.1278 -0.2783  0.1866
 1776BOLB   C1A42605  23.617   8.678  27.267  0.1014 -0.0961  0.1936
 1776BOLB   C2A42606  23.981   8.571  27.073  0.0141  0.1249  0.1079
 1776BOLB   C3A42607  24.382   8.511  26.858 -0.1633 -0.3093 -0.1626
 1776BOLB   C4A42608  24.742   8.320  26.820 -0.0987 -0.3522 -0.0353
 1776BOLB   C1B42609  23.561   8.388  26.647  0.1759  0.0189  0.1566
 1776BOLB   C2B42610  23.857   8.367  26.416 -0.4419 -0.2293  0.1375
 1776BOLB   C3B42611  24.066   8.115  26.265  0.2847 -0.0774  0.0718
 1776BOLB   C4B42612  24.387   7.817  26.135  0.5231 -0.1325  0.2623
 1776BOLB   NC242613   0.017   8.215  27.411 -0.1442 -0.0809  0.0884
 1776BOLB   PO242614   0.000   7.918  27.029 -0.0814  0.1680 -0.0076
 1776BOLB   GL342615  26.691   7.942  27.189  0.2597 -0.1369  0.1406
 1776BOLB   GL442616  26.631   8.270  27.158 -0.1351  0.2203  0.0094
 1776BOLB   C1C42617  26.315   7.871  27.387 -0.0110 -0.0363  0.2061
 1776BOLB   C2C42618  25.985   8.134  27.440  0.0813  0.0929  0.1821
 1776BOLB   C3C42619  25.529   8.214  27.223 -0.1312  0.0058 -0.3644
 1776BOLB   C4C42620  25.092   8.378  27.148 -0.1155  0.0364 -0.2870
 1776BOLB   C1D42621  26.190   8.318  26.997  0.1871 -0.1187  0.3495
 1776BOLB   C2D42622  25.821   8.437  26.827  0.1291  0.2499 -0.1243
 1776BOLB   C3D42623  25.429   8.661  26.908 -0.3308 -0.1511 -0.1357
 1776BOLB   C4D42624  25.005   8.845  26.916 -0.0654  0.5663  0.0735
 1777BOLB   NC142625  22.729  11.368  34.616  0.0736  0.5075 -0.0052
 1777BOLB   PO142626  23.059  11.680  34.587 -0.0439 -0.2019 -0.0351
 1777BOLB   GL142627  23.543  11.740  34.738 -0.1723  0.1843  0.1390
 1777BOLB   GL242628  23.743  12.025  34.622 -0.5843  0.1136 -0.1398
 1777BOLB   C1A42629  23.941  11.658  34.883 -0.2791  0.4877 -0.4390
 1777BOLB   C2A42630  24.410  11.499  34.697  0.3048 -0.0595 -0.1055
 1777BOLB   C3A42631  24.728  11.252  34.588 -0.2355  0.0505 -0.0237
 1777BOLB   C4A42632  25.086  10.849  34.492  0.1887 -0.0393 -0.0167
 1777BOLB   C1B42633  24.087  12.239  34.849  0.1519  0.1028 -0.0391
 1777BOLB   C2B42634  24.336  12.417  34.903 -0.0176 -0.0739 -0.3676
 1777BOLB   C3B42635  24.613  12.691  34.742  0.0333  0.0311  0.3004
 1777BOLB   C4B42636  25.095  12.755  34.818  0.0649 -0.1294 -0.4031
 1777BOLB   NC242637  26.961  10.712  36.035 -0.0527  0.0310  0.0333
 1777BOLB   PO242638   0.092  10.500  35.687 -0.1216 -0.3459  0.0795
 1777BOLB   GL342639  26.796  10.475  35.594  0.2620 -0.0200  0.2569
 1777BOLB   GL442640  26.615  10.094  35.447  0.4040  0.0976 -0.1211
 1777BOLB   C1C42641  26.388  10.538  35.219  0.2302 -0.0721 -0.2218
 1777BOLB   C2C42642  26.121  10.823  35.094 -0.3752  0.1356 -0.2200
 1777BOLB   C3C42643  25.771  10.863  34.873  0.2700  0.0713 -0.2815
 1777BOLB   C4C42644  25.490  10.883  34.603  0.0406  0.0273 -0.0995
 1777BOLB   C1D42645  26.293  10.242  35.593  0.1454  0.1116  0.0258
 1777BOLB   C2D42646  25.992  10.395  35.885  0.3772  0.2395  0.1825
 1777BOLB   C3D42647  25.487  10.594  35.892  0.3450 -0.1435 -0.0077
 1777BOLB   C4D42648  25.149  10.551  36.061 -0.0819 -0.1175  0.1896
 1778BOLB   NC142649  21.992   6.014  28.406  0.1956  0.0987 -0.0456
 1778BOLB   PO142650  21.750   5.803  28.843  0.0244  0.0229 -0.1361
 1778BOLB   GL142651  21.965   5.426  28.647  0.2222 -0.1052 -0.2340
 1778BOLB   GL242652  21.858   5.530  28.340  0.1134  0.1474 -0.0442
 1778BOLB   C1A42653  22.114   5.023  28.605 -0.3312  0.0719  0.2838
 1778BOLB   C2A42654  22.085   4.678  28.805  0.2708  0.1109 -0.1208
 1778BOLB   C3A42655  22.240   4.365  28.908  0.0955 -0.1478 -0.0203
 1778BOLB   C4A42656  22.317   4.106  28.646 -0.0584 -0.2100 -0.1727
 1778BOLB   C1B42657  22.373   5.375  28.257  0.2068  0.1231 -0.0926
 1778BOLB   C2B42658  22.672   5.110  28.499 -0.0576 -0.1265  0.2726
 1778BOLB   C3B42659  22.896   4.832  28.509  0.0732 -0.0004 -0.2334
 1778BOLB   C4B42660  23.190   4.561  28.364  0.0230  0.0428 -0.0328
 1778BOLB   NC242661  23.827   2.225  28.651 -0.3181 -0.0235  0.0363
 1778BOLB   PO242662  23.810   2.349  28.953 -0.3427 -0.0832  0.2033
 1778BOLB   GL342663  23.603   2.720  28.893  0.1139 -0.0027 -0.0124
 1778BOLB   GL442664  23.653   2.820  29.138  0.2637 -0.2184 -0.2436
 1778BOLB   C1C42665  23.445   3.025  28.568  0.0207 -0.0260 -0.4355
 1778BOLB   C2C42666  23.118   3.146  28.362  0.2496  0.2884  0.5856
 1778BOLB   C3C42667  22.720   3.335  28.365  0.0704  0.3882  0.0625
 1778BOLB   C4C42668  22.579   3.805  28.526 -0.0310 -0.0082 -0.0406
 1778BOLB   C1D42669  23.461   3.222  29.030 -0.0639 -0.2147 -0.1991
 1778BOLB   C2D42670  23.208   3.510  28.786  0.0195 -0.1979 -0.0404
 1778BOLB   C3D42671  23.042   3.702  28.438  0.1651  0.2271  0.2531
 1778BOLB   C4D42672  22.889   4.024  28.238  0.0398  0.0736  0.0498
 1779BOLB   NC142673  22.298  10.703  35.804  0.3928  0.0674  0.0697
 1779BOLB   PO142674  22.547  10.987  35.741  0.4437 -0.1354 -0.2917
 1779BOLB   GL142675  22.844  10.901  36.027  0.0376 -0.1717  0.1453
 1779BOLB   GL242676  23.171  11.063  35.949  0.1698 -0.1147 -0.0929
 1779BOLB   C1A42677  23.146  10.901  36.461 -0.0276 -0.1389  0.2657
 1779BOLB   C2A42678  23.255  10.629  36.746 -0.1690 -0.1505  0.1452
 1779BOLB   C3A42679  23.510  10.395  37.077 -0.1198  0.2865  0.1737
 1779BOLB   C4A42680  23.597  10.025  37.406 -0.0981  0.0622  0.1735
 1779BOLB   C1B42681  23.517  10.907  35.963 -0.0522  0.1006  0.1103
 1779BOLB   C2B42682  23.864  10.552  36.197  0.2043 -0.1125  0.1370
 1779BOLB   C3B42683  24.216  10.676  36.456 -0.2330 -0.1731  0.1910
 1779BOLB   C4B42684  24.676  10.781  36.261  0.0982 -0.2044  0.2063
 1779BOLB   NC242685  25.838   9.929  38.114 -0.0826  0.2697  0.0505
 1779BOLB   PO242686  25.722   9.502  37.974  0.0589  0.0531 -0.0173
 1779BOLB   GL342687  25.388   9.681  38.113 -0.2837 -0.3987 -0.0322
 1779BOLB   GL442688  25.281   9.436  38.231 -0.0495 -0.1330 -0.1040
 1779BOLB   C1C42689  24.945   9.840  38.078  0.1794  0.1803 -0.0140
 1779BOLB   C2C42690  24.562  10.055  37.975 -0.1187  0.0918 -0.0619
 1779BOLB   C3C42691  24.238   9.844  37.815 -0.0087  0.3265  0.0657
 1779BOLB   C4C42692  24.015  10.027  37.397  0.2905 -0.0402  0.0287
 1779BOLB   C1D42693  25.163   9.442  37.664 -0.2540 -0.0646 -0.1120
 1779BOLB   C2D42694  24.908   9.424  37.262  0.1641  0.0735  0.0373
 1779BOLB   C3D42695  24.732   9.651  37.118  0.0793  0.0338 -0.2543
 1779BOLB   C4D42696  24.321   9.808  37.084 -0.0570  0.2313  0.0566
 1780BOLB   NC142697  11.209  20.282  32.524  0.1286  0.0626 -0.2448
 1780BOLB   PO142698  10.811  20.215  32.313 -0.0333 -0.3685  0.0206
 1780BOLB   GL142699  10.446  20.486  32.433 -0.1486  0.2858 -0.1974
 1780BOLB   GL242700  10.048  20.442  32.355 -0.2103  0.0258  0.1196
 1780BOLB   C1A42701  10.325  20.936  32.320  0.1767  0.0345  0.0780
 1780BOLB   C2A42702   9.986  21.298  32.232  0.0553 -0.1432 -0.4204
 1780BOLB   C3A42703   9.687  21.690  32.227  0.1018 -0.5308 -0.1593
 1780BOLB   C4A42704   9.283  21.654  32.392 -0.0316  0.2080 -0.0299
 1780BOLB   C1B42705   9.723  20.755  32.351  0.0109  0.0446 -0.2408
 1780BOLB   C2B42706   9.575  21.185  32.538 -0.1776  0.3978  0.2547
 1780BOLB   C3B42707   9.430  21.479  32.870  0.0892  0.0284 -0.1605
 1780BOLB   C4B42708   9.445  21.348  33.210  0.1349 -0.0531 -0.2619
 1780BOLB   NC242709   7.578  23.340  32.671 -0.0573  0.0821 -0.1793
 1780BOLB   PO242710   7.779  23.364  32.860  0.1912  0.1248  0.1489
 1780BOLB   GL342711   8.076  23.168  32.934 -0.2296  0.1611  0.0812
 1780BOLB   GL442712   7.896  22.783  32.987 -0.2028 -0.0087  0.2398
 1780BOLB   C1C42713   8.274  22.880  32.654 -0.0752 -0.0702 -0.1964
 1780BOLB   C2C42714   8.352  22.446  32.652 -0.0279  0.1175  0.1735
 1780BOLB   C3C42715   8.695  22.180  32.708 -0.3327 -0.0433 -0.1789
 1780BOLB   C4C42716   9.021  21.932  32.664  0.1219  0.2390  0.2278
 1780BOLB   C1D42717   8.096  22.467  33.346 -0.2969  0.0330  0.3054
 1780BOLB   C2D42718   8.201  22.030  33.492 -0.1749  0.0547 -0.0576
 1780BOLB   C3D42719   8.576  21.765  33.423  0.1844 -0.2134 -0.2021
 1780BOLB   C4D42720   8.687  21.467  33.710  0.1176  0.1659 -0.1218
 1781BOLB   NC142721  23.372  13.098  29.599  0.2707 -0.0385 -0.2268
 1781BOLB   PO142722  23.488  12.771  29.622  0.1032 -0.1062  0.1652
 1781BOLB   GL142723  23.938  12.632  29.561 -0.1807 -0.4409 -0.0989
 1781BOLB   GL242724  24.047  12.613  29.899  0.3162 -0.5869  0.0968
 1781BOLB   C1A42725  24.270  12.546  29.349  0.1761  0.3107  0.1973
 1781BOLB   C2A42726  24.694  12.604  29.311 -0.1894 -0.1612  0.0109
 1781BOLB   C3A42727  25.081  12.605  29.134 -0.2947  0.1603  0.0285
 1781BOLB   C4A42728  25.436  12.765  29.042 -0.1921 -0.0923 -0.2431
 1781BOLB   C1B42729  24.412  12.756  29.795 -0.2834  0.2657  0.3619
 1781BOLB   C2B42730  24.789  12.851  29.799  0.1021 -0.0128  0.1635
 1781BOLB   C3B42731  25.242  12.788  29.746 -0.3026 -0.0369  0.1101
 1781BOLB   C4B42732  25.521  12.498  29.554 -0.0217  0.0605  0.1033
 1781BOLB   NC242733   0.751  12.198  28.479  0.0333 -0.0122 -0.2871
 1781BOLB   PO242734   0.568  12.598  28.163 -0.0177 -0.0883 -0.0301
 1781BOLB   GL342735   0.171  12.604  28.115 -0.2821  0.1616  0.0203
 1781BOLB   GL442736   0.127  12.589  27.710 -0.1558  0.2158 -0.0198
 1781BOLB   C1C42737  26.881  12.651  28.257 -0.0045  0.1537 -0.1137
 1781BOLB   C2C42738  26.407  12.633  28.263  0.0569 -0.1411  0.1392
 1781BOLB   C3C42739  26.017  12.695  28.431 -0.1077 -0.1461  0.3478
 1781BOLB   C4C42740  25.836  12.938  28.796  0.1412 -0.2558  0.0964
 1781BOLB   C1D42741  26.714  12.489  27.601  0.0880  0.2032  0.1106
 1781BOLB   C2D42742  26.553  12.092  27.510  0.0393 -0.2560 -0.1849
 1781BOLB   C3D42743  26.095  11.983  27.570  0.1058  0.1107  0.0897
 1781BOLB   C4D42744  25.735  12.168  27.653 -0.2227  0.0513  0.0205
 1782BOLB   NC142745   7.735  13.228  32.683  0.0648  0.3329 -0.2474
 1782BOLB   PO142746   7.461  12.999  32.315  0.0684 -0.0355  0.1294
 1782BOLB   GL142747   7.108  12.924  32.666  0.0566 -0.0225  0.1909
 1782BOLB   GL242748   6.919  12.930  32.357  0.1226  0.0940 -0.1278
 1782BOLB   C1A42749   6.748  12.795  32.843  0.0925  0.1390  0.1857
 1782BOLB   C2A42750   6.323  12.626  32.962 -0.0348  0.2278  0.2604
 1782BOLB   C3A42751   6.060  12.254  33.064 -0.0820  0.1454 -0.2448
 1782BOLB   C4A42752   5.962  12.025  33.406 -0.1891  0.0188 -0.0033
 1782BOLB   C1B42753   6.561  12.977  32.219  0.0377  0.0025  0.1066
 1782BOLB   C2B42754   6.155  13.040  32.174 -0.0915 -0.2785  0.2761
 1782BOLB   C3B42755   5.889  13.151  32.535 -0.0339 -0.1826  0.1158
 1782BOLB   C4B42756   5.864  13.334  32.822  0.1163  0.0026  0.1669
 1782BOLB   NC242757   3.689  12.082  33.656 -0.0665 -0.0148  0.1935
 1782BOLB   PO242758   3.822  12.422  33.945  0.0753 -0.3626 -0.1275
 1782BOLB   GL342759   4.170  12.019  33.961 -0.3105 -0.0861  0.0243
 1782BOLB   GL442760   4.160  11.842  33.568 -0.0639 -0.1598  0.0064
 1782BOLB   C1C42761   4.628  11.985  34.146 -0.2752  0.1224 -0.1338
 1782BOLB   C2C42762   5.091  12.192  34.238 -0.3715 -0.0629  0.1412
 1782BOLB   C3C42763   5.397  12.218  34.011  0.2334 -0.0847  0.0280
 1782BOLB   C4C42764   5.747  12.194  33.736 -0.0000 -0.1598  0.0781
 1782BOLB   C1D42765   4.309  11.896  33.213 -0.1947  0.2873  0.3254
 1782BOLB   C2D42766   4.713  11.834  33.020 -0.2066  0.1029 -0.0268
 1782BOLB   C3D42767   5.000  11.450  32.910  0.0379 -0.3523 -0.1793
 1782BOLB   C4D42768   5.266  11.113  32.934 -0.1863  0.2433  0.0334
 1783BOLB   NC142769  11.607  22.195  20.676  0.1885  0.0182  0.2380
 1783BOLB   PO142770  11.909  22.063  20.817  0.0059 -0.0148 -0.2288
 1783BOLB   GL142771  12.109  22.083  21.168  0.0454  0.0455  0.1422
 1783BOLB   GL242772  12.239  22.357  21.295  0.2757 -0.1549  0.0311
 1783BOLB   C1A42773  12.429  21.914  21.484 -0.0422  0.0492  0.2419
 1783BOLB   C2A42774  12.893  21.683  21.585 -0.2315  0.0376  0.3098
 1783BOLB   C3A42775  13.002  21.290  21.673 -0.0000 -0.3326  0.2281
 1783BOLB   C4A42776  12.987  20.866  21.362 -0.1679 -0.0010 -0.1649
 1783BOLB   C1B42777  12.525  22.417  21.616 -0.2500  0.1792 -0.0981
 1783BOLB   C2B42778  12.675  22.120  21.878 -0.0809 -0.3136  0.0508
 1783BOLB   C3B42779  12.766  21.845  22.138 -0.0808  0.3037 -0.1446
 1783BOLB   C4B42780  12.790  21.435  22.098 -0.2569  0.0224 -0.3618
 1783BOLB   NC242781  11.864  20.224  19.078  0.0547 -0.2611  0.0205
 1783BOLB   PO242782  11.972  20.644  19.295 -0.0826  0.1310  0.1100
 1783BOLB   GL342783  12.099  20.544  19.623 -0.0777  0.2745 -0.0855
 1783BOLB   GL442784  12.118  20.784  19.786  0.1317  0.2275  0.3538
 1783BOLB   C1C42785  12.127  20.412  20.091  0.1572  0.1759 -0.3467
 1783BOLB   C2C42786  12.421  20.423  20.440  0.1535 -0.1722  0.0798
 1783BOLB   C3C42787  12.695  20.645  20.634  0.3055 -0.0248 -0.0394
 1783BOLB   C4C42788  12.671  20.719  21.084  0.0751 -0.0293 -0.5495
 1783BOLB   C1D42789  12.603  20.537  19.804 -0.0319 -0.0292 -0.2829
 1783BOLB   C2D42790  12.803  20.379  20.108 -0.2827 -0.2150  0.3031
 1783BOLB   C3D42791  12.950  20.273  20.431 -0.1396 -0.0423  0.0835
 1783BOLB   C4D42792  13.260  19.969  20.660  0.2423  0.2439  0.0268
 1784BOLB   NC142793  15.379   7.667  16.079 -0.0361 -0.1935  0.0352
 1784BOLB   PO142794  15.716   7.495  16.242 -0.0906 -0.0005 -0.2510
 1784BOLB   GL142795  15.773   7.650  16.663 -0.0463 -0.3419 -0.0514
 1784BOLB   GL242796  15.695   7.469  16.980 -0.2018  0.1346  0.2168
 1784BOLB   C1A42797  15.543   8.049  16.941 -0.1243  0.0859 -0.1229
 1784BOLB   C2A42798  15.512   8.367  17.147 -0.3435 -0.1738 -0.3149
 1784BOLB   C3A42799  15.330   8.713  17.457 -0.2363 -0.1588 -0.0895
 1784BOLB   C4A42800  14.914   8.989  17.378 -0.3936 -0.0836 -0.1851
 1784BOLB   C1B42801  15.912   7.887  17.195 -0.1012 -0.2845  0.3189
 1784BOLB   C2B42802  15.866   8.273  17.449  0.0656 -0.2846  0.0164
 1784BOLB   C3B42803  16.173   8.631  17.495  0.2010  0.2195 -0.0882
 1784BOLB   C4B42804  16.586   8.434  17.615  0.3044  0.0986  0.0117
 1784BOLB   NC242805  13.729   9.270  16.099 -0.1360 -0.1668  0.1213
 1784BOLB   PO242806  13.392   9.041  16.347 -0.2623 -0.0702 -0.0420
 1784BOLB   GL342807  13.853   9.124  16.555 -0.2658  0.2215 -0.0726
 1784BOLB   GL442808  13.954   8.898  16.698 -0.0053 -0.0966 -0.1477
 1784BOLB   C1C42809  13.936   9.596  16.895  0.0310  0.1479 -0.0953
 1784BOLB   C2C42810  14.136   9.429  17.239 -0.1759  0.0899  0.3291
 1784BOLB   C3C42811  14.341   9.405  17.597  0.0008  0.2817  0.1842
 1784BOLB   C4C42812  14.619   9.238  17.649  0.1687 -0.0561 -0.1863
 1784BOLB   C1D42813  13.899   8.961  17.140  0.0696 -0.3528 -0.1524
 1784BOLB   C2D42814  13.941   9.139  17.568  0.2522 -0.0144 -0.0628
 1784BOLB   C3D42815  14.288   9.063  17.999  0.1756 -0.2058  0.0200
 1784BOLB   C4D42816  14.723   8.969  18.136 -0.1586  0.1892  0.1147
 1785BOLB   NC142817  22.225   6.671  27.048  0.2666 -0.1568  0.0479
 1785BOLB   PO142818  22.490   7.081  27.172  0.3482  0.0924 -0.1236
 1785BOLB   GL142819  22.820   6.913  27.289  0.0260  0.1668  0.1171
 1785BOLB   GL242820  22.849   6.647  27.200  0.0877 -0.2175  0.1778
 1785BOLB   C1A42821  23.320   6.860  27.413 -0.4204  0.0592 -0.0606
 1785BOLB   C2A42822  23.711   7.016  27.319  0.0558 -0.6016 -0.3350
 1785BOLB   C3A42823  24.094   7.177  27.132  0.1265  0.1340 -0.2627
 1785BOLB   C4A42824  24.513   7.359  27.032  0.1357  0.0486 -0.0865
 1785BOLB   C1B42825  23.167   6.317  27.052 -0.1535 -0.4236  0.2271
 1785BOLB   C2B42826  23.619   6.083  27.065  0.0696  0.3051  0.0557
 1785BOLB   C3B42827  23.880   5.791  26.992  0.0126  0.0662  0.1717
 1785BOLB   C4B42828  24.155   5.414  26.975 -0.1921  0.1927  0.2786
 1785BOLB   NC242829   0.396   6.907  27.108 -0.2800  0.1329  0.0320
 1785BOLB   PO242830  27.002   6.906  26.926  0.0393 -0.1367  0.2430
 1785BOLB   GL342831  26.631   7.158  26.900  0.2249 -0.0014  0.2918
 1785BOLB   GL442832  26.452   7.108  27.142 -0.0793  0.0571  0.1849
 1785BOLB   C1C42833  26.167   7.046  26.765  0.1590 -0.0872 -0.1290
 1785BOLB   C2C42834  25.744   6.931  26.653 -0.0542  0.2396 -0.0114
 1785BOLB   C3C42835  25.344   7.058  26.774  0.1187  0.0277  0.1401
 1785BOLB   C4C42836  24.978   7.341  26.919  0.0610 -0.0811 -0.0477
 1785BOLB   C1D42837  26.236   7.359  27.382  0.0597 -0.1902 -0.1463
 1785BOLB   C2D42838  25.847   7.619  27.384  0.2303 -0.0173 -0.0179
 1785BOLB   C3D42839  25.591   7.859  27.616 -0.3729  0.0012 -0.1773
 1785BOLB   C4D42840  25.164   8.055  27.499  0.3329  0.0600 -0.0403
 1786BOLB   NC142841  14.581   6.895  22.831 -0.0360 -0.3176  0.0952
 1786BOLB   PO142842  14.299   6.610  22.885  0.2431 -0.2522 -0.2627
 1786BOLB   GL142843  14.068   6.314  22.700 -0.0014 -0.4598  0.0665
 1786BOLB   GL242844  14.360   6.236  22.521  0.0008 -0.2087 -0.0643
 1786BOLB   C1A42845  13.825   6.075  22.363 -0.0258  0.1318  0.0139
 1786BOLB   C2A42846  13.535   6.010  22.173  0.1608 -0.1931  0.0407
 1786BOLB   C3A42847  13.272   6.166  21.885 -0.1233 -0.0381  0.2850
 1786BOLB   C4A42848  13.027   6.240  21.581 -0.4806  0.0817  0.1810
 1786BOLB   C1B42849  14.488   5.826  22.425 -0.0350 -0.2720 -0.0715
 1786BOLB   C2B42850  14.446   5.731  22.036  0.0394 -0.0425 -0.3206
 1786BOLB   C3B42851  14.376   5.729  21.672  0.0485 -0.0398 -0.1056
 1786BOLB   C4B42852  14.350   6.047  21.397 -0.0670  0.3394 -0.0633
 1786BOLB   NC242853  12.707   5.267  19.362 -0.2675  0.0882 -0.3225
 1786BOLB   PO242854  12.579   4.919  19.621 -0.1137  0.2861  0.0621
 1786BOLB   GL342855  12.448   5.360  19.750 -0.1202  0.2217  0.0979
 1786BOLB   GL442856  12.154   5.518  19.936 -0.2651 -0.4103 -0.1193
 1786BOLB   C1C42857  12.653   5.702  19.988 -0.1464 -0.3168  0.2225
 1786BOLB   C2C42858  12.584   5.849  20.399  0.2267  0.2919  0.0681
 1786BOLB   C3C42859  12.725   6.051  20.790  0.2003  0.0456 -0.2652
 1786BOLB   C4C42860  12.837   6.268  21.164  0.2086 -0.1134  0.0434
 1786BOLB   C1D42861  12.309   5.408  20.412 -0.1960 -0.1408 -0.2658
 1786BOLB   C2D42862  12.468   5.090  20.644  0.2562  0.1232  0.1805
 1786BOLB   C3D42863  12.667   5.032  21.114 -0.1318  0.0070 -0.0039
 1786BOLB   C4D42864  12.778   5.426  21.395  0.2068  0.5473 -0.0266
 1787BOLB   NC142865  19.274  15.223  38.310  0.2376 -0.2330  0.0642
 1787BOLB   PO142866  19.645  15.178  38.449  0.0156  0.2001 -0.0976
 1787BOLB   GL142867  19.861  15.041  38.736 -0.1762  0.0039 -0.2483
 1787BOLB   GL242868  20.128  15.089  38.584  0.0367 -0.0317  0.0304
 1787BOLB   C1A42869  20.056  15.277  39.103  0.1879  0.0315 -0.0304
 1787BOLB   C2A42870  20.369  15.281  39.332  0.3097  0.1489  0.0329
 1787BOLB   C3A42871  20.637  15.261  39.708  0.2715 -0.2454 -0.0490
 1787BOLB   C4A42872  20.975  14.997  39.849 -0.0964 -0.1375  0.0294
 1787BOLB   C1B42873  20.445  15.214  38.826 -0.0064 -0.4307 -0.0381
 1787BOLB   C2B42874  20.794  15.505  39.030 -0.0372  0.2200  0.4668
 1787BOLB   C3B42875  21.126  15.765  39.123 -0.0604 -0.0471  0.2082
 1787BOLB   C4B42876  21.523  15.498  39.202  0.1625  0.2726 -0.0996
 1787BOLB   NC242877  22.923  14.931  41.728 -0.2128  0.2333  0.0379
 1787BOLB   PO242878  22.905  14.953  41.285 -0.1469  0.0582 -0.5814
 1787BOLB   GL342879  22.663  15.064  40.879  0.0900  0.3734 -0.1001
 1787BOLB   GL442880  22.861  14.974  40.593 -0.0478  0.1397  0.0325
 1787BOLB   C1C42881  22.455  15.307  40.743 -0.1840  0.3195 -0.0716
 1787BOLB   C2C42882  22.205  15.442  40.471  0.2732 -0.0043  0.3039
 1787BOLB   C3C42883  21.731  15.263  40.284 -0.1738  0.3015  0.2271
 1787BOLB   C4C42884  21.385  15.109  39.978 -0.0983 -0.2546  0.3801
 1787BOLB   C1D42885  22.598  14.549  40.598 -0.1876 -0.2459  0.2431
 1787BOLB   C2D42886  22.159  14.412  40.679 -0.0351 -0.1394  0.0887
 1787BOLB   C3D42887  21.697  14.271  40.599 -0.4024 -0.3380 -0.0391
 1787BOLB   C4D42888  21.389  14.317  40.312  0.0992 -0.0119 -0.2956
 1788BOLB   NC142889  20.530  17.547  30.060  0.1304 -0.0314  0.0536
 1788BOLB   PO142890  20.180  17.881  29.976 -0.0821  0.0301 -0.0852
 1788BOLB   GL142891  20.540  18.026  29.764  0.0059  0.3543  0.0236
 1788BOLB   GL242892  20.797  17.920  29.861 -0.0015  0.2280 -0.2288
 1788BOLB   C1A42893  20.752  18.401  29.586  0.0762  0.0850  0.3802
 1788BOLB   C2A42894  21.136  18.655  29.531 -0.1329  0.2430 -0.3878
 1788BOLB   C3A42895  21.632  18.742  29.487 -0.0011 -0.0507 -0.3505
 1788BOLB   C4A42896  22.109  18.780  29.310  0.0820  0.0927  0.1968
 1788BOLB   C1B42897  21.038  18.328  29.977 -0.0296 -0.3135 -0.3257
 1788BOLB   C2B42898  21.356  18.554  30.017 -0.0253  0.1452  0.0550
 1788BOLB   C3B42899  21.688  18.767  30.032  0.2503  0.1868  0.0708
 1788BOLB   C4B42900  22.080  18.810  29.846  0.0730  0.1170  0.2443
 1788BOLB   NC242901  24.399  19.895  30.259 -0.0828  0.3064  0.2295
 1788BOLB   PO242902  24.093  19.897  29.912  0.2892  0.3115 -0.2064
 1788BOLB   GL342903  23.607  19.869  29.888  0.1324  0.2619 -0.1707
 1788BOLB   GL442904  23.343  20.066  29.768 -0.0482 -0.0306  0.1079
 1788BOLB   C1C42905  23.388  19.533  29.740  0.1739  0.3218 -0.2387
 1788BOLB   C2C42906  23.334  19.068  29.559  0.1813 -0.0572  0.0898
 1788BOLB   C3C42907  23.027  18.821  29.491 -0.1158  0.0520 -0.1904
 1788BOLB   C4C42908  22.518  18.823  29.463 -0.0309 -0.1814 -0.1231
 1788BOLB   C1D42909  22.927  19.807  29.973  0.0096  0.0946 -0.3484
 1788BOLB   C2D42910  22.873  19.627  30.302  0.0423  0.0732  0.1048
 1788BOLB   C3D42911  22.683  19.221  30.522 -0.2773 -0.0637 -0.2457
 1788BOLB   C4D42912  22.533  18.723  30.586 -0.0579  0.0829 -0.0870
 1789BOLB   NC142913  21.762   7.763  34.141 -0.0020  0.1225  0.1942
 1789BOLB   PO142914  21.771   7.351  34.197  0.0725  0.1164  0.2105
 1789BOLB   GL142915  21.960   7.079  34.393 -0.0951 -0.0874 -0.2004
 1789BOLB   GL242916  21.769   6.986  34.588  0.0893  0.0405  0.3229
 1789BOLB   C1A42917  22.237   6.852  34.460  0.2134 -0.3210  0.0747
 1789BOLB   C2A42918  22.275   6.442  34.704 -0.1420  0.3957  0.0514
 1789BOLB   C3A42919  22.399   6.137  35.021  0.0688 -0.0638  0.2921
 1789BOLB   C4A42920  22.824   6.005  35.369 -0.0624 -0.0176  0.0235
 1789BOLB   C1B42921  21.922   6.757  34.858  0.0641  0.2589 -0.1421
 1789BOLB   C2B42922  22.248   6.583  35.208  0.3994  0.2877  0.1667
 1789BOLB   C3B42923  22.530   6.377  35.524 -0.0542 -0.2306 -0.0430
 1789BOLB   C4B42924  22.821   6.083  35.837  0.0687 -0.3979  0.2323
 1789BOLB   NC242925  25.078   4.358  35.480 -0.1782 -0.1517  0.0114
 1789BOLB   PO242926  24.912   4.768  35.390 -0.2113  0.0642  0.0641
 1789BOLB   GL342927  24.798   5.228  35.213 -0.1004 -0.1162  0.1146
 1789BOLB   GL442928  24.850   5.336  34.936  0.0983  0.1754 -0.0606
 1789BOLB   C1C42929  24.478   5.604  35.024  0.3419  0.2336 -0.1759
 1789BOLB   C2C42930  24.155   5.881  35.037 -0.1237  0.1977  0.0753
 1789BOLB   C3C42931  23.707   5.939  35.190 -0.0511  0.1659  0.0338
 1789BOLB   C4C42932  23.281   6.051  35.430 -0.2635  0.2329  0.1426
 1789BOLB   C1D42933  24.511   5.142  34.812  0.2142 -0.3552  0.1161
 1789BOLB   C2D42934  24.140   5.118  34.546  0.1326  0.1835  0.0769
 1789BOLB   C3D42935  23.843   4.654  34.475 -0.0277 -0.1439 -0.1326
 1789BOLB   C4D42936  24.111   4.211  34.660 -0.1890  0.0620  0.4051
 1790BOLB   NC142937  20.624  16.456  36.852 -0.0033 -0.0990  0.2487
 1790BOLB   PO142938  20.715  16.079  36.852  0.0846 -0.2204  0.3324
 1790BOLB   GL142939  20.989  16.137  37.178  0.0960 -0.0009 -0.2403
 1790BOLB   GL242940  21.156  16.334  37.013 -0.0908 -0.0295 -0.2911
 1790BOLB   C1A42941  21.297  16.136  37.496  0.1724  0.3890 -0.1614
 1790BOLB   C2A42942  21.612  16.444  37.513 -0.0151  0.2173 -0.3959
 1790BOLB   C3A42943  21.855  16.644  37.853 -0.2083  0.1892 -0.3776
 1790BOLB   C4A42944  21.980  16.721  38.160 -0.0632 -0.0334  0.3313
 1790BOLB   C1B42945  21.318  16.746  37.174  0.0544  0.1648 -0.0483
 1790BOLB   C2B42946  21.516  17.001  37.395 -0.3288 -0.1884 -0.0409
 1790BOLB   C3B42947  21.506  17.149  37.789  0.2760  0.1749  0.0517
 1790BOLB   C4B42948  21.145  17.247  38.023 -0.1103 -0.2330  0.0032
 1790BOLB   NC242949  23.515  17.161  40.166  0.0240 -0.2545 -0.2254
 1790BOLB   PO242950  23.666  17.089  39.824 -0.1958 -0.2988 -0.0308
 1790BOLB   GL342951  23.352  16.959  39.633  0.1201  0.0818  0.1384
 1790BOLB   GL442952  23.257  16.609  39.632  0.1931  0.2891 -0.3096
 1790BOLB   C1C42953  22.972  17.020  39.412  0.1732  0.0438 -0.3438
 1790BOLB   C2C42954  22.490  16.943  39.248  0.2862  0.0801  0.1002
 1790BOLB   C3C42955  22.162  17.008  38.985  0.2022  0.0654  0.4034
 1790BOLB   C4C42956  21.983  16.831  38.527  0.2068 -0.3114 -0.1552
 1790BOLB   C1D42957  23.080  16.181  39.480  0.0379  0.0265  0.2895
 1790BOLB   C2D42958  22.923  15.956  39.042  0.0061  0.3004 -0.2278
 1790BOLB   C3D42959  22.579  15.945  38.773  0.2124 -0.0737  0.3482
 1790BOLB   C4D42960  22.429  15.898  38.432  0.1375  0.0759 -0.1546
 1791BOLB   NC142961  17.471   7.042  42.399 -0.3319  0.0082  0.1456
 1791BOLB   PO142962  17.244   6.692  42.352  0.0272  0.2763 -0.0894
 1791BOLB   GL142963  17.324   6.919  41.965  0.1470  0.1136 -0.0731
 1791BOLB   GL242964  17.395   6.743  41.760  0.1773 -0.0230  0.1689
 1791BOLB   C1A42965  17.460   7.275  41.808  0.1570  0.0419 -0.2479
 1791BOLB   C2A42966  17.473   7.595  41.461  0.0643 -0.2165  0.0250
 1791BOLB   C3A42967  17.410   8.034  41.411  0.0391 -0.1669 -0.1394
 1791BOLB   C4A42968  17.396   8.472  41.417 -0.0422 -0.2289  0.0318
 1791BOLB   C1B42969  17.331   6.861  41.365 -0.1398 -0.0580 -0.2715
 1791BOLB   C2B42970  17.224   7.167  41.181  0.2027  0.0528  0.1122
 1791BOLB   C3B42971  17.072   7.206  40.821 -0.0858  0.1132  0.0171
 1791BOLB   C4B42972  16.846   7.407  40.613 -0.2660 -0.0128  0.1051
 1791BOLB   NC242973  17.992   8.504  43.485  0.0188 -0.3506  0.0452
 1791BOLB   PO242974  17.500   8.472  43.588 -0.6419 -0.1253 -0.1543
 1791BOLB   GL342975  17.604   8.817  43.224  0.0808 -0.3198 -0.0324
 1791BOLB   GL442976  17.931   8.823  43.141  0.4013  0.1301 -0.0897
 1791BOLB   C1C42977  17.441   9.133  42.875  0.0898  0.0222  0.0220
 1791BOLB   C2C42978  17.331   9.152  42.535 -0.0850  0.0528  0.1976
 1791BOLB   C3C42979  17.526   9.068  42.047 -0.0337 -0.1164 -0.1364
 1791BOLB   C4C42980  17.466   8.864  41.651  0.2029  0.1982  0.2093
 1791BOLB   C1D42981  17.898   9.148  42.838 -0.0426  0.3713 -0.1103
 1791BOLB   C2D42982  17.875   9.195  42.371  0.2004  0.0387 -0.1185
 1791BOLB   C3D42983  17.854   9.438  41.969 -0.0519 -0.0803 -0.1841
 1791BOLB   C4D42984  17.766   9.477  41.517 -0.1351 -0.1758 -0.1226
 1792BOLB   NC142985  21.912   6.812  27.797 -0.0738 -0.3003 -0.2317
 1792BOLB   PO142986  21.838   6.608  27.397  0.0959  0.0425 -0.2182
 1792BOLB   GL142987  22.196   6.164  27.462  0.1168 -0.1360  0.1452
 1792BOLB   GL242988  22.576   6.260  27.343  0.0876 -0.1208  0.0243
 1792BOLB   C1A42989  22.443   5.813  27.582  0.1003 -0.3177  0.0817
 1792BOLB   C2A42990  22.806   5.498  27.684  0.0713  0.0186  0.4859
 1792BOLB   C3A42991  23.234   5.247  27.678  0.0045 -0.1616  0.1295
 1792BOLB   C4A42992  23.606   5.032  27.656  0.1994  0.2967  0.3099
 1792BOLB   C1B42993  22.831   5.890  27.248  0.0171 -0.1995 -0.1652
 1792BOLB   C2B42994  23.206   5.732  27.020  0.1781  0.0895 -0.1914
 1792BOLB   C3B42995  23.465   5.466  27.127 -0.0493  0.0496  0.1697
 1792BOLB   C4B42996  23.698   5.200  26.982 -0.3659  0.1224  0.1810
 1792BOLB   NC242997  24.606   3.197  26.628  0.4566 -0.1985  0.0460
 1792BOLB   PO242998  24.663   3.226  26.120 -0.0235 -0.0934 -0.1027
 1792BOLB   GL342999  24.485   3.650  26.205  0.1855 -0.4158  0.2579
 1792BOLB   GL443000  24.336   3.753  25.971  0.2583 -0.2221  0.1371
 1792BOLB   C1C43001  24.438   4.056  26.389  0.2649  0.2237  0.0354
 1792BOLB   C2C43002  24.257   4.507  26.668 -0.3893  0.0255  0.1175
 1792BOLB   C3C43003  24.033   4.696  26.975  0.1276 -0.1782 -0.0976
 1792BOLB   C4C43004  23.813   4.787  27.389 -0.3625  0.2986  0.2028
 1792BOLB   C1D43005  24.059   4.120  26.028 -0.0198 -0.0883  0.0785
 1792BOLB   C2D43006  23.921   4.541  25.953 -0.4676 -0.2025 -0.2083
 1792BOLB   C3D43007  23.711   4.826  26.025  0.3966  0.3424 -0.0206
 1792BOLB   C4D43008  23.602   5.198  25.756 -0.0902 -0.2366 -0.2299
 1793BOLB   NC143009  11.832   8.710  24.421 -0.4077  0.2272  0.0040
 1793BOLB   PO143010  11.566   8.835  23.996  0.3080  0.2759  0.1271
 1793BOLB   GL143011  11.329   8.580  23.789 -0.0278 -0.3965 -0.0077
 1793BOLB   GL243012  10.973   8.681  23.808  0.4837  0.0318 -0.3041
 1793BOLB   C1A43013  11.208   8.250  23.588  0.1827 -0.3789  0.2116
 1793BOLB   C2A43014  10.825   8.042  23.388  0.3184 -0.2052 -0.0172
 1793BOLB   C3A43015  10.652   7.763  23.120  0.0084  0.2422  0.0680
 1793BOLB   C4A43016  10.268   7.592  22.872  0.0176  0.2837  0.2013
 1793BOLB   C1B43017  10.584   8.482  23.627  0.1779  0.1061  0.0236
 1793BOLB   C2B43018  10.311   8.213  23.341  0.0462 -0.1394  0.0901
 1793BOLB   C3B43019   9.935   8.129  23.016 -0.0348  0.1154  0.0966
 1793BOLB   C4B43020   9.602   7.821  22.769  0.3118 -0.2331 -0.3700
 1793BOLB   NC243021   9.017   6.236  20.726 -0.0016  0.1543  0.2454
 1793BOLB   PO243022   9.182   6.639  20.878  0.0963  0.2437  0.1421
 1793BOLB   GL343023   9.288   6.866  21.101 -0.2695 -0.3264  0.1879
 1793BOLB   GL443024   9.002   7.028  21.191 -0.0498 -0.0815 -0.1069
 1793BOLB   C1C43025   9.292   7.043  21.630  0.1289 -0.0020 -0.0454
 1793BOLB   C2C43026   9.579   7.116  21.886  0.1433  0.4001  0.0160
 1793BOLB   C3C43027   9.819   7.260  22.154 -0.0890 -0.2933  0.0279
 1793BOLB   C4C43028   9.919   7.363  22.602 -0.0310 -0.1951 -0.0355
 1793BOLB   C1D43029   8.970   7.502  21.415  0.0282  0.0210 -0.2440
 1793BOLB   C2D43030   9.176   7.807  21.740 -0.0443 -0.1833 -0.1103
 1793BOLB   C3D43031   9.097   8.030  22.198 -0.1057  0.2605  0.0347
 1793BOLB   C4D43032   9.076   8.141  22.639 -0.0084 -0.0165 -0.2297
 1794BOLB   NC143033  21.940   9.437  35.835  0.1812  0.0850  0.1861
 1794BOLB   PO143034  22.271   9.262  35.479 -0.0939 -0.0434  0.1190
 1794BOLB   GL143035  22.494   8.918  35.395  0.2565 -0.4331  0.1708
 1794BOLB   GL243036  22.490   8.545  35.528 -0.1410 -0.0446  0.0135
 1794BOLB   C1A43037  22.910   8.761  35.291 -0.1453 -0.3018 -0.0009
 1794BOLB   C2A43038  23.265   8.582  35.469 -0.0082 -0.1320 -0.0439
 1794BOLB   C3A43039  23.636   8.380  35.625  0.1165  0.1960 -0.1381
 1794BOLB   C4A43040  23.981   8.162  35.700  0.0416  0.0645 -0.1729
 1794BOLB   C1B43041  22.860   8.280  35.395  0.1565  0.2625  0.0706
 1794BOLB   C2B43042  23.248   8.069  35.435  0.2683 -0.3909  0.2296
 1794BOLB   C3B43043  23.657   7.849  35.473 -0.1482  0.1331  0.1181
 1794BOLB   C4B43044  23.704   7.550  35.962  0.1210  0.5589 -0.0305
 1794BOLB   NC243045  25.529   7.415  36.966  0.0653  0.3494 -0.0270
 1794BOLB   PO243046  25.916   7.604  37.109 -0.0139 -0.0440 -0.0946
 1794BOLB   GL343047  25.616   7.911  37.036  0.1747 -0.4641  0.0157
 1794BOLB   GL443048  25.513   8.232  37.184 -0.1795  0.1001  0.2553
 1794BOLB   C1C43049  25.210   8.062  36.834 -0.3922  0.0342  0.3402
 1794BOLB   C2C43050  25.009   8.166  36.517  0.2813  0.1096  0.0209
 1794BOLB   C3C43051  24.729   8.189  36.098 -0.2393 -0.0804  0.2814
 1794BOLB   C4C43052  24.410   8.101  35.790 -0.1285 -0.1010  0.1317
 1794BOLB   C1D43053  25.101   8.388  37.209 -0.0063  0.3151 -0.3345
 1794BOLB   C2D43054  24.716   8.333  37.032 -0.1259 -0.1717 -0.1386
 1794BOLB   C3D43055  24.658   8.628  36.625  0.1073 -0.2061  0.2623
 1794BOLB   C4D43056  24.335   8.949  36.400 -0.0178  0.0704 -0.3852
 1795BOLB   NC143057  10.124  19.942  32.315  0.0400 -0.0974  0.0025
 1795BOLB   PO143058  10.005  19.645  32.545 -0.0917 -0.2968 -0.0948
 1795BOLB   GL143059   9.788  20.133  32.747  0.1356 -0.3039  0.0694
 1795BOLB   GL243060   9.614  20.266  32.582 -0.3414 -0.2270  0.1164
 1795BOLB   C1A43061   9.470  20.245  33.041 -0.1866 -0.1205  0.3072
 1795BOLB   C2A43062   9.352  20.545  33.386 -0.4294 -0.1454  0.1616
 1795BOLB   C3A43063   9.056  20.773  33.572  0.2447 -0.2037  0.1545
 1795BOLB   C4A43064   9.159  21.210  33.610 -0.0126 -0.0331 -0.0015
 1795BOLB   C1B43065   9.193  20.453  32.671 -0.1599  0.1505 -0.0418
 1795BOLB   C2B43066   8.957  20.526  33.075  0.0737 -0.2204  0.0518
 1795BOLB   C3B43067   8.719  20.827  33.101  0.2703 -0.0551 -0.2086
 1795BOLB   C4B43068   8.667  21.306  33.162  0.1472  0.1974 -0.2650
 1795BOLB   NC243069   8.448  23.701  33.544  0.1886 -0.0344  0.2567
 1795BOLB   PO243070   8.700  23.752  33.993  0.1206 -0.0950 -0.0124
 1795BOLB   GL343071   8.695  23.319  33.849 -0.2082 -0.1587 -0.0225
 1795BOLB   GL443072   8.742  23.258  33.506  0.0091 -0.2335  0.3397
 1795BOLB   C1C43073   8.925  22.928  33.808  0.1461 -0.0670  0.2891
 1795BOLB   C2C43074   8.983  22.449  33.670  0.2696 -0.1267 -0.0694
 1795BOLB   C3C43075   9.047  21.999  33.737 -0.6156  0.2556  0.1311
 1795BOLB   C4C43076   9.162  21.658  33.577  0.2152 -0.3415  0.0388
 1795BOLB   C1D43077   8.880  23.089  33.199  0.1902  0.0632  0.4328
 1795BOLB   C2D43078   9.319  23.129  33.093  0.1451  0.2622 -0.1375
 1795BOLB   C3D43079   9.733  22.996  33.145 -0.1955 -0.0869  0.0527
 1795BOLB   C4D43080   9.844  22.894  32.696  0.1130 -0.0397  0.2696
 1796BOLB   NC143081  20.123   9.425  15.137 -0.2025  0.4552 -0.1319
 1796BOLB   PO143082  20.166   9.175  15.541  0.0383 -0.0379 -0.2516
 1796BOLB   GL143083  19.849   9.228  15.827  0.1609 -0.2252  0.1609
 1796BOLB   GL243084  19.558   9.110  15.869  0.1725 -0.0556 -0.0810
 1796BOLB   C1A43085  19.895   9.413  16.259  0.2794  0.0044 -0.0974
 1796BOLB   C2A43086  19.859   9.794  16.476  0.2245  0.1650 -0.1103
 1796BOLB   C3A43087  19.846  10.014  16.822 -0.0728  0.0069 -0.2937
 1796BOLB   C4A43088  19.898  10.471  16.922  0.1909  0.2213  0.0441
 1796BOLB   C1B43089  19.307   9.323  16.230  0.0131 -0.2186 -0.0486
 1796BOLB   C2B43090  19.206   9.613  16.544  0.0281 -0.0003  0.0073
 1796BOLB   C3B43091  18.837   9.759  16.707  0.4662 -0.3505  0.2803
 1796BOLB   C4B43092  18.546  10.105  16.688 -0.4917  0.2825 -0.4096
 1796BOLB   NC243093  21.185  11.866  15.805 -0.3077  0.0282 -0.3506
 1796BOLB   PO243094  21.017  11.506  15.608 -0.0248 -0.1250  0.3081
 1796BOLB   GL343095  20.635  11.536  15.800  0.2750  0.0469 -0.2589
 1796BOLB   GL443096  20.209  11.553  15.726  0.0017  0.1516 -0.1323
 1796BOLB   C1C43097  20.656  11.680  16.250  0.2308  0.1589  0.1690
 1796BOLB   C2C43098  20.510  11.468  16.614  0.2312  0.2040 -0.3829
 1796BOLB   C3C43099  20.205  11.183  16.684 -0.1659  0.3018  0.0704
 1796BOLB   C4C43100  19.922  10.939  16.865  0.0724  0.3001 -0.0371
 1796BOLB   C1D43101  20.268  11.928  15.862  0.0192 -0.1345  0.1217
 1796BOLB   C2D43102  20.530  12.130  16.105  0.0067 -0.1015  0.1415
 1796BOLB   C3D43103  20.869  12.179  16.350 -0.3568 -0.4981  0.1124
 1796BOLB   C4D43104  21.142  12.397  16.423 -0.3423 -0.0149 -0.3121
 1797BOLB   NC143105  22.286   7.602  25.729  0.3555  0.0124  0.1148
 1797BOLB   PO143106  22.019   7.241  25.751  0.3362 -0.1053 -0.1222
 1797BOLB   GL143107  22.358   7.151  25.518 -0.1243  0.1742 -0.0497
 1797BOLB   GL243108  22.357   6.810  25.368  0.4208 -0.1531 -0.1794
 1797BOLB   C1A43109  22.708   7.026  25.697 -0.1426 -0.0765  0.2389
 1797BOLB   C2A43110  23.091   6.796  25.446 -0.4229  0.0963 -0.1911
 1797BOLB   C3A43111  23.280   6.422  25.346  0.1474 -0.0296  0.4436
 1797BOLB   C4A43112  23.542   6.191  25.619 -0.0003  0.0625  0.3571
 1797BOLB   C1B43113  22.749   6.644  25.100 -0.2847 -0.0109  0.0309
 1797BOLB   C2B43114  23.052   6.386  24.740  0.1321 -0.5018 -0.0161
 1797BOLB   C3B43115  23.341   6.336  24.465  0.1464  0.1792  0.4076
 1797BOLB   C4B43116  23.202   6.115  24.106  0.1347  0.0898 -0.1965
 1797BOLB   NC243117  25.455   4.639  25.260 -0.2135 -0.0234  0.1378
 1797BOLB   PO243118  25.231   4.374  25.175  0.1537 -0.4622 -0.0770
 1797BOLB   GL343119  24.917   4.716  25.349 -0.1482  0.2316 -0.1841
 1797BOLB   GL443120  24.669   4.740  25.050  0.2804 -0.1854 -0.1646
 1797BOLB   C1C43121  24.632   5.113  25.423 -0.1494  0.0825  0.0499
 1797BOLB   C2C43122  24.412   5.421  25.665 -0.1048 -0.0351  0.0119
 1797BOLB   C3C43123  24.037   5.589  25.664  0.1675  0.0440 -0.1351
 1797BOLB   C4C43124  23.925   5.933  25.657 -0.0364  0.1964 -0.2287
 1797BOLB   C1D43125  24.294   5.023  25.069  0.2083  0.0309 -0.3886
 1797BOLB   C2D43126  24.196   5.452  25.197  0.0201 -0.0597  0.1046
 1797BOLB   C3D43127  24.049   5.804  25.054 -0.0922  0.0345  0.2461
 1797BOLB   C4D43128  23.722   6.047  25.196 -0.0723  0.0552  0.3527
 1798BOLB   NC143129  12.601  20.697  30.431  0.2322 -0.1290 -0.3084
 1798BOLB   PO143130  12.560  21.068  30.214  0.0230 -0.0475 -0.0272
 1798BOLB   GL143131  12.527  21.561  30.079 -0.0153 -0.1155 -0.0261
 1798BOLB   GL243132  12.761  21.717  30.144 -0.0732  0.1991 -0.2535
 1798BOLB   C1A43133  12.257  21.902  30.115  0.0123  0.1033 -0.1010
 1798BOLB   C2A43134  12.035  22.253  29.962  0.1440 -0.0652 -0.0794
 1798BOLB   C3A43135  12.140  22.498  29.618 -0.1295 -0.0096  0.0886
 1798BOLB   C4A43136  12.190  22.648  29.174  0.0915  0.3119 -0.1347
 1798BOLB   C1B43137  12.643  22.144  29.891 -0.0069  0.1888 -0.2256
 1798BOLB   C2B43138  12.576  22.612  29.981  0.0534  0.1187 -0.1840
 1798BOLB   C3B43139  12.501  22.892  29.608 -0.0083  0.0460 -0.1225
 1798BOLB   C4B43140  12.438  23.361  29.515 -0.0001  0.0737 -0.1045
 1798BOLB   NC243141  10.875  24.761  29.026 -0.1584  0.1486 -0.0565
 1798BOLB   PO243142  11.276  24.911  29.111 -0.0483 -0.0703  0.6521
 1798BOLB   GL343143  11.453  24.525  29.010 -0.2294 -0.0332 -0.1533
 1798BOLB   GL443144  11.091  24.287  29.203  0.2078 -0.0722  0.1808
 1798BOLB   C1C43145  11.674  24.105  29.073  0.2009  0.1354 -0.1566
 1798BOLB   C2C43146  11.727  23.718  28.841 -0.0125 -0.0776 -0.0516
 1798BOLB   C3C43147  11.682  23.294  28.981 -0.1265  0.0792  0.0439
 1798BOLB   C4C43148  11.904  22.888  28.984  0.1614  0.0707 -0.0591
 1798BOLB   C1D43149  11.424  24.125  29.527  0.1054 -0.1701  0.0580
 1798BOLB   C2D43150  11.685  23.875  29.664  0.1637  0.1658 -0.3397
 1798BOLB   C3D43151  11.618  23.507  29.967  0.0143 -0.2186  0.1614
 1798BOLB   C4D43152  11.600  23.089  29.965  0.1848 -0.0703  0.0576
 1799BOLB   NC143153  19.715   8.210  37.921  0.1039  0.0140 -0.0328
 1799BOLB   PO143154  19.614   7.881  37.676  0.1787 -0.2447 -0.1862
 1799BOLB   GL143155  19.700   7.718  38.099  0.2796  0.0452 -0.4084
 1799BOLB   GL243156  19.554   7.948  38.377  0.1407  0.0340 -0.0643
 1799BOLB   C1A43157  19.687   7.402  38.366  0.0336  0.2206 -0.0416
 1799BOLB   C2A43158  19.802   7.164  38.712  0.3243  0.0085 -0.2121
 1799BOLB   C3A43159  20.057   7.057  39.083 -0.1235  0.2338 -0.1834
 1799BOLB   C4A43160  20.315   7.021  39.379  0.1237 -0.1782 -0.0822
 1799BOLB   C1B43161  19.918   7.860  38.530 -0.1629 -0.1285  0.2654
 1799BOLB   C2B43162  20.144   7.661  38.774 -0.0300  0.2839  0.2698
 1799BOLB   C3B43163  20.443   7.627  39.038  0.2988 -0.1011 -0.1774
 1799BOLB   C4B43164  20.807   7.864  39.171  0.0278  0.0156 -0.2298
 1799BOLB   NC243165  21.427   5.532  40.706  0.3360  0.2363  0.3952
 1799BOLB   PO243166  21.375   5.767  41.088 -0.4050 -0.2204  0.0597
 1799BOLB   GL343167  21.279   6.136  40.845 -0.1855  0.1382 -0.2789
 1799BOLB   GL443168  21.124   5.930  40.672  0.0944 -0.0741 -0.0991
 1799BOLB   C1C43169  21.168   6.537  40.586  0.2779 -0.0766 -0.0474
 1799BOLB   C2C43170  21.003   6.544  40.233 -0.0480  0.2542  0.0590
 1799BOLB   C3C43171  20.814   6.770  39.960 -0.0724 -0.0515  0.0659
 1799BOLB   C4C43172  20.599   6.924  39.682  0.0075  0.1932  0.1302
 1799BOLB   C1D43173  20.700   6.087  40.504 -0.1114 -0.3426 -0.1923
 1799BOLB   C2D43174  20.480   6.370  40.267 -0.0460 -0.0714  0.3296
 1799BOLB   C3D43175  20.245   6.586  39.788 -0.0933  0.1633 -0.1043
 1799BOLB   C4D43176  19.984   6.624  39.387  0.0419  0.0899 -0.0643
 1800BOLB   NC143177  13.636  12.298  39.924  0.0527  0.0607 -0.1921
 1800BOLB   PO143178  13.443  12.741  39.931 -0.0416  0.2733 -0.1943
 1800BOLB   GL143179  13.162  12.900  40.323  0.0519  0.4597  0.0985
 1800BOLB   GL243180  13.369  12.745  40.527 -0.0986 -0.2633 -0.0048
 1800BOLB   C1A43181  12.844  12.989  40.558  0.1363  0.0803 -0.1606
 1800BOLB   C2A43182  12.391  12.916  40.747 -0.2996  0.2270 -0.0213
 1800BOLB   C3A43183  12.133  12.729  40.976 -0.5055 -0.1228 -0.2710
 1800BOLB   C4A43184  11.904  12.889  41.278 -0.0278  0.0286 -0.2513
 1800BOLB   C1B43185  13.203  12.318  40.694 -0.0486 -0.2327 -0.2048
 1800BOLB   C2B43186  13.081  12.023  40.930  0.2113 -0.2645  0.4030
 1800BOLB   C3B43187  12.774  11.817  41.087 -0.1214  0.3871 -0.4077
 1800BOLB   C4B43188  12.337  11.557  41.223 -0.2386 -0.3650  0.3776
 1800BOLB   NC243189  11.403  14.436  43.335 -0.1378 -0.1691 -0.0178
 1800BOLB   PO243190  11.128  14.142  43.172 -0.3054 -0.2301  0.1765
 1800BOLB   GL343191  11.489  13.939  43.071 -0.2649  0.2550  0.5271
 1800BOLB   GL443192  11.880  14.050  43.167  0.1532 -0.1239  0.1340
 1800BOLB   C1C43193  11.751  13.690  42.760 -0.0300 -0.2160 -0.0109
 1800BOLB   C2C43194  11.786  13.148  42.464  0.0259 -0.0474  0.0417
 1800BOLB   C3C43195  11.713  12.919  42.138  0.3935 -0.0050  0.2265
 1800BOLB   C4C43196  11.900  12.842  41.759 -0.0784 -0.0747  0.3562
 1800BOLB   C1D43197  12.041  14.070  42.805 -0.4068 -0.0117 -0.1273
 1800BOLB   C2D43198  11.722  14.106  42.485  0.2892 -0.2201 -0.3545
 1800BOLB   C3D43199  11.733  14.071  42.104  0.0836 -0.1842  0.0025
 1800BOLB   C4D43200  11.799  13.835  41.734 -0.0708  0.4277  0.2029
 1801BOLB   NC143201  22.698  17.552  40.236 -0.2390 -0.0663 -0.0150
 1801BOLB   PO143202  22.388  17.306  40.203  0.1575  0.3190  0.0171
 1801BOLB   GL143203  22.122  17.239  39.818 -0.0583 -0.0044 -0.0706
 1801BOLB   GL243204  21.888  17.171  40.069 -0.0201 -0.2670  0.2506
 1801BOLB   C1A43205  21.940  17.035  39.436 -0.0894 -0.0454 -0.4039
 1801BOLB   C2A43206  21.853  16.696  39.151  0.2980  0.2190 -0.1410
 1801BOLB   C3A43207  21.593  16.359  39.152 -0.0464  0.2098  0.0357
 1801BOLB   C4A43208  21.230  16.253  39.263 -0.0854 -0.1906  0.0126
 1801BOLB   C1B43209  21.601  16.852  40.067 -0.1588  0.0348 -0.2261
 1801BOLB   C2B43210  21.331  16.481  40.218 -0.1674  0.0487 -0.1304
 1801BOLB   C3B43211  21.052  16.085  40.091  0.0174  0.2385  0.1734
 1801BOLB   C4B43212  20.801  15.837  40.499  0.2410  0.3028  0.2347
 1801BOLB   NC243213  21.348  16.938  41.272  0.0976  0.3419  0.0871
 1801BOLB   PO243214  21.212  17.336  41.131 -0.2284  0.2349 -0.2575
 1801BOLB   GL343215  21.078  17.085  40.782 -0.0597  0.1704 -0.0296
 1801BOLB   GL443216  21.018  16.805  40.831 -0.2048  0.1204 -0.1664
 1801BOLB   C1C43217  21.172  16.915  40.332 -0.4145 -0.3607 -0.3870
 1801BOLB   C2C43218  20.961  16.762  40.070  0.1176 -0.0577  0.2635
 1801BOLB   C3C43219  20.776  16.480  39.867  0.1889 -0.5943  0.0455
 1801BOLB   C4C43220  20.840  16.317  39.426  0.1046 -0.0869  0.0216
 1801BOLB   C1D43221  21.243  16.477  40.758  0.0150 -0.0242 -0.0268
 1801BOLB   C2D43222  21.168  15.979  40.804  0.0920 -0.2364  0.2793
 1801BOLB   C3D43223  21.103  15.593  40.902 -0.0504 -0.2212  0.2537
 1801BOLB   C4D43224  20.916  15.350  40.708 -0.0671  0.0836 -0.1707
 1802BOLB   NC143225   9.244  10.333  34.745 -0.2036  0.1296 -0.2005
 1802BOLB   PO143226   9.334  10.219  35.189  0.0950 -0.0496 -0.1518
 1802BOLB   GL143227   8.870  10.084  35.289 -0.1962 -0.0715 -0.0546
 1802BOLB   GL243228   8.889   9.803  35.463  0.2939 -0.1515  0.0998
 1802BOLB   C1A43229   8.564   9.864  35.157  0.2505 -0.2130 -0.1416
 1802BOLB   C2A43230   8.114   9.779  35.146  0.0820 -0.0136 -0.0748
 1802BOLB   C3A43231   7.776   9.482  35.252  0.0239 -0.1935  0.1030
 1802BOLB   C4A43232   7.482   9.239  35.493  0.0805  0.1022  0.0202
 1802BOLB   C1B43233   8.664   9.631  35.720 -0.1313  0.0006  0.2337
 1802BOLB   C2B43234   8.287   9.737  36.008 -0.0499 -0.0111  0.2506
 1802BOLB   C3B43235   8.020   9.711  36.410  0.2006 -0.2599  0.1322
 1802BOLB   C4B43236   7.859   9.447  36.766 -0.4018  0.0267 -0.3118
 1802BOLB   NC243237   4.902   8.028  35.808 -0.2336 -0.1528  0.1362
 1802BOLB   PO243238   5.270   8.248  35.620  0.1694 -0.3720  0.1645
 1802BOLB   GL343239   5.683   8.424  35.479  0.2119  0.0978  0.2804
 1802BOLB   GL443240   5.782   8.743  35.595  0.1023 -0.0651 -0.4014
 1802BOLB   C1C43241   6.044   8.321  35.175  0.1652 -0.0570  0.3026
 1802BOLB   C2C43242   6.444   8.377  35.348  0.1665  0.0481  0.3701
 1802BOLB   C3C43243   6.838   8.495  35.373  0.0221 -0.0736  0.1545
 1802BOLB   C4C43244   7.286   8.745  35.485  0.0086  0.2685 -0.1491
 1802BOLB   C1D43245   6.161   8.822  35.573  0.2496  0.1293 -0.1341
 1802BOLB   C2D43246   6.498   8.886  35.355 -0.0537  0.1056 -0.1235
 1802BOLB   C3D43247   6.801   8.894  35.107  0.3134  0.0422 -0.0404
 1802BOLB   C4D43248   7.104   9.127  35.037  0.1303 -0.2890 -0.0039
 1803BOLB   NC143249  19.071  11.811  38.858  0.1747  0.0056  0.0816
 1803BOLB   PO143250  19.142  12.099  39.084  0.1823  0.0790  0.0547
 1803BOLB   GL143251  19.258  12.258  39.464  0.1967  0.2303  0.2236
 1803BOLB   GL243252  19.322  12.596  39.453 -0.0313  0.0407  0.0089
 1803BOLB   C1A43253  19.640  12.349  39.843  0.2760  0.0559 -0.0319
 1803BOLB   C2A43254  19.794  12.607  40.149  0.1716  0.0976 -0.0444
 1803BOLB   C3A43255  20.111  12.711  40.403 -0.0831 -0.3161 -0.3519
 1803BOLB   C4A43256  20.397  12.571  40.735 -0.1208  0.1288 -0.2416
 1803BOLB   C1B43257  19.187  12.536  39.894 -0.0981  0.0401  0.0940
 1803BOLB   C2B43258  19.312  12.306  40.314 -0.2872 -0.2268 -0.0025
 1803BOLB   C3B43259  19.368  12.218  40.732  0.3253  0.0847  0.3373
 1803BOLB   C4B43260  19.304  12.496  41.075  0.4306  0.0618  0.2929
 1803BOLB   NC243261  21.718  13.251  42.425 -0.0655 -0.1779  0.2021
 1803BOLB   PO243262  21.394  13.219  42.733  0.2560  0.0919  0.1007
 1803BOLB   GL343263  21.245  13.275  42.261  0.1127 -0.1009 -0.0676
 1803BOLB   GL443264  21.073  13.070  42.237 -0.0891 -0.0509  0.2612
 1803BOLB   C1C43265  21.359  13.118  41.775  0.3341 -0.1206  0.1938
 1803BOLB   C2C43266  21.347  12.823  41.488 -0.0178 -0.1104  0.2443
 1803BOLB   C3C43267  21.068  12.570  41.179  0.0636  0.1526  0.0922
 1803BOLB   C4C43268  20.749  12.451  40.903 -0.1265 -0.0892  0.3667
 1803BOLB   C1D43269  20.669  13.323  42.164 -0.0100 -0.0898  0.3091
 1803BOLB   C2D43270  20.454  13.702  41.984 -0.1564  0.0028  0.2008
 1803BOLB   C3D43271  20.257  13.821  41.775 -0.0596  0.2752 -0.0605
 1803BOLB   C4D43272  20.170  13.805  41.272  0.0973  0.0238 -0.3432
 1804BOLB   NC143273  11.745   9.956  37.389  0.3143  0.1664 -0.1687
 1804BOLB   PO143274  11.603   9.593  37.654 -0.0222 -0.0219 -0.1341
 1804BOLB   GL143275  11.466   9.405  38.042 -0.2819 -0.2031  0.3041
 1804BOLB   GL243276  11.821   9.498  38.216  0.0850  0.1667  0.0541
 1804BOLB   C1A43277  11.173   9.079  38.208 -0.0237 -0.0036 -0.0300
 1804BOLB   C2A43278  11.041   9.051  38.637  0.0963 -0.0836 -0.0497
 1804BOLB   C3A43279  10.947   8.830  38.951  0.0187 -0.0945 -0.0898
 1804BOLB   C4A43280  10.774   8.774  39.400  0.1932 -0.2164 -0.3797
 1804BOLB   C1B43281  11.559   9.291  38.556 -0.0542 -0.0512 -0.1513
 1804BOLB   C2B43282  11.418   9.071  39.002 -0.1815 -0.0218 -0.1518
 1804BOLB   C3B43283  11.595   8.808  39.307  0.1462  0.1452  0.1877
 1804BOLB   C4B43284  11.759   8.510  39.475  0.2522 -0.0039  0.0245
 1804BOLB   NC243285  10.000   7.255  40.444 -0.1381  0.1616  0.0767
 1804BOLB   PO243286  10.229   7.037  40.727  0.0390 -0.1508 -0.2704
 1804BOLB   GL343287  10.516   7.034  40.477 -0.0810  0.0461 -0.2965
 1804BOLB   GL443288  10.710   6.734  40.367 -0.0519  0.0533  0.0940
 1804BOLB   C1C43289  10.657   7.124  40.098  0.0046 -0.4008 -0.0451
 1804BOLB   C2C43290  10.693   7.507  39.825 -0.2205  0.0556  0.0436
 1804BOLB   C3C43291  10.814   7.985  39.880  0.1891  0.5828  0.0537
 1804BOLB   C4C43292  10.716   8.401  39.758  0.4488  0.2990  0.1177
 1804BOLB   C1D43293  10.926   6.633  39.888  0.1670 -0.1894 -0.3143
 1804BOLB   C2D43294  11.119   6.612  39.444 -0.0250  0.0561 -0.0141
 1804BOLB   C3D43295  11.050   6.647  39.002 -0.1223 -0.3168 -0.2775
 1804BOLB   C4D43296  11.154   6.382  38.755 -0.0257 -0.0822 -0.2980
 1805BOLB   NC143297  21.500  13.049  15.791 -0.1938 -0.3288 -0.1073
 1805BOLB   PO143298  21.530  12.641  16.019  0.0846 -0.1063 -0.0768
 1805BOLB   GL143299  21.492  12.786  16.332 -0.0339 -0.1453 -0.5146
 1805BOLB   GL243300  21.371  13.159  16.358  0.3675 -0.0207  0.1082
 1805BOLB   C1A43301  21.217  12.844  16.717  0.2963  0.0475  0.4362
 1805BOLB   C2A43302  20.805  12.746  16.767 -0.1089 -0.1796 -0.0489
 1805BOLB   C3A43303  20.714  12.439  16.983 -0.3430  0.4071 -0.0559
 1805BOLB   C4A43304  20.500  12.088  17.070 -0.1267 -0.2428 -0.1722
 1805BOLB   C1B43305  21.012  13.393  16.678  0.2626  0.0014 -0.3903
 1805BOLB   C2B43306  20.717  13.738  16.844 -0.0026 -0.0781 -0.2905
 1805BOLB   C3B43307  20.484  14.019  17.033  0.0731 -0.1499  0.2711
 1805BOLB   C4B43308  20.552  14.428  17.247  0.3425  0.0245 -0.1123
 1805BOLB   NC243309  20.126  11.681  15.209 -0.3059  0.0811 -0.0687
 1805BOLB   PO243310  20.034  11.269  15.126  0.2791 -0.0533 -0.0541
 1805BOLB   GL343311  19.819  11.220  15.522  0.2128  0.0608  0.1101
 1805BOLB   GL443312  19.565  11.004  15.630 -0.2474 -0.0527  0.1966
 1805BOLB   C1C43313  19.720  11.414  15.904 -0.3594 -0.0614 -0.2658
 1805BOLB   C2C43314  19.721  11.440  16.294  0.0014  0.1483  0.4059
 1805BOLB   C3C43315  19.791  11.443  16.674 -0.0870  0.3541  0.0305
 1805BOLB   C4C43316  20.143  11.728  16.847  0.2748 -0.1602 -0.0327
 1805BOLB   C1D43317  19.517  10.775  15.937  0.1471 -0.5220  0.1448
 1805BOLB   C2D43318  19.218  10.669  16.322  0.0853  0.1010 -0.0865
 1805BOLB   C3D43319  19.048  10.435  16.580  0.0028 -0.1117 -0.2958
 1805BOLB   C4D43320  18.907  10.264  17.007 -0.1883  0.0833  0.3460
 1806BOLB   NC143321  15.093   6.704  36.893  0.1851 -0.3893 -0.1125
 1806BOLB   PO143322  15.180   6.372  36.567  0.2074 -0.1327  0.0839
 1806BOLB   GL143323  15.034   5.925  36.634  0.3419 -0.1833 -0.1703
 1806BOLB   GL243324  15.331   5.650  36.482  0.0728 -0.0376  0.2802
 1806BOLB   C1A43325  14.745   5.515  36.751 -0.0183  0.3767 -0.3557
 1806BOLB   C2A43326  14.544   5.149  36.851 -0.1690  0.0397  0.2588
 1806BOLB   C3A43327  14.737   4.679  36.876  0.2090  0.1945 -0.4758
 1806BOLB   C4A43328  14.556   4.318  36.886  0.0200 -0.0779  0.2451
 1806BOLB   C1B43329  15.375   5.271  36.818  0.1204  0.0323  0.2980
 1806BOLB   C2B43330  15.266   4.833  36.928  0.4028  0.1258  0.0225
 1806BOLB   C3B43331  15.170   4.411  36.894  0.3467  0.0225  0.0467
 1806BOLB   C4B43332  15.047   4.077  36.738 -0.2504 -0.3254  0.0050
 1806BOLB   NC243333  13.458   2.249  37.663  0.0812  0.1558  0.0330
 1806BOLB   PO243334  13.271   2.259  37.259  0.0823 -0.3993 -0.1812
 1806BOLB   GL343335  13.425   2.661  37.313  0.1566  0.0211  0.1022
 1806BOLB   GL443336  13.690   2.715  37.415 -0.2906 -0.1210 -0.0822
 1806BOLB   C1C43337  13.559   2.893  36.917  0.2197  0.0733  0.1157
 1806BOLB   C2C43338  13.714   3.304  36.858  0.0733  0.0720 -0.0845
 1806BOLB   C3C43339  14.059   3.548  36.783  0.0014  0.0430  0.1494
 1806BOLB   C4C43340  14.204   3.992  36.860  0.0836  0.0461  0.0535
 1806BOLB   C1D43341  13.891   3.120  37.493 -0.1110 -0.3427  0.1038
 1806BOLB   C2D43342  13.934   3.636  37.270  0.0027  0.1407 -0.2024
 1806BOLB   C3D43343  13.878   4.110  37.219 -0.1608  0.2596 -0.0196
 1806BOLB   C4D43344  13.853   4.611  37.394  0.2557  0.2391 -0.0685
 1807BOLB   NC143345  19.059   9.057  20.812  0.0686  0.0751  0.3284
 1807BOLB   PO143346  19.207   8.666  20.524  0.1521  0.0794 -0.0016
 1807BOLB   GL143347  19.363   8.297  20.130  0.0656  0.2816 -0.0077
 1807BOLB   GL243348  19.802   8.298  20.068 -0.4741 -0.0884 -0.0400
 1807BOLB   C1A43349  19.402   7.809  20.068 -0.0909 -0.1877 -0.0394
 1807BOLB   C2A43350  19.220   7.517  19.649  0.1700 -0.0840 -0.0411
 1807BOLB   C3A43351  19.240   7.167  19.393  0.0738  0.0108  0.3991
 1807BOLB   C4A43352  19.154   6.946  19.052  0.1006 -0.2992 -0.1355
 1807BOLB   C1B43353  19.920   8.065  19.759  0.0643  0.0870  0.0205
 1807BOLB   C2B43354  19.871   7.826  19.500 -0.1100  0.0063  0.2296
 1807BOLB   C3B43355  19.820   7.751  19.040  0.1493 -0.0650  0.0170
 1807BOLB   C4B43356  20.090   7.807  18.633  0.4245  0.0482  0.0738
 1807BOLB   NC243357  17.816   5.895  16.774 -0.2289 -0.0289 -0.1128
 1807BOLB   PO243358  18.074   5.715  17.191  0.2545 -0.0977 -0.0419
 1807BOLB   GL343359  18.473   5.891  17.453  0.1977  0.0413  0.4159
 1807BOLB   GL443360  18.500   5.641  17.642 -0.1133 -0.0825 -0.1006
 1807BOLB   C1C43361  18.669   6.154  17.518 -0.1620  0.0865 -0.0572
 1807BOLB   C2C43362  18.810   6.486  17.808  0.0301  0.0346 -0.2334
 1807BOLB   C3C43363  18.884   6.517  18.290  0.0345 -0.0061  0.1170
 1807BOLB   C4C43364  19.118   6.692  18.696 -0.0457  0.0086 -0.0222
 1807BOLB   C1D43365  18.548   5.991  17.992  0.0069 -0.0864  0.0049
 1807BOLB   C2D43366  18.607   6.122  18.400  0.1654 -0.2721 -0.3416
 1807BOLB   C3D43367  18.632   6.215  18.762  0.0535  0.3098  0.0095
 1807BOLB   C4D43368  18.662   6.561  19.061 -0.2303 -0.1954 -0.2253
 1808BOLB   NC143369  26.685  15.305  35.953 -0.1114  0.0395  0.3607
 1808BOLB   PO143370  26.786  15.010  35.537 -0.4839  0.2038 -0.0581
 1808BOLB   GL143371  26.388  14.779  35.367  0.0541  0.0372  0.3169
 1808BOLB   GL243372  26.088  15.051  35.221 -0.0894 -0.0523 -0.2474
 1808BOLB   C1A43373  26.135  14.583  34.970  0.2649  0.1127 -0.1476
 1808BOLB   C2A43374  25.865  14.934  34.749 -0.4061  0.1075 -0.0818
 1808BOLB   C3A43375  25.813  15.038  34.353 -0.2192 -0.2102 -0.0493
 1808BOLB   C4A43376  25.461  15.108  34.160 -0.1965  0.0458  0.1542
 1808BOLB   C1B43377  25.636  14.905  35.335  0.3246 -0.1501 -0.1032
 1808BOLB   C2B43378  25.385  14.807  35.697 -0.4076 -0.1486 -0.1863
 1808BOLB   C3B43379  25.224  14.400  35.833  0.2432 -0.1708  0.0562
 1808BOLB   C4B43380  25.083  14.304  36.210 -0.1321 -0.0064  0.0225
 1808BOLB   NC243381  26.824  17.196  33.372 -0.0703  0.0825 -0.2246
 1808BOLB   PO243382  26.681  16.737  33.669 -0.2255  0.0088 -0.1964
 1808BOLB   GL343383  26.201  16.785  33.488  0.1500 -0.1878  0.3324
 1808BOLB   GL443384  26.218  16.917  33.152 -0.0955 -0.0607 -0.2298
 1808BOLB   C1C43385  25.828  16.520  33.585  0.0436  0.1627 -0.1773
 1808BOLB   C2C43386  25.689  16.089  33.697  0.0352  0.0529  0.1685
 1808BOLB   C3C43387  25.588  15.835  33.948 -0.1879  0.1785  0.0537
 1808BOLB   C4C43388  25.347  15.410  33.964 -0.1628  0.2297 -0.1617
 1808BOLB   C1D43389  25.698  16.797  33.176 -0.0786 -0.0323 -0.0425
 1808BOLB   C2D43390  25.343  16.608  32.904  0.3542 -0.1504  0.0009
 1808BOLB   C3D43391  24.982  16.559  32.726 -0.0290 -0.1380 -0.0058
 1808BOLB   C4D43392  24.570  16.429  32.598 -0.1329 -0.5143  0.0025
 1809DPPC   NC343393  18.548  12.072  14.580 -0.1426  0.3447 -0.0781
 1809DPPC   PO443394  18.680  11.655  14.869 -0.1791  0.0174  0.0351
 1809DPPC   GL143395  18.757  11.938  15.161 -0.0267  0.0155  0.0845
 1809DPPC   GL243396  18.888  11.844  15.402 -0.1084 -0.3167  0.1257
 1809DPPC   C1A43397  18.809  12.300  15.465 -0.1036 -0.0329  0.1352
 1809DPPC   C2A43398  18.582  12.407  15.893 -0.0585 -0.3020  0.3150
 1809DPPC   C3A43399  18.178  12.644  15.930  0.3592 -0.4264 -0.1396
 1809DPPC   C4A43400  17.862  12.706  16.282 -0.2349  0.0527  0.1280
 1809DPPC   C1B43401  18.533  11.908  15.745  0.1743 -0.0987  0.2950
 1809DPPC   C2B43402  18.532  12.004  16.158 -0.0037  0.0176 -0.1451
 1809DPPC   C3B43403  18.235  11.877  16.615 -0.0616  0.1660  0.1977
 1809DPPC   C4B43404  17.985  11.912  17.014 -0.1245  0.0464  0.1423
 1810DPPC   NC343405   4.433  11.855  36.018 -0.0328 -0.0958  0.0375
 1810DPPC   PO443406   4.340  12.002  35.562 -0.1244  0.0873 -0.2778
 1810DPPC   GL143407   4.851  11.925  35.597  0.2088 -0.0627  0.0241
 1810DPPC   GL243408   4.916  11.751  35.890 -0.0386 -0.0373  0.0608
 1810DPPC   C1A43409   5.195  12.145  35.490  0.0926  0.3369 -0.0106
 1810DPPC   C2A43410   5.527  12.184  35.399  0.1699 -0.2530 -0.2713
 1810DPPC   C3A43411   5.845  12.078  35.120 -0.1494 -0.0523 -0.0201
 1810DPPC   C4A43412   5.863  12.014  34.712 -0.3090  0.2314  0.1472
 1810DPPC   C1B43413   5.257  11.655  35.619 -0.2626 -0.1541 -0.1452
 1810DPPC   C2B43414   5.640  11.616  35.453  0.1946  0.0826  0.0377
 1810DPPC   C3B43415   6.079  11.841  35.506  0.0089 -0.1382 -0.1274
 1810DPPC   C4B43416   6.513  11.693  35.362  0.1454  0.2359  0.1159
 1811DPPC   NC343417   2.956  10.638  28.200 -0.1363 -0.1680 -0.1469
 1811DPPC   PO443418   3.326  10.820  28.118 -0.1805  0.1748 -0.1437
 1811DPPC   GL143419   3.831  10.798  28.079 -0.0489  0.1287  0.1053
 1811DPPC   GL243420   3.956  10.543  28.290 -0.1101 -0.1168 -0.1916
 1811DPPC   C1A43421   4.125  10.982  28.265 -0.0466  0.0285 -0.2196
 1811DPPC   C2A43422   4.324  11.211  28.775  0.1247 -0.2076  0.1686
 1811DPPC   C3A43423   4.544  11.374  29.146  0.0534 -0.2247 -0.3816
 1811DPPC   C4A43424   4.935  11.481  29.247  0.1707 -0.5275 -0.2276
 1811DPPC   C1B43425   4.500  10.487  28.321  0.0033  0.1874 -0.4087
 1811DPPC   C2B43426   4.891  10.340  28.096 -0.1013  0.1421  0.2009
 1811DPPC   C3B43427   5.338  10.121  28.061 -0.0267 -0.1126 -0.0032
 1811DPPC   C4B43428   5.842  10.206  27.837 -0.0427 -0.0673 -0.3424
 1812DPPC   NC343429  21.195  19.824  20.090  0.0586  0.0335  0.2910
 1812DPPC   PO443430  21.228  20.226  20.398 -0.0698 -0.0161 -0.3017
 1812DPPC   GL143431  20.955  19.991  20.492 -0.1318  0.1217 -0.1805
 1812DPPC   GL243432  20.762  19.721  20.262 -0.0305  0.1516 -0.2202
 1812DPPC   C1A43433  20.483  19.910  20.658  0.0464  0.3922 -0.2713
 1812DPPC   C2A43434  20.101  19.946  20.952  0.0136  0.1520 -0.0654
 1812DPPC   C3A43435  19.765  19.860  21.196 -0.3831 -0.0038  0.2401
 1812DPPC   C4A43436  19.720  19.664  21.601  0.1973  0.1017  0.0075
 1812DPPC   C1B43437  20.409  19.454  20.262  0.2234 -0.2176 -0.5230
 1812DPPC   C2B43438  20.132  19.257  20.507  0.0745 -0.1014 -0.1892
 1812DPPC   C3B43439  19.844  19.214  20.915 -0.0182  0.0823 -0.0784
 1812DPPC   C4B43440  19.664  19.378  21.187 -0.0788 -0.3112 -0.0076
 1813DPPC   NC343441   7.085   5.532  24.571 -0.0363 -0.1446 -0.1075
 1813DPPC   PO443442   7.389   5.178  24.573  0.1765 -0.1070 -0.0705
 1813DPPC   GL143443   7.584   5.302  24.943 -0.3655  0.1586  0.0259
 1813DPPC   GL243444   7.559   5.053  25.201  0.1471  0.0473 -0.0702
 1813DPPC   C1A43445   7.799   5.583  25.230 -0.4573  0.1766  0.0431
 1813DPPC   C2A43446   7.826   5.860  25.561  0.2765  0.3341  0.4657
 1813DPPC   C3A43447   8.124   6.022  25.750 -0.1727 -0.2127 -0.0765
 1813DPPC   C4A43448   8.454   6.225  25.773 -0.1129  0.1037 -0.0129
 1813DPPC   C1B43449   8.000   4.924  25.164 -0.0226 -0.2419  0.0692
 1813DPPC   C2B43450   8.335   5.189  25.380  0.2359  0.0569 -0.0898
 1813DPPC   C3B43451   8.532   5.517  25.478 -0.1519 -0.0076 -0.2430
 1813DPPC   C4B43452   8.609   5.968  25.378  0.2098  0.1697  0.1558
 1814DPPC   NC343453  20.405  13.110  19.121  0.2660 -0.4677  0.0953
 1814DPPC   PO443454  20.616  12.750  19.167 -0.0145 -0.1444  0.1988
 1814DPPC   GL143455  20.899  12.817  18.975  0.1519 -0.3449 -0.1598
 1814DPPC   GL243456  20.929  12.651  18.710  0.1510  0.0032  0.2035
 1814DPPC   C1A43457  21.325  12.946  19.024  0.1296  0.2865  0.2511
 1814DPPC   C2A43458  21.712  13.041  18.980 -0.2361  0.1226  0.0220
 1814DPPC   C3A43459  22.157  13.017  18.878  0.0546  0.1402 -0.0964
 1814DPPC   C4A43460  22.521  13.235  18.629  0.3404 -0.1220 -0.2198
 1814DPPC   C1B43461  20.876  12.604  18.258 -0.0574  0.0916 -0.4104
 1814DPPC   C2B43462  21.029  12.652  17.913  0.0121  0.0122 -0.2670
 1814DPPC   C3B43463  21.295  12.422  17.658  0.0051  0.0043  0.0418
 1814DPPC   C4B43464  21.196  12.067  17.564  0.1176 -0.1502 -0.0058
 1815DPPC   NC343465  26.630   7.908  34.731  0.0387 -0.3241 -0.0507
 1815DPPC   PO443466  26.844   8.294  34.680 -0.0050  0.2240  0.1909
 1815DPPC   GL143467  26.472   8.554  34.689  0.1743 -0.1698 -0.2507
 1815DPPC   GL243468  26.476   8.798  34.880  0.0071 -0.1548  0.2122
 1815DPPC   C1A43469  26.023   8.567  34.685  0.0852  0.0506  0.0348
 1815DPPC   C2A43470  25.727   8.715  34.495 -0.1489  0.3082  0.1067
 1815DPPC   C3A43471  25.371   8.852  34.324 -0.2003 -0.0052  0.0453
 1815DPPC   C4A43472  25.366   9.167  34.048  0.0593  0.1828  0.1381
 1815DPPC   C1B43473  26.157   8.998  34.983 -0.1731  0.0668  0.2542
 1815DPPC   C2B43474  25.712   9.221  34.836  0.0170  0.0490 -0.3304
 1815DPPC   C3B43475  25.545   9.396  34.607 -0.2107  0.3809  0.0474
 1815DPPC   C4B43476  25.227   9.597  34.339 -0.1293 -0.2609 -0.1710
 1816DPPC   NC343477  18.310  18.918  22.379  0.0222  0.0443 -0.2927
 1816DPPC   PO443478  18.117  18.985  22.046  0.1627 -0.3076 -0.3567
 1816DPPC   GL143479  18.386  18.987  21.822  0.0790 -0.3260  0.0842
 1816DPPC   GL243480  18.339  18.639  21.764  0.1328 -0.0935  0.1755
 1816DPPC   C1A43481  18.683  19.306  21.606  0.0440 -0.0963  0.3525
 1816DPPC   C2A43482  19.078  19.326  21.417 -0.1844  0.0057 -0.4171
 1816DPPC   C3A43483  19.489  19.228  21.697  0.1780  0.1020  0.2004
 1816DPPC   C4A43484  19.622  19.442  22.013  0.0155 -0.0122  0.1245
 1816DPPC   C1B43485  18.529  18.752  21.444 -0.1240  0.3924  0.0398
 1816DPPC   C2B43486  18.376  19.181  21.246  0.1390 -0.0627  0.0617
 1816DPPC   C3B43487  18.156  19.530  21.020 -0.2501 -0.2946 -0.2460
 1816DPPC   C4B43488  17.759  19.818  21.100  0.3117  0.0863  0.2004
 1817DPPC   NC343489  17.846  12.412  19.167 -0.2530 -0.0655 -0.0770
 1817DPPC   PO443490  17.854  12.779  18.935 -0.4988  0.0872 -0.3443
 1817DPPC   GL143491  17.669  12.649  18.568  0.0433 -0.0818  0.0065
 1817DPPC   GL243492  17.841  12.511  18.252  0.2012 -0.2002  0.0218
 1817DPPC   C1A43493  17.403  12.722  18.130 -0.0693 -0.1399  0.1962
 1817DPPC   C2A43494  17.002  12.746  17.972 -0.2234  0.4367  0.0233
 1817DPPC   C3A43495  16.545  12.709  17.996 -0.0478  0.0620  0.0383
 1817DPPC   C4A43496  16.278  13.022  17.936  0.3233 -0.2368 -0.2787
 1817DPPC   C1B43497  17.672  12.473  17.771 -0.0379 -0.0254  0.0168
 1817DPPC   C2B43498  17.449  12.720  17.513  0.1601 -0.1631 -0.0223
 1817DPPC   C3B43499  17.320  12.860  17.103 -0.4158  0.3548  0.1809
 1817DPPC   C4B43500  17.025  12.624  16.746 -0.0771  0.2228 -0.0566
 1818DPPC   NC343501  10.919  23.318  37.000  0.3341  0.1822 -0.2856
 1818DPPC   PO443502  10.667  22.952  36.984 -0.2156  0.0695  0.0666
 1818DPPC   GL143503  10.872  22.464  36.894 -0.0316  0.3257  0.2302
 1818DPPC   GL243504  10.824  22.498  36.550  0.0942  0.3729  0.1783
 1818DPPC   C1A43505  11.183  22.033  36.930  0.3917  0.2780 -0.0556
 1818DPPC   C2A43506  11.357  21.583  36.919  0.0311  0.0146 -0.0847
 1818DPPC   C3A43507  11.597  21.241  36.750 -0.1834  0.0287  0.0459
 1818DPPC   C4A43508  11.946  20.923  36.715  0.3134 -0.1542  0.0814
 1818DPPC   C1B43509  11.126  22.339  36.438  0.0810  0.0774 -0.0401
 1818DPPC   C2B43510  11.204  21.863  36.432 -0.2728  0.1762  0.0332
 1818DPPC   C3B43511  11.215  21.521  36.283  0.1709  0.1624 -0.1220
 1818DPPC   C4B43512  11.163  21.169  36.175  0.2262 -0.2359 -0.1929
 1819DPPC   NC343513  22.997  17.808  25.013  0.1761  0.2126  0.0250
 1819DPPC   PO443514  22.819  18.105  24.882 -0.0760  0.1767 -0.0362
 1819DPPC   GL143515  22.518  17.957  24.752  0.1579 -0.1809 -0.0095
 1819DPPC   GL243516  22.518  17.670  24.909  0.0538 -0.0078  0.1024
 1819DPPC   C1A43517  22.169  17.860  24.516 -0.1057 -0.0008 -0.1086
 1819DPPC   C2A43518  21.869  17.617  24.564 -0.3699  0.2007 -0.3853
 1819DPPC   C3A43519  21.391  17.541  24.770  0.0728 -0.0813  0.1098
 1819DPPC   C4A43520  21.046  17.367  25.077  0.0105 -0.2093  0.1762
 1819DPPC   C1B43521  22.477  17.295  25.095 -0.0858  0.1249  0.1706
 1819DPPC   C2B43522  22.247  16.786  25.040  0.2172 -0.3433  0.0595
 1819DPPC   C3B43523  22.184  16.362  25.037 -0.2623 -0.1849 -0.1067
 1819DPPC   C4B43524  21.882  16.253  24.701 -0.0536  0.0519  0.1570
 1820DPPC   NC343525  16.076   0.857  22.889 -0.0049  0.1507 -0.1513
 1820DPPC   PO443526  16.046   1.307  22.928  0.0638 -0.0062  0.1593
 1820DPPC   GL143527  16.170   1.672  23.053  0.3592 -0.2082 -0.1092
 1820DPPC   GL243528  16.300   1.818  23.358  0.0779  0.0118  0.0345
 1820DPPC   C1A43529  16.172   2.097  22.941 -0.0842 -0.2293 -0.0234
 1820DPPC   C2A43530  16.482   2.336  22.731  0.1022 -0.0732 -0.0881
 1820DPPC   C3A43531  16.649   2.784  22.742  0.3549 -0.1567 -0.2811
 1820DPPC   C4A43532  16.915   3.188  22.762  0.0330 -0.0532  0.1122
 1820DPPC   C1B43533  16.621   2.171  23.205  0.1088  0.3818 -0.1060
 1820DPPC   C2B43534  16.563   2.677  23.289 -0.0591  0.2655  0.3635
 1820DPPC   C3B43535  16.577   2.926  23.566  0.1374 -0.3972  0.2179
 1820DPPC   C4B43536  16.576   3.031  23.900 -0.0823 -0.0174 -0.0483
 1821DPPC   NC343537  14.755   8.726  15.591  0.2644 -0.0557 -0.3114
 1821DPPC   PO443538  15.155   8.781  15.844 -0.0841 -0.1804 -0.1115
 1821DPPC   GL143539  15.157   9.034  16.303  0.0763 -0.0663 -0.2299
 1821DPPC   GL243540  14.939   8.894  16.503  0.0280  0.0119  0.1339
 1821DPPC   C1A43541  15.371   9.188  16.642  0.0114 -0.0644  0.0803
 1821DPPC   C2A43542  15.348   9.298  17.042  0.2358  0.3049 -0.2488
 1821DPPC   C3A43543  15.317   9.240  17.475 -0.3959  0.2401  0.1245
 1821DPPC   C4A43544  15.251   9.030  17.898  0.1840 -0.0653  0.1081
 1821DPPC   C1B43545  14.865   9.118  16.871  0.0742 -0.0423 -0.2261
 1821DPPC   C2B43546  14.757   9.430  17.161  0.1130 -0.3030 -0.1987
 1821DPPC   C3B43547  15.019   9.571  17.552 -0.2213  0.0717 -0.2384
 1821DPPC   C4B43548  15.054   9.499  17.893  0.3073 -0.3268  0.0894
 1822DPPC   NC343549  14.553  12.580  15.150 -0.2461 -0.0677  0.0407
 1822DPPC   PO443550  14.412  12.513  15.548 -0.2718 -0.0329 -0.2962
 1822DPPC   GL143551  14.510  12.624  15.972 -0.2252  0.0281  0.3670
 1822DPPC   GL243552  14.814  12.497  16.029 -0.2347  0.1809 -0.4019
 1822DPPC   C1A43553  14.372  12.361  16.353  0.5067 -0.0511  0.0684
 1822DPPC   C2A43554  14.041  12.322  16.698 -0.1015 -0.0043 -0.1758
 1822DPPC   C3A43555  13.950  12.490  17.123 -0.0107  0.1209  0.0943
 1822DPPC   C4A43556  14.166  12.652  17.528 -0.1738  0.2150  0.1747
 1822DPPC   C1B43557  14.944  12.339  16.357 -0.3278 -0.0634  0.0834
 1822DPPC   C2B43558  15.242  12.086  16.607  0.1347 -0.1024 -0.0508
 1822DPPC   C3B43559  15.392  11.798  16.937  0.0489  0.0448  0.0963
 1822DPPC   C4B43560  15.664  11.626  17.142  0.0488 -0.1659  0.4190
 1823DPPC   NC343561  23.291  21.204  33.033  0.2817  0.0920  0.0576
 1823DPPC   PO443562  23.592  20.868  32.759  0.2783 -0.3096 -0.2444
 1823DPPC   GL143563  23.518  20.490  32.492 -0.2311  0.1165  0.4835
 1823DPPC   GL243564  23.276  20.525  32.322  0.0985 -0.2447 -0.0748
 1823DPPC   C1A43565  23.357  20.039  32.605  0.2109 -0.3890  0.2316
 1823DPPC   C2A43566  23.076  19.665  32.548 -0.2060  0.1123 -0.0524
 1823DPPC   C3A43567  23.001  19.170  32.571 -0.0030 -0.1319 -0.3675
 1823DPPC   C4A43568  22.989  18.788  32.814  0.0078  0.3512  0.1267
 1823DPPC   C1B43569  22.955  20.298  32.276 -0.0545  0.1168 -0.1193
 1823DPPC   C2B43570  22.497  20.168  32.214  0.0139  0.0056  0.2583
 1823DPPC   C3B43571  22.164  19.925  32.420  0.1615 -0.3479  0.7188
 1823DPPC   C4B43572  22.002  19.506  32.406 -0.3812 -0.1425 -0.2565
 1824DPPC   NC343573  14.055  20.615  26.567 -0.1717  0.0063 -0.0523
 1824DPPC   PO443574  14.352  20.895  26.806 -0.1839 -0.0720 -0.2233
 1824DPPC   GL143575  14.220  21.159  26.346  0.0344  0.1808  0.0195
 1824DPPC   GL243576  13.935  21.358  26.260  0.1379 -0.0665  0.2919
 1824DPPC   C1A43577  14.374  21.597  26.255  0.3646 -0.0602  0.0381
 1824DPPC   C2A43578  14.163  21.979  26.064 -0.0107  0.3762  0.2803
 1824DPPC   C3A43579  14.133  22.462  26.033  0.3281  0.3116  0.1487
 1824DPPC   C4A43580  13.896  22.751  25.748  0.4452 -0.1245  0.1155
 1824DPPC   C1B43581  13.773  21.697  26.093 -0.0339  0.2163 -0.0047
 1824DPPC   C2B43582  13.730  21.965  25.779  0.0877 -0.0730  0.0993
 1824DPPC   C3B43583  13.899  22.309  25.502  0.0762 -0.3497  0.2595
 1824DPPC   C4B43584  14.024  22.702  25.210 -0.4596 -0.0851  0.2803
 1825DPPC   NC343585  14.202  20.575  18.078 -0.0790  0.0270 -0.1555
 1825DPPC   PO443586  14.581  20.412  18.149 -0.2268  0.0610 -0.1580
 1825DPPC   GL143587  14.483  20.646  18.477 -0.0376  0.0080 -0.1404
 1825DPPC   GL243588  14.322  20.941  18.402 -0.0554 -0.3085 -0.1709
 1825DPPC   C1A43589  14.364  20.440  18.940 -0.2413  0.2635  0.2984
 1825DPPC   C2A43590  14.499  20.273  19.369 -0.1454 -0.1950 -0.0476
 1825DPPC   C3A43591  14.593  20.273  19.727 -0.3238  0.1535 -0.1357
 1825DPPC   C4A43592  14.559  19.993  20.101  0.2276  0.0653  0.1982
 1825DPPC   C1B43593  14.177  20.985  18.955 -0.2263  0.0772  0.0643
 1825DPPC   C2B43594  13.930  20.936  19.358 -0.0394  0.2044  0.0367
 1825DPPC   C3B43595  13.883  20.709  19.679 -0.2501  0.0545  0.0508
 1825DPPC   C4B43596  13.782  20.620  19.998  0.1071  0.2257 -0.2516
 1826DPPC   NC343597  15.418   5.034  34.505  0.0714  0.1071  0.3422
 1826DPPC   PO443598  15.934   5.123  34.334 -0.2532  0.0803  0.0441
 1826DPPC   GL143599  15.938   4.873  34.525 -0.0530 -0.1262 -0.3601
 1826DPPC   GL243600  16.249   4.972  34.714  0.0442 -0.2372 -0.2159
 1826DPPC   C1A43601  15.917   4.620  34.792 -0.2556 -0.0383  0.1343
 1826DPPC   C2A43602  15.969   4.106  34.854 -0.2871  0.0384  0.0403
 1826DPPC   C3A43603  16.138   3.913  35.249 -0.1418  0.2123  0.0700
 1826DPPC   C4A43604  15.970   3.717  35.634 -0.3032  0.0667 -0.1893
 1826DPPC   C1B43605  16.306   4.522  34.482  0.2399  0.0030 -0.0125
 1826DPPC   C2B43606  16.441   4.147  34.547  0.0808  0.1428 -0.0282
 1826DPPC   C3B43607  16.301   3.730  34.682 -0.0772 -0.1382  0.2109
 1826DPPC   C4B43608  16.088   3.465  34.909  0.0288 -0.0849  0.0413
 1827DPPC   NC343609  11.219  15.886  23.448 -0.2006  0.1495 -0.1088
 1827DPPC   PO443610  10.962  15.565  23.112 -0.2579 -0.0413  0.2036
 1827DPPC   GL143611  10.582  15.711  22.870  0.1518  0.1439  0.1506
 1827DPPC   GL243612  10.487  16.103  22.999  0.3134 -0.1066  0.2398
 1827DPPC   C1A43613  10.353  15.796  22.541 -0.2604  0.2432  0.1235
 1827DPPC   C2A43614   9.968  15.935  22.390  0.0900 -0.2080  0.1871
 1827DPPC   C3A43615   9.639  15.956  22.076  0.0246 -0.3049  0.0367
 1827DPPC   C4A43616   9.140  15.936  21.849 -0.3973 -0.2021 -0.1378
 1827DPPC   C1B43617  10.041  16.220  22.772 -0.0182  0.1178 -0.0278
 1827DPPC   C2B43618   9.733  16.459  22.545 -0.3247 -0.0715  0.0468
 1827DPPC   C3B43619   9.468  16.768  22.444  0.1660  0.0365  0.0067
 1827DPPC   C4B43620   9.186  16.937  22.589  0.0079  0.1394  0.0834
 1828DPPC   NC343621  22.887   1.868  27.828 -0.2690 -0.2909 -0.0383
 1828DPPC   PO443622  22.847   1.684  27.350  0.1674  0.0745 -0.0404
 1828DPPC   GL143623  22.566   1.911  27.222  0.1856  0.0506 -0.0580
 1828DPPC   GL243624  22.518   2.129  27.499 -0.0462 -0.2015 -0.0603
 1828DPPC   C1A43625  22.506   2.182  26.790  0.1027 -0.1698 -0.1470
 1828DPPC   C2A43626  22.142   2.528  26.688  0.4432 -0.0231 -0.3284
 1828DPPC   C3A43627  21.964   2.907  26.725 -0.1529 -0.1227  0.2198
 1828DPPC   C4A43628  21.828   3.237  26.786  0.1739 -0.0645  0.2089
 1828DPPC   C1B43629  22.609   2.516  27.205  0.0202 -0.0875  0.1277
 1828DPPC   C2B43630  22.244   2.839  27.090 -0.2080 -0.2446  0.2368
 1828DPPC   C3B43631  21.986   3.094  27.216 -0.2065  0.0293  0.3781
 1828DPPC   C4B43632  21.731   3.351  27.438  0.0437  0.3512 -0.0994
 1829DPPC   NC343633  17.832  19.567  28.037 -0.1507  0.1627 -0.2786
 1829DPPC   PO443634  17.554  19.780  27.940  0.2177  0.3609 -0.1834
 1829DPPC   GL143635  17.868  20.061  27.831  0.4860  0.1011  0.1205
 1829DPPC   GL243636  17.805  20.286  28.079  0.0846  0.1979 -0.0746
 1829DPPC   C1A43637  18.217  20.324  27.570  0.2895 -0.4112  0.0689
 1829DPPC   C2A43638  18.649  20.303  27.353  0.0113  0.0893 -0.6857
 1829DPPC   C3A43639  19.031  20.537  27.251 -0.1976 -0.2813  0.2676
 1829DPPC   C4A43640  19.051  20.947  27.288 -0.1029 -0.2629  0.2073
 1829DPPC   C1B43641  17.801  20.613  27.801  0.2378 -0.2968  0.0169
 1829DPPC   C2B43642  17.964  20.972  27.816  0.0064 -0.3657 -0.1559
 1829DPPC   C3B43643  18.376  21.148  27.819  0.0957 -0.4147 -0.1325
 1829DPPC   C4B43644  18.558  21.654  27.887  0.0980 -0.0002 -0.0016
 1830DPPC   NC343645  24.066   2.409  26.869  0.1269 -0.2628 -0.0783
 1830DPPC   PO443646  24.062   2.729  27.187 -0.0425 -0.1482 -0.0172
 1830DPPC   GL143647  23.772   3.005  27.261 -0.1894 -0.2774 -0.1193
 1830DPPC   GL243648  23.448   2.801  27.023  0.0382 -0.0494 -0.2054
 1830DPPC   C1A43649  23.465   3.209  27.407 -0.1084  0.3409  0.1581
 1830DPPC   C2A43650  23.230   3.591  27.384  0.0618  0.0527 -0.0820
 1830DPPC   C3A43651  23.192   4.102  27.298  0.1267 -0.0536 -0.1103
 1830DPPC   C4A43652  23.255   4.509  27.273  0.0939 -0.4217  0.0997
 1830DPPC   C1B43653  23.100   2.812  27.347  0.0951 -0.0654  0.0265
 1830DPPC   C2B43654  22.604   2.891  27.511 -0.3363 -0.0030 -0.2036
 1830DPPC   C3B43655  22.406   3.327  27.293 -0.2345  0.1834 -0.1550
 1830DPPC   C4B43656  22.208   3.460  27.626  0.1657 -0.1055  0.1252
 1831DPPC   NC343657  22.454   9.303  23.410 -0.0202  0.1360 -0.1605
 1831DPPC   PO443658  22.749   8.986  23.407 -0.1780  0.0974 -0.1129
 1831DPPC   GL143659  23.184   8.969  23.247  0.0649  0.0847  0.0273
 1831DPPC   GL243660  23.291   8.628  23.077  0.0800  0.0012  0.0141
 1831DPPC   C1A43661  23.461   9.100  22.883  0.1349 -0.2055 -0.0084
 1831DPPC   C2A43662  23.708   9.156  22.537 -0.0271  0.0133  0.0910
 1831DPPC   C3A43663  23.779   9.325  22.062 -0.2335 -0.0144  0.0328
 1831DPPC   C4A43664  23.959   9.559  21.864 -0.2758  0.2028 -0.0324
 1831DPPC   C1B43665  23.556   8.246  23.205 -0.2055 -0.1344  0.1157
 1831DPPC   C2B43666  24.031   8.227  23.244 -0.2311 -0.0274  0.2812
 1831DPPC   C3B43667  24.455   8.170  23.490 -0.1507 -0.3106  0.0891
 1831DPPC   C4B43668  24.780   8.430  23.731 -0.0552 -0.0421  0.0406
 1832DPPC   NC343669  13.385  11.433  43.908 -0.2638 -0.0267  0.0520
 1832DPPC   PO443670  13.114  11.815  43.829 -0.3402 -0.2230  0.0091
 1832DPPC   GL143671  13.211  11.737  43.445  0.0802  0.1450  0.0993
 1832DPPC   GL243672  13.459  11.861  43.188  0.0421  0.1417 -0.2155
 1832DPPC   C1A43673  13.080  11.412  43.055 -0.0333 -0.2547  0.1985
 1832DPPC   C2A43674  13.039  11.194  42.703 -0.3325  0.1007 -0.1601
 1832DPPC   C3A43675  13.263  10.823  42.589 -0.2863 -0.2385  0.1981
 1832DPPC   C4A43676  13.448  10.544  42.896 -0.3076 -0.2511  0.0912
 1832DPPC   C1B43677  13.484  11.765  42.824 -0.1594 -0.0573 -0.2124
 1832DPPC   C2B43678  13.710  11.672  42.447 -0.1431  0.0236 -0.4117
 1832DPPC   C3B43679  13.911  11.645  42.126  0.0897 -0.3866  0.1250
 1832DPPC   C4B43680  14.234  11.521  41.840  0.0504  0.1550 -0.3774
 1833DPPC   NC343681  17.633   4.714  31.608 -0.1611 -0.0458  0.0732
 1833DPPC   PO443682  17.785   4.561  32.024 -0.1053 -0.1105 -0.1205
 1833DPPC   GL143683  17.565   4.169  32.210 -0.0895 -0.1219 -0.0163
 1833DPPC   GL243684  17.202   4.036  32.073 -0.1822  0.2745  0.1303
 1833DPPC   C1A43685  17.636   3.765  32.294  0.1849  0.0463 -0.4538
 1833DPPC   C2A43686  17.894   3.488  32.364 -0.4844  0.0626  0.1674
 1833DPPC   C3A43687  18.274   3.460  32.228 -0.0805  0.1569 -0.0249
 1833DPPC   C4A43688  18.575   3.410  31.909  0.1045 -0.2153  0.1346
 1833DPPC   C1B43689  17.077   3.611  31.932 -0.4087 -0.0854 -0.2000
 1833DPPC   C2B43690  16.809   3.240  31.927 -0.0253 -0.0089  0.0932
 1833DPPC   C3B43691  17.048   2.906  32.108  0.2510 -0.0926  0.0859
 1833DPPC   C4B43692  17.487   2.836  32.161 -0.4344 -0.0886  0.2486
 1834DPPC   NC343693   8.699  18.599  32.713  0.0435  0.0278  0.0588
 1834DPPC   PO443694   8.316  18.352  32.571  0.2741 -0.0254  0.2826
 1834DPPC   GL143695   7.937  18.632  32.667  0.0652  0.4131 -0.0798
 1834DPPC   GL243696   7.744  18.341  32.633  0.0333  0.1104  0.1535
 1834DPPC   C1A43697   7.846  18.875  32.858 -0.0487  0.1149 -0.3221
 1834DPPC   C2A43698   7.897  19.324  32.800 -0.0612  0.2312 -0.1416
 1834DPPC   C3A43699   8.113  19.714  32.990 -0.0519 -0.0806 -0.4895
 1834DPPC   C4A43700   8.526  19.961  33.132  0.2373 -0.1904  0.1019
 1834DPPC   C1B43701   7.320  18.484  32.701 -0.2088  0.1181 -0.1706
 1834DPPC   C2B43702   6.987  18.519  32.426  0.0702 -0.0448  0.1235
 1834DPPC   C3B43703   6.745  18.220  32.221  0.0544  0.0452 -0.1056
 1834DPPC   C4B43704   6.448  17.967  32.059 -0.0717 -0.1960 -0.2306
 1835DPPC   NC343705  12.210  19.997  33.326 -0.2348  0.0232 -0.0638
 1835DPPC   PO443706  11.911  20.230  33.349  0.0744 -0.2303 -0.1489
 1835DPPC   GL143707  11.575  20.349  33.590 -0.1757  0.2202 -0.1550
 1835DPPC   GL243708  11.540  20.264  33.857  0.2416 -0.2949  0.1074
 1835DPPC   C1A43709  11.147  20.486  33.657 -0.2088 -0.2222  0.1295
 1835DPPC   C2A43710  10.809  20.652  33.692 -0.2130 -0.0522 -0.4400
 1835DPPC   C3A43711  10.439  20.911  33.760  0.3046  0.2721 -0.0212
 1835DPPC   C4A43712  10.033  21.038  33.846  0.1985 -0.0157  0.0228
 1835DPPC   C1B43713  11.574  20.718  33.939  0.3243 -0.0101  0.2236
 1835DPPC   C2B43714  11.251  20.980  33.920  0.0095 -0.1727 -0.2018
 1835DPPC   C3B43715  10.908  21.228  33.752 -0.0432 -0.0769 -0.1311
 1835DPPC   C4B43716  10.837  21.538  33.382  0.1582 -0.2364  0.0373
 1836DPPC   NC343717  11.882   9.781  17.052  0.0467 -0.3144  0.2003
 1836DPPC   PO443718  12.127  10.228  17.078 -0.3261  0.1421  0.1439
 1836DPPC   GL143719  12.187  10.081  17.467  0.3850  0.0437  0.0392
 1836DPPC   GL243720  11.909   9.872  17.597  0.0184  0.2061  0.0060
 1836DPPC   C1A43721  12.458  10.083  17.775  0.0112  0.1402  0.1135
 1836DPPC   C2A43722  12.634   9.963  18.188 -0.1153  0.0817  0.1178
 1836DPPC   C3A43723  12.666   9.990  18.631 -0.1099  0.0756 -0.0509
 1836DPPC   C4A43724  13.018  10.142  18.527 -0.1998 -0.0650 -0.1770
 1836DPPC   C1B43725  12.236   9.648  17.960 -0.0991  0.3102 -0.0369
 1836DPPC   C2B43726  12.308   9.632  18.410  0.0435  0.1218 -0.0446
 1836DPPC   C3B43727  12.512   9.505  18.783  0.1147 -0.0928  0.0335
 1836DPPC   C4B43728  12.774   9.326  19.064  0.0912  0.1340  0.0381
 1837DPPC   NC343729  21.242  21.687  25.044 -0.0827 -0.0104  0.1279
 1837DPPC   PO443730  21.186  21.788  25.502 -0.0727 -0.1889  0.0426
 1837DPPC   GL143731  20.919  21.467  25.857  0.1274  0.1044  0.2713
 1837DPPC   GL243732  20.733  21.582  25.634 -0.1036  0.3252  0.0246
 1837DPPC   C1A43733  20.738  21.169  25.901  0.2266  0.0851 -0.0078
 1837DPPC   C2A43734  20.512  20.811  25.886  0.0386  0.0909 -0.0247
 1837DPPC   C3A43735  20.292  20.440  25.773  0.1133  0.1071 -0.1130
 1837DPPC   C4A43736  20.537  20.162  25.451  0.0733  0.3771  0.0950
 1837DPPC   C1B43737  20.515  21.111  25.426 -0.0020 -0.0625  0.3579
 1837DPPC   C2B43738  20.479  20.709  25.361 -0.2586 -0.2983  0.0883
 1837DPPC   C3B43739  20.131  20.402  25.239  0.0010  0.3778  0.0262
 1837DPPC   C4B43740  20.175  20.081  25.040  0.0040 -0.4160 -0.0277
 1838DPPC   NC343741  20.424  16.754  16.188 -0.2090  0.0918 -0.2722
 1838DPPC   PO443742  20.248  17.002  16.533  0.2028  0.2921  0.0380
 1838DPPC   GL143743  20.266  16.904  16.932  0.0004  0.2702  0.0748
 1838DPPC   GL243744  20.183  17.069  17.203  0.1944  0.0123 -0.1326
 1838DPPC   C1A43745  20.117  16.601  17.156 -0.0656 -0.0695  0.0772
 1838DPPC   C2A43746  20.153  16.368  17.548 -0.0399 -0.0055 -0.0052
 1838DPPC   C3A43747  19.988  16.224  18.000 -0.3279  0.1941  0.0342
 1838DPPC   C4A43748  20.328  15.896  18.213 -0.1250 -0.0748  0.1825
 1838DPPC   C1B43749  19.689  17.019  17.104  0.1167 -0.0799 -0.1353
 1838DPPC   C2B43750  19.309  17.105  17.166 -0.0688  0.1157 -0.1689
 1838DPPC   C3B43751  19.065  16.925  17.436  0.2030  0.1700 -0.2635
 1838DPPC   C4B43752  18.806  16.998  17.745  0.0120  0.0292  0.3206
 1839DPPC   NC343753  17.027  18.902  22.582 -0.0123  0.1796  0.1840
 1839DPPC   PO443754  16.701  19.192  22.518 -0.1428 -0.1323  0.2209
 1839DPPC   GL143755  16.735  19.672  22.332  0.0445 -0.1375 -0.1543
 1839DPPC   GL243756  16.478  19.854  22.440  0.3144 -0.1001 -0.0833
 1839DPPC   C1A43757  16.678  19.918  22.006  0.1155 -0.0105  0.2979
 1839DPPC   C2A43758  16.332  20.057  21.794  0.2202 -0.1669  0.2456
 1839DPPC   C3A43759  16.070  20.130  21.421  0.0431 -0.1977 -0.3207
 1839DPPC   C4A43760  15.843  20.510  21.189  0.1877  0.2599  0.0778
 1839DPPC   C1B43761  16.878  20.227  22.340  0.4461 -0.1423  0.1932
 1839DPPC   C2B43762  17.069  20.515  22.387 -0.0345  0.3604  0.1720
 1839DPPC   C3B43763  17.348  20.873  22.125 -0.1408  0.0376 -0.1480
 1839DPPC   C4B43764  17.635  21.202  22.415  0.3252 -0.0654 -0.0401
 1840DPPC   NC343765  15.665   7.500  43.556 -0.2109  0.0945 -0.0917
 1840DPPC   PO443766  15.679   7.886  43.588 -0.1162  0.1427  0.0568
 1840DPPC   GL143767  15.625   8.151  43.270 -0.2673  0.0226  0.0851
 1840DPPC   GL243768  15.801   8.455  43.244 -0.0425 -0.0511  0.1470
 1840DPPC   C1A43769  15.810   8.090  42.904  0.1004  0.1262  0.1593
 1840DPPC   C2A43770  15.727   8.340  42.538  0.1623 -0.0076 -0.2781
 1840DPPC   C3A43771  15.774   8.502  42.162 -0.3111 -0.3424 -0.0363
 1840DPPC   C4A43772  15.891   8.842  41.887 -0.0931 -0.3222  0.1156
 1840DPPC   C1B43773  15.586   8.537  43.004 -0.0394 -0.3183  0.1294
 1840DPPC   C2B43774  15.423   8.738  42.608  0.0491 -0.2037  0.1577
 1840DPPC   C3B43775  15.831   8.923  42.397 -0.3040 -0.3407  0.0110
 1840DPPC   C4B43776  16.111   9.137  42.219  0.1163  0.3322  0.2343
 1841DPPC   NC343777  19.636  23.847  27.123  0.1327  0.2517  0.3898
 1841DPPC   PO443778  19.433  23.591  27.352  0.3003  0.1611 -0.3163
 1841DPPC   GL143779  19.495  23.095  27.439  0.2588  0.0119 -0.2988
 1841DPPC   GL243780  19.365  22.982  27.125 -0.2276 -0.2177 -0.0054
 1841DPPC   C1A43781  19.528  22.831  27.730 -0.0559 -0.2951  0.1302
 1841DPPC   C2A43782  19.457  23.010  28.052  0.3977 -0.3968  0.0670
 1841DPPC   C3A43783  19.139  23.193  28.384 -0.2037 -0.3657  0.0783
 1841DPPC   C4A43784  18.827  23.365  28.679  0.1024 -0.1388 -0.0934
 1841DPPC   C1B43785  18.953  22.823  27.251  0.2084  0.0275  0.1738
 1841DPPC   C2B43786  18.845  22.406  27.333 -0.0840  0.3124  0.1445
 1841DPPC   C3B43787  19.085  22.030  27.446 -0.0695 -0.0160  0.2639
 1841DPPC   C4B43788  18.981  21.597  27.552  0.1548 -0.2609  0.1635
 1842DPPC   NC343789  15.856  15.595  15.290 -0.0332 -0.1476  0.1156
 1842DPPC   PO443790  16.116  15.660  15.613  0.0211 -0.0816 -0.2642
 1842DPPC   GL143791  16.236  15.930  15.940  0.1022  0.0248  0.0754
 1842DPPC   GL243792  16.631  16.047  15.883 -0.1011  0.5352 -0.2728
 1842DPPC   C1A43793  16.209  16.275  16.254 -0.1430 -0.1452 -0.1278
 1842DPPC   C2A43794  16.143  16.317  16.700 -0.0144  0.0545 -0.0428
 1842DPPC   C3A43795  16.124  16.078  17.144 -0.2152 -0.0192  0.4208
 1842DPPC   C4A43796  16.524  16.025  17.362 -0.2741  0.0718  0.3001
 1842DPPC   C1B43797  16.645  15.836  16.279 -0.0356 -0.0569 -0.2055
 1842DPPC   C2B43798  16.511  15.915  16.765  0.1850  0.2355 -0.0758
 1842DPPC   C3B43799  16.506  15.662  17.036  0.2190 -0.2430 -0.2092
 1842DPPC   C4B43800  16.262  15.523  17.472  0.1774 -0.0730 -0.0504
 1843DPPC   NC343801  13.779  22.283  39.064 -0.1090 -0.1316 -0.3585
 1843DPPC   PO443802  13.615  21.985  39.390 -0.3024 -0.6010  0.4468
 1843DPPC   GL143803  13.817  21.612  39.178 -0.1740  0.6029 -0.2523
 1843DPPC   GL243804  14.083  21.601  38.957 -0.1058  0.1074  0.4502
 1843DPPC   C1A43805  13.778  21.157  38.848  0.1527  0.1813  0.0215
 1843DPPC   C2A43806  13.674  20.783  38.696  0.3040 -0.0463  0.1458
 1843DPPC   C3A43807  13.237  20.773  38.896 -0.0263  0.0755 -0.1695
 1843DPPC   C4A43808  12.967  20.947  38.654 -0.3352  0.1297 -0.3420
 1843DPPC   C1B43809  14.295  21.344  38.595  0.0508 -0.1421  0.0796
 1843DPPC   C2B43810  14.246  20.927  38.396  0.1957 -0.1017 -0.3105
 1843DPPC   C3B43811  14.580  20.697  38.341  0.0632  0.0154  0.0294
 1843DPPC   C4B43812  14.916  20.731  38.241 -0.0654 -0.1513  0.2825
 1844DPPC   NC343813  25.157   9.572  18.552  0.0537 -0.3388 -0.0842
 1844DPPC   PO443814  24.827   9.398  18.782  0.3478  0.0939 -0.2502
 1844DPPC   GL143815  24.522   9.287  19.172 -0.1654  0.5275  0.0728
 1844DPPC   GL243816  24.352   8.933  19.165  0.3325 -0.1126  0.0456
 1844DPPC   C1A43817  24.152   9.356  19.256  0.1493 -0.1218  0.1280
 1844DPPC   C2A43818  23.691   9.334  19.405 -0.1265 -0.1211 -0.0072
 1844DPPC   C3A43819  23.520   9.598  19.656  0.0654  0.0781  0.3750
 1844DPPC   C4A43820  23.293   9.775  19.982 -0.1423 -0.0873 -0.2112
 1844DPPC   C1B43821  24.147   8.952  19.532  0.0398 -0.1839 -0.0202
 1844DPPC   C2B43822  23.767   9.012  19.806 -0.1497 -0.3684 -0.3179
 1844DPPC   C3B43823  23.376   9.181  19.801  0.1876 -0.0188 -0.2582
 1844DPPC   C4B43824  23.017   9.380  19.851  0.1292 -0.3435  0.1539
 1845DPPC   NC343825   7.962  12.397  28.624 -0.1990  0.4810 -0.1415
 1845DPPC   PO443826   7.930  12.808  28.919  0.0520  0.0302 -0.2161
 1845DPPC   GL143827   7.496  12.620  28.701  0.1645  0.1477 -0.2402
 1845DPPC   GL243828   7.480  12.978  28.600  0.0127  0.1735 -0.0868
 1845DPPC   C1A43829   7.034  12.813  28.599  0.0428  0.3826 -0.2433
 1845DPPC   C2A43830   6.896  13.068  28.173  0.0089  0.2331 -0.0655
 1845DPPC   C3A43831   6.613  13.451  28.084  0.2880  0.0897  0.0279
 1845DPPC   C4A43832   6.509  13.944  28.148  0.1151  0.0187  0.3597
 1845DPPC   C1B43833   7.023  13.353  28.559  0.0248  0.1456 -0.3253
 1845DPPC   C2B43834   6.688  13.712  28.524 -0.0193 -0.2248  0.3607
 1845DPPC   C3B43835   6.504  14.099  28.587 -0.2365 -0.0163  0.0266
 1845DPPC   C4B43836   6.171  14.285  28.344 -0.2285  0.3210  0.0004
 1846DPPC   NC343837  21.703  14.042  37.282  0.0524 -0.2373  0.3495
 1846DPPC   PO443838  21.393  14.421  37.349 -0.1306  0.0816  0.1378
 1846DPPC   GL143839  21.264  14.665  37.599  0.2438  0.0077  0.3907
 1846DPPC   GL243840  21.171  14.432  37.871  0.0873  0.0659  0.0187
 1846DPPC   C1A43841  21.530  14.740  37.884  0.0199  0.2287  0.1316
 1846DPPC   C2A43842  21.872  14.826  38.136  0.1824  0.0050 -0.0816
 1846DPPC   C3A43843  22.193  14.805  38.197 -0.3214 -0.1484 -0.0842
 1846DPPC   C4A43844  22.299  14.703  38.631 -0.1081 -0.4105  0.3391
 1846DPPC   C1B43845  21.532  14.384  38.187  0.1821 -0.2694  0.1932
 1846DPPC   C2B43846  21.692  14.539  38.585 -0.0585 -0.1397  0.1099
 1846DPPC   C3B43847  21.808  14.565  39.008  0.1485 -0.0998 -0.5194
 1846DPPC   C4B43848  22.160  14.437  39.236  0.2963  0.0388 -0.0214
 1847DPPC   NC343849  14.976   5.844  23.679  0.1447 -0.0146  0.0597
 1847DPPC   PO443850  14.669   5.814  24.075  0.0987  0.0700 -0.1012
 1847DPPC   GL143851  14.543   5.426  23.787  0.1617  0.0535  0.1574
 1847DPPC   GL243852  14.552   5.081  23.864  0.0957 -0.2942 -0.2298
 1847DPPC   C1A43853  14.262   5.440  23.341  0.2744 -0.0493 -0.2590
 1847DPPC   C2A43854  13.903   5.332  23.095 -0.0127  0.0453  0.0571
 1847DPPC   C3A43855  13.599   5.059  22.993 -0.2026 -0.1735  0.2437
 1847DPPC   C4A43856  13.210   4.869  22.902 -0.0551  0.1085 -0.3302
 1847DPPC   C1B43857  14.615   5.028  23.393 -0.2972 -0.1884 -0.0718
 1847DPPC   C2B43858  14.743   4.842  23.111 -0.1843 -0.2083 -0.5309
 1847DPPC   C3B43859  14.722   4.485  22.867  0.1624  0.1119  0.1327
 1847DPPC   C4B43860  14.932   4.077  22.782 -0.5398 -0.0734  0.0650
 1848DPPC   NC343861  12.884  25.557  30.208 -0.2417 -0.2141  0.1086
 1848DPPC   PO443862  13.297  25.516  30.386 -0.3015  0.1247 -0.2335
 1848DPPC   GL143863  13.461  25.101  30.409  0.0528  0.1642 -0.1764
 1848DPPC   GL243864  13.736  24.944  30.501 -0.2393  0.1644 -0.0367
 1848DPPC   C1A43865  13.235  24.709  30.386 -0.2909  0.0618 -0.2603
 1848DPPC   C2A43866  13.148  24.341  30.590  0.1179 -0.0216 -0.4208
 1848DPPC   C3A43867  13.377  24.034  30.836 -0.1111  0.0267  0.2714
 1848DPPC   C4A43868  13.533  23.737  31.157  0.0859  0.1988  0.0292
 1848DPPC   C1B43869  13.734  24.594  30.188 -0.1985  0.0287  0.1893
 1848DPPC   C2B43870  13.769  24.519  29.813  0.2677  0.0110  0.1555
 1848DPPC   C3B43871  13.724  24.242  29.491 -0.0565  0.2400 -0.0285
 1848DPPC   C4B43872  13.568  23.880  29.318  0.0930  0.0186  0.0350
 1849DPPC   NC343873   3.268  11.546  31.915  0.1360 -0.5510  0.0918
 1849DPPC   PO443874   3.354  11.862  32.117  0.0532  0.1012 -0.1329
 1849DPPC   GL143875   3.790  11.694  32.165  0.0167 -0.1614 -0.0349
 1849DPPC   GL243876   4.051  11.770  32.412 -0.0493 -0.1799 -0.0118
 1849DPPC   C1A43877   4.154  11.828  31.931  0.3756  0.3629 -0.1186
 1849DPPC   C2A43878   4.369  11.818  31.517 -0.1202 -0.1094  0.0409
 1849DPPC   C3A43879   4.801  11.911  31.387  0.1872 -0.0192 -0.0031
 1849DPPC   C4A43880   5.248  12.016  31.286  0.0735  0.0486 -0.6299
 1849DPPC   C1B43881   4.430  12.142  32.434  0.1012 -0.1087  0.0412
 1849DPPC   C2B43882   4.752  12.294  32.602  0.1561 -0.2574  0.0210
 1849DPPC   C3B43883   5.085  12.497  32.668  0.1484 -0.1844  0.3974
 1849DPPC   C4B43884   5.491  12.449  32.807  0.1068 -0.0013 -0.0760
 1850DPPC   NC343885  19.094  18.700  28.187  0.0917  0.1147  0.0154
 1850DPPC   PO443886  19.107  18.316  27.902  0.1260 -0.1652  0.3852
 1850DPPC   GL143887  19.530  18.597  27.822  0.0778  0.3529  0.2178
 1850DPPC   GL243888  19.681  18.368  27.555 -0.2214 -0.0167 -0.2018
 1850DPPC   C1A43889  19.640  19.002  27.713  0.1080  0.0927  0.0589
 1850DPPC   C2A43890  19.955  19.222  27.752 -0.1985  0.4323 -0.1352
 1850DPPC   C3A43891  20.436  19.220  27.677  0.1782 -0.1416  0.0305
 1850DPPC   C4A43892  20.767  19.524  27.907 -0.1118  0.1956 -0.1433
 1850DPPC   C1B43893  19.867  18.646  27.393  0.1939  0.3621  0.3353
 1850DPPC   C2B43894  20.095  18.853  27.290 -0.0722  0.0237 -0.1190
 1850DPPC   C3B43895  20.546  19.022  27.215 -0.0960  0.1942  0.0857
 1850DPPC   C4B43896  20.895  19.167  27.137 -0.2937  0.1249 -0.3319
 1851DPPC   NC343897  21.098   9.955  37.427  0.0471  0.1203 -0.0950
 1851DPPC   PO443898  21.084  10.023  37.871  0.4646  0.1709  0.2289
 1851DPPC   GL143899  21.315  10.318  38.081  0.1020  0.4189 -0.2309
 1851DPPC   GL243900  21.548  10.120  38.174  0.4108 -0.0362 -0.0204
 1851DPPC   C1A43901  21.749  10.521  38.184 -0.2495 -0.2499 -0.1739
 1851DPPC   C2A43902  22.115  10.413  38.531 -0.1160  0.0657 -0.0846
 1851DPPC   C3A43903  22.438  10.169  38.372  0.0290 -0.1355  0.2144
 1851DPPC   C4A43904  22.660   9.784  38.674 -0.0723  0.0325  0.1768
 1851DPPC   C1B43905  21.796   9.638  38.184  0.2680 -0.0952  0.2467
 1851DPPC   C2B43906  21.851   9.278  38.520 -0.1494 -0.1024 -0.3238
 1851DPPC   C3B43907  22.064   8.997  38.780  0.1471 -0.0395 -0.0455
 1851DPPC   C4B43908  22.325   8.987  39.269  0.0270 -0.4087  0.0465
 1852DPPC   NC343909   8.586  23.810  28.430  0.2761 -0.1564 -0.4630
 1852DPPC   PO443910   8.710  23.868  28.011 -0.1137  0.3643  0.0491
 1852DPPC   GL143911   8.813  23.383  28.052 -0.2308  0.2659  0.0350
 1852DPPC   GL243912   9.005  23.193  27.818  0.1216 -0.0063 -0.4529
 1852DPPC   C1A43913   8.938  23.021  28.313 -0.2673  0.2119  0.0586
 1852DPPC   C2A43914   9.113  22.658  28.477 -0.1328  0.0253  0.1980
 1852DPPC   C3A43915   9.249  22.195  28.586  0.1789 -0.1790 -0.0251
 1852DPPC   C4A43916   9.090  21.766  28.629 -0.3023 -0.0860  0.2249
 1852DPPC   C1B43917   9.381  23.226  27.663 -0.0894 -0.0929 -0.1624
 1852DPPC   C2B43918   9.537  22.860  27.623 -0.1131 -0.0540  0.0350
 1852DPPC   C3B43919   9.624  22.519  27.402 -0.0258  0.2003  0.0813
 1852DPPC   C4B43920   9.753  22.377  27.101 -0.1671  0.1770 -0.0797
 1853DPPC   NC343921  21.859  12.396  25.525 -0.2528  0.2830  0.0203
 1853DPPC   PO443922  22.369  12.503  25.704 -0.0738  0.1035  0.2842
 1853DPPC   GL143923  22.853  12.603  25.781  0.1506  0.0510 -0.0782
 1853DPPC   GL243924  23.012  12.393  25.683  0.0308  0.1778 -0.0109
 1853DPPC   C1A43925  23.111  12.896  25.890  0.0150 -0.1885  0.2682
 1853DPPC   C2A43926  23.275  12.969  26.161  0.3168  0.1345  0.2435
 1853DPPC   C3A43927  23.585  13.191  26.485  0.0779  0.0295  0.2487
 1853DPPC   C4A43928  24.005  13.368  26.381  0.1692 -0.2074  0.1974
 1853DPPC   C1B43929  23.448  12.609  25.642 -0.0055 -0.3007  0.1595
 1853DPPC   C2B43930  23.744  12.803  25.869 -0.2077 -0.3847 -0.4265
 1853DPPC   C3B43931  23.975  12.903  26.181  0.0847 -0.0964  0.1110
 1853DPPC   C4B43932  23.777  12.755  26.567 -0.1094  0.1049 -0.2776
 1854DPPC   NC343933  21.521  17.071  31.136  0.0944 -0.0963 -0.3064
 1854DPPC   PO443934  21.411  17.414  30.979  0.1117 -0.0537 -0.1316
 1854DPPC   GL143935  21.794  17.743  30.957 -0.0248 -0.0313 -0.2507
 1854DPPC   GL243936  21.913  17.524  30.771  0.0110 -0.4073 -0.2434
 1854DPPC   C1A43937  21.861  18.058  30.660  0.1137  0.2267 -0.2165
 1854DPPC   C2A43938  22.195  18.337  30.635  0.0120 -0.3666  0.2452
 1854DPPC   C3A43939  22.150  18.762  30.330  0.1019  0.0755  0.2103
 1854DPPC   C4A43940  22.191  19.131  30.436  0.2901  0.2907 -0.0319
 1854DPPC   C1B43941  22.309  17.885  30.805  0.4529  0.2910 -0.2734
 1854DPPC   C2B43942  22.605  18.185  30.762 -0.0603 -0.1774  0.2921
 1854DPPC   C3B43943  22.653  18.500  31.035 -0.0035 -0.5235  0.1140
 1854DPPC   C4B43944  22.629  18.865  31.371  0.1724 -0.2661 -0.1073
 1855DPPC   NC343945  20.374  22.296  23.678  0.0791 -0.0249 -0.1736
 1855DPPC   PO443946  20.693  22.201  23.965  0.2538 -0.0724  0.2400
 1855DPPC   GL143947  20.356  21.970  24.064 -0.0423 -0.2277 -0.0571
 1855DPPC   GL243948  20.142  22.250  24.181  0.1529 -0.1767  0.1561
 1855DPPC   C1A43949  20.167  21.616  23.952 -0.3548 -0.1203  0.1696
 1855DPPC   C2A43950  20.113  21.300  23.771  0.1657  0.0469 -0.2816
 1855DPPC   C3A43951  20.530  21.017  23.676  0.1908  0.1615  0.0213
 1855DPPC   C4A43952  20.832  21.082  23.846  0.3301  0.0123 -0.1202
 1855DPPC   C1B43953  20.097  22.010  24.509  0.3509  0.0429 -0.0099
 1855DPPC   C2B43954  19.911  21.668  24.793 -0.2240  0.1538  0.0794
 1855DPPC   C3B43955  19.539  21.345  24.800 -0.3057  0.3344  0.0903
 1855DPPC   C4B43956  19.225  21.065  25.101 -0.1742 -0.0565  0.1059
 1856DPPC   NC343957  12.183  20.123  41.378  0.1169 -0.0232  0.3137
 1856DPPC   PO443958  12.167  19.606  41.275 -0.2414  0.2111  0.1102
 1856DPPC   GL143959  12.192  19.436  40.890  0.0723  0.0956 -0.1279
 1856DPPC   GL243960  12.499  19.485  40.751 -0.1315 -0.0465  0.0659
 1856DPPC   C1A43961  12.081  19.149  40.545 -0.1006 -0.1955 -0.1113
 1856DPPC   C2A43962  12.287  18.987  40.139 -0.1812  0.3088  0.0004
 1856DPPC   C3A43963  12.192  18.932  39.770 -0.0710 -0.0784  0.3688
 1856DPPC   C4A43964  11.851  19.038  39.698  0.1782 -0.1628  0.5245
 1856DPPC   C1B43965  12.315  19.525  40.302  0.2700  0.2606 -0.0189
 1856DPPC   C2B43966  12.351  19.489  39.781  0.3075  0.1639  0.1132
 1856DPPC   C3B43967  12.424  19.177  39.428 -0.3063  0.0742 -0.2011
 1856DPPC   C4B43968  12.818  18.893  39.301 -0.1045 -0.2461  0.2125
 1857DPPC   NC343969   9.974  18.314  18.428  0.0765 -0.0829  0.3852
 1857DPPC   PO443970   9.718  18.000  18.648  0.0339 -0.2922 -0.3422
 1857DPPC   GL143971  10.051  18.018  18.813 -0.0758  0.0977 -0.0709
 1857DPPC   GL243972  10.286  17.739  18.893  0.4096  0.0377  0.1223
 1857DPPC   C1A43973  10.410  18.167  19.012  0.2607 -0.1076  0.2588
 1857DPPC   C2A43974  10.740  18.231  19.241  0.0914 -0.0029 -0.0416
 1857DPPC   C3A43975  10.822  18.173  19.626 -0.0497  0.2164  0.2106
 1857DPPC   C4A43976  10.726  18.018  20.103 -0.1784 -0.2894 -0.2685
 1857DPPC   C1B43977  10.453  17.392  18.877 -0.0153 -0.2294  0.2091
 1857DPPC   C2B43978  10.316  17.119  19.196 -0.1600  0.1521 -0.2803
 1857DPPC   C3B43979  10.504  16.895  19.537 -0.1697 -0.0851 -0.0100
 1857DPPC   C4B43980  10.733  17.173  19.799  0.3381 -0.2029  0.0418
 1858DPPC   NC343981  14.285   1.609  24.053 -0.0427  0.0882  0.0653
 1858DPPC   PO443982  14.381   1.585  23.675  0.0636 -0.1213 -0.1757
 1858DPPC   GL143983  14.562   2.018  23.984  0.0911  0.0705 -0.4973
 1858DPPC   GL243984  14.826   2.057  23.911  0.0385 -0.0570 -0.1328
 1858DPPC   C1A43985  14.437   2.166  24.338 -0.0822 -0.3175  0.1938
 1858DPPC   C2A43986  14.436   2.450  24.528  0.0699 -0.0880  0.0122
 1858DPPC   C3A43987  14.681   2.726  24.951  0.1012 -0.0617 -0.0219
 1858DPPC   C4A43988  14.580   2.933  25.355 -0.3298  0.1926  0.0298
 1858DPPC   C1B43989  14.910   2.418  24.117 -0.0758 -0.2123 -0.1055
 1858DPPC   C2B43990  14.931   2.650  24.449 -0.2423  0.0034  0.0035
 1858DPPC   C3B43991  14.793   3.073  24.553 -0.0523  0.3203 -0.0274
 1858DPPC   C4B43992  14.989   3.150  24.966 -0.1356 -0.0943  0.0335
 1859DPPC   NC343993  19.068   1.381  37.111 -0.1684  0.0069 -0.0642
 1859DPPC   PO443994  19.242   1.847  37.145 -0.1581  0.4294  0.0969
 1859DPPC   GL143995  18.812   2.028  37.036  0.2690 -0.0234  0.2321
 1859DPPC   GL243996  18.691   2.159  37.342  0.1971  0.2117  0.0054
 1859DPPC   C1A43997  18.669   2.203  36.692 -0.4094  0.2372 -0.4153
 1859DPPC   C2A43998  18.388   2.356  36.457  0.0160 -0.0517 -0.2682
 1859DPPC   C3A43999  18.155   2.654  36.424  0.0464 -0.1204 -0.2051
 1859DPPC   C4A44000  17.866   2.975  36.357 -0.0119  0.0367 -0.1929
 1859DPPC   C1B44001  18.254   2.361  37.123  0.2049 -0.1713 -0.1593
 1859DPPC   C2B44002  18.075   2.833  36.940 -0.1624 -0.1113  0.1119
 1859DPPC   C3B44003  17.933   3.145  36.868 -0.0926 -0.0227 -0.2100
 1859DPPC   C4B44004  17.602   3.319  36.660  0.2572  0.1237 -0.1549
 1860DPPC   NC344005  23.500   3.392  22.433  0.2335  0.0441 -0.1516
 1860DPPC   PO444006  23.460   3.492  22.831  0.1475  0.0550  0.1004
 1860DPPC   GL144007  23.327   3.906  23.008  0.2880  0.1994  0.2547
 1860DPPC   GL244008  23.129   3.857  23.283  0.0231 -0.0154 -0.1303
 1860DPPC   C1A44009  23.460   4.294  23.166 -0.0851  0.0008  0.0212
 1860DPPC   C2A44010  23.400   4.653  23.458 -0.2402  0.0131  0.0698
 1860DPPC   C3A44011  23.293   4.951  23.759  0.0860 -0.1732  0.2277
 1860DPPC   C4A44012  23.328   5.234  24.117 -0.4262 -0.1337 -0.0346
 1860DPPC   C1B44013  23.005   4.236  23.428 -0.1681  0.0380  0.2002
 1860DPPC   C2B44014  22.867   4.598  23.653  0.1644 -0.0212 -0.0259
 1860DPPC   C3B44015  22.829   5.006  23.847 -0.2781 -0.1604  0.1094
 1860DPPC   C4B44016  22.723   5.371  23.522  0.5348  0.2155 -0.3482
 1861DPPC   NC344017  12.497  14.477  39.119 -0.0376 -0.0379  0.1537
 1861DPPC   PO444018  12.674  14.170  39.279  0.2490 -0.0199 -0.1082
 1861DPPC   GL144019  12.516  14.074  39.651 -0.1048  0.0005 -0.4956
 1861DPPC   GL244020  12.565  14.400  39.814  0.2808  0.1181 -0.0928
 1861DPPC   C1A44021  12.095  14.287  39.649  0.3542  0.1894 -0.0677
 1861DPPC   C2A44022  11.875  14.556  39.876 -0.0785 -0.3449 -0.1820
 1861DPPC   C3A44023  11.668  14.573  40.152  0.0282 -0.2364 -0.1438
 1861DPPC   C4A44024  11.637  14.732  40.578 -0.1459 -0.1266 -0.0356
 1861DPPC   C1B44025  12.279  14.402  40.101  0.2388 -0.0144 -0.2340
 1861DPPC   C2B44026  12.037  14.318  40.474  0.1845  0.1059 -0.0446
 1861DPPC   C3B44027  12.159  14.090  40.954  0.1071 -0.0469  0.0927
 1861DPPC   C4B44028  11.903  13.864  41.254 -0.0094  0.5987 -0.3505
 1862DPPC   NC344029  19.970  22.472  21.859  0.0812  0.0645 -0.1411
 1862DPPC   PO444030  19.626  22.502  21.409 -0.2681 -0.1483  0.2829
 1862DPPC   GL144031  19.214  22.312  21.414 -0.0025 -0.1830 -0.2356
 1862DPPC   GL244032  19.091  22.266  21.713  0.2560 -0.3551 -0.1790
 1862DPPC   C1A44033  18.920  21.980  21.288  0.0933  0.3009  0.0744
 1862DPPC   C2A44034  18.481  21.883  21.418 -0.3390 -0.0378 -0.0542
 1862DPPC   C3A44035  18.221  22.206  21.530  0.1775 -0.0810  0.1047
 1862DPPC   C4A44036  18.247  22.576  21.724  0.0452  0.2001  0.0047
 1862DPPC   C1B44037  19.120  21.855  21.749 -0.1204  0.1957  0.3259
 1862DPPC   C2B44038  18.776  21.559  21.790 -0.0162  0.0534 -0.0988
 1862DPPC   C3B44039  18.396  21.362  21.778  0.2011  0.1710  0.0480
 1862DPPC   C4B44040  18.160  21.128  21.471  0.0331 -0.0417 -0.1590
 1863DPPC   NC344041  12.761  11.728  16.273 -0.0027 -0.3111 -0.1286
 1863DPPC   PO444042  12.489  12.113  16.491  0.0645 -0.1264  0.0350
 1863DPPC   GL144043  12.656  12.282  16.820  0.0933  0.1500 -0.4056
 1863DPPC   GL244044  12.648  12.605  16.814  0.0210 -0.0210 -0.1718
 1863DPPC   C1A44045  13.043  12.481  17.014  0.1272  0.0208  0.0053
 1863DPPC   C2A44046  13.444  12.758  16.970 -0.0277 -0.0608  0.0197
 1863DPPC   C3A44047  13.883  12.839  16.814  0.0027  0.1069  0.1216
 1863DPPC   C4A44048  14.266  12.882  16.967 -0.1335 -0.0557  0.1397
 1863DPPC   C1B44049  12.373  12.827  17.221  0.0757  0.1968 -0.0802
 1863DPPC   C2B44050  12.450  13.229  17.398 -0.0836  0.2306  0.3495
 1863DPPC   C3B44051  12.359  13.338  17.846  0.1578 -0.2635  0.4763
 1863DPPC   C4B44052  12.554  13.600  18.093  0.3783  0.1411 -0.0676
 1864DPPC   NC344053  23.740  17.299  21.162 -0.1221 -0.0627 -0.0941
 1864DPPC   PO444054  23.479  17.576  21.514  0.1238 -0.0777  0.3374
 1864DPPC   GL144055  22.936  17.532  21.676  0.2798 -0.1826  0.1691
 1864DPPC   GL244056  23.068  17.369  21.910  0.0019  0.3210 -0.0787
 1864DPPC   C1A44057  22.598  17.407  21.970 -0.0127 -0.0622 -0.0184
 1864DPPC   C2A44058  22.165  17.245  22.010  0.1459  0.0066  0.2361
 1864DPPC   C3A44059  22.015  16.952  21.804 -0.1152 -0.0174  0.3580
 1864DPPC   C4A44060  21.721  16.582  21.593 -0.1893 -0.0668 -0.0891
 1864DPPC   C1B44061  22.939  16.931  21.699  0.2114 -0.2407  0.1318
 1864DPPC   C2B44062  22.744  16.549  21.684  0.0326  0.2383  0.1216
 1864DPPC   C3B44063  22.758  16.397  22.104  0.3863 -0.4550  0.0268
 1864DPPC   C4B44064  23.044  16.219  22.201  0.2635 -0.2517  0.1503
 1865DPPC   NC344065   4.005  13.253  27.092 -0.0140  0.2225  0.3724
 1865DPPC   PO444066   3.790  13.294  26.731  0.1154  0.0920  0.1297
 1865DPPC   GL144067   4.225  13.587  26.594 -0.0475 -0.2300 -0.0797
 1865DPPC   GL244068   4.229  13.662  26.909  0.0722 -0.2262  0.3615
 1865DPPC   C1A44069   4.720  13.692  26.546  0.0856  0.1097  0.0033
 1865DPPC   C2A44070   5.123  13.903  26.594 -0.1301 -0.3198  0.1841
 1865DPPC   C3A44071   5.484  14.149  26.595  0.2528 -0.1591  0.0488
 1865DPPC   C4A44072   5.894  14.041  26.902  0.3251 -0.0244  0.2683
 1865DPPC   C1B44073   4.635  13.433  27.053 -0.1094 -0.2964 -0.0308
 1865DPPC   C2B44074   5.042  13.274  27.171 -0.2430  0.2837 -0.1981
 1865DPPC   C3B44075   5.386  13.280  27.274 -0.1071 -0.0190 -0.0236
 1865DPPC   C4B44076   5.715  13.108  27.385 -0.1304 -0.1606 -0.1335
 1866DPPC   NC344077  23.868  10.987  30.587  0.1454 -0.2199  0.2040
 1866DPPC   PO444078  24.090  11.307  30.244 -0.1245  0.3275  0.3383
 1866DPPC   GL144079  24.465  11.440  30.233  0.2284  0.3050 -0.1578
 1866DPPC   GL244080  24.552  11.748  30.034  0.1371 -0.0520 -0.1865
 1866DPPC   C1A44081  24.922  11.396  30.438 -0.1342  0.0137  0.1180
 1866DPPC   C2A44082  25.092  10.946  30.453 -0.0820  0.3054  0.4026
 1866DPPC   C3A44083  25.312  10.489  30.413  0.2301 -0.0136 -0.0306
 1866DPPC   C4A44084  25.530  10.071  30.271 -0.0271  0.0233  0.0409
 1866DPPC   C1B44085  24.791  11.742  29.665 -0.0813 -0.1582  0.0080
 1866DPPC   C2B44086  25.175  11.637  29.347  0.1225  0.0035 -0.0092
 1866DPPC   C3B44087  25.517  11.744  29.095 -0.0725  0.1593  0.1436
 1866DPPC   C4B44088  25.813  11.925  28.824 -0.2317  0.1279  0.0686
 1867DPPC   NC344089  21.303  19.123  17.901 -0.1640 -0.2053 -0.0672
 1867DPPC   PO444090  20.855  18.944  17.884 -0.1326 -0.1677  0.1378
 1867DPPC   GL144091  20.437  18.803  18.039 -0.3702 -0.1968 -0.0444
 1867DPPC   GL244092  20.177  18.852  17.955 -0.0090  0.1508 -0.0478
 1867DPPC   C1A44093  20.330  18.406  18.210 -0.0921  0.2625 -0.1107
 1867DPPC   C2A44094  20.110  18.116  17.967  0.0640 -0.3270 -0.0652
 1867DPPC   C3A44095  20.127  17.654  17.896  0.3224  0.2717 -0.2604
 1867DPPC   C4A44096  20.042  17.269  17.678  0.0938 -0.1075  0.0885
 1867DPPC   C1B44097  19.842  18.539  18.196  0.0913  0.0028 -0.2079
 1867DPPC   C2B44098  19.947  18.154  18.482 -0.0796 -0.1472  0.1467
 1867DPPC   C3B44099  19.951  17.890  18.804  0.0013  0.1919  0.2551
 1867DPPC   C4B44100  19.929  17.486  18.986 -0.3498 -0.1289  0.6286
 1868DPPC   NC344101   8.601   8.376  28.127 -0.0910  0.2232 -0.3759
 1868DPPC   PO444102   8.367   8.097  28.326 -0.0226 -0.2221 -0.0336
 1868DPPC   GL144103   7.992   7.915  28.289 -0.0935 -0.0703  0.0817
 1868DPPC   GL244104   7.687   8.066  28.372  0.2058 -0.0786  0.3092
 1868DPPC   C1A44105   7.816   7.565  28.214 -0.0810  0.1132  0.0559
 1868DPPC   C2A44106   7.509   7.268  28.035 -0.2356  0.2476 -0.0227
 1868DPPC   C3A44107   7.175   6.925  28.004  0.0143 -0.0592  0.0420
 1868DPPC   C4A44108   6.738   6.645  28.001  0.2558 -0.0088  0.0892
 1868DPPC   C1B44109   7.437   7.971  28.028  0.2109  0.0848  0.2426
 1868DPPC   C2B44110   7.178   8.148  27.764 -0.0927 -0.3271 -0.1281
 1868DPPC   C3B44111   6.714   8.200  27.698  0.3877 -0.2213 -0.2634
 1868DPPC   C4B44112   6.535   8.315  27.293  0.0979  0.0502  0.0619
 1869DPPC   NC344113  20.572  11.985  25.372  0.2560 -0.0772  0.0728
 1869DPPC   PO444114  20.249  12.018  25.016 -0.0500  0.3179  0.0056
 1869DPPC   GL144115  19.872  12.167  25.046 -0.0066 -0.0661 -0.0289
 1869DPPC   GL244116  19.736  12.295  25.374 -0.3282 -0.2693 -0.3008
 1869DPPC   C1A44117  19.563  12.419  24.911 -0.2686  0.0092 -0.2051
 1869DPPC   C2A44118  19.285  12.800  24.958 -0.1636  0.2312  0.0833
 1869DPPC   C3A44119  19.301  12.851  24.545  0.1105  0.1874  0.3968
 1869DPPC   C4A44120  19.327  13.104  24.253 -0.2419  0.1516  0.1884
 1869DPPC   C1B44121  19.274  12.526  25.390 -0.1667 -0.0711  0.1078
 1869DPPC   C2B44122  19.096  12.862  25.583 -0.0054  0.1115  0.0636
 1869DPPC   C3B44123  19.036  13.277  25.707 -0.0960 -0.1753 -0.0953
 1869DPPC   C4B44124  18.927  13.585  26.056  0.0462  0.2870 -0.0288
 1870DPPC   NC344125   0.811   9.723  30.915 -0.2450  0.0985 -0.6400
 1870DPPC   PO444126   0.662   9.943  30.634 -0.0343 -0.1225 -0.1594
 1870DPPC   GL144127   0.224   9.960  30.596  0.0370 -0.0221 -0.0566
 1870DPPC   GL244128   0.231  10.226  30.327 -0.1029 -0.1237 -0.3676
 1870DPPC   C1A44129  26.799   9.916  30.504 -0.1487  0.0123  0.1857
 1870DPPC   C2A44130  26.375  10.016  30.377 -0.0271  0.0905 -0.0840
 1870DPPC   C3A44131  26.004  10.029  30.570  0.0545  0.2054  0.0263
 1870DPPC   C4A44132  25.626  10.247  30.737 -0.0381 -0.1488  0.0147
 1870DPPC   C1B44133  26.981  10.451  30.601  0.3941 -0.0474 -0.0022
 1870DPPC   C2B44134  26.759  10.789  30.673  0.3175  0.1417 -0.0231
 1870DPPC   C3B44135  26.454  11.118  30.580 -0.3323 -0.1702 -0.0220
 1870DPPC   C4B44136  26.132  11.481  30.659 -0.3883  0.0448 -0.2357
 1871DPPC   NC344137   3.702   9.356  29.513  0.2586 -0.0203  0.0437
 1871DPPC   PO444138   3.698   9.800  29.720 -0.1059 -0.1063 -0.1313
 1871DPPC   GL144139   3.887  10.157  29.644  0.1195 -0.1459 -0.2019
 1871DPPC   GL244140   3.870  10.496  29.764  0.0104 -0.0757 -0.0520
 1871DPPC   C1A44141   4.298  10.401  29.563  0.3889 -0.2228  0.2872
 1871DPPC   C2A44142   4.610  10.717  29.686  0.0238  0.0859  0.2563
 1871DPPC   C3A44143   5.056  10.784  29.734 -0.2897  0.0333 -0.2594
 1871DPPC   C4A44144   5.379  10.657  30.048 -0.2067 -0.2439  0.0335
 1871DPPC   C1B44145   4.229  10.710  29.986 -0.0544 -0.1195  0.0428
 1871DPPC   C2B44146   4.524  10.992  30.141 -0.1241 -0.2584 -0.1042
 1871DPPC   C3B44147   4.918  11.104  30.258  0.3335 -0.1509 -0.0227
 1871DPPC   C4B44148   5.414  11.343  30.278  0.1807 -0.2438  0.1015
 1872DPPC   NC344149   5.666   7.407  24.711  0.0297 -0.0149 -0.1795
 1872DPPC   PO444150   5.733   7.101  25.118  0.1244  0.1654  0.2629
 1872DPPC   GL144151   6.086   7.219  25.431 -0.1327  0.0420  0.0562
 1872DPPC   GL244152   6.439   7.156  25.271  0.0249  0.1210 -0.0781
 1872DPPC   C1A44153   6.253   7.552  25.592  0.0735 -0.0167 -0.2786
 1872DPPC   C2A44154   6.362   7.549  26.042  0.0856  0.1110  0.1750
 1872DPPC   C3A44155   6.668   7.640  26.298 -0.1671 -0.3379 -0.1683
 1872DPPC   C4A44156   7.136   7.690  26.334  0.2340  0.1280  0.0258
 1872DPPC   C1B44157   6.670   7.553  25.201 -0.0069 -0.0374 -0.0050
 1872DPPC   C2B44158   7.041   7.772  25.354  0.0059  0.1097  0.0014
 1872DPPC   C3B44159   7.460   7.871  25.256  0.4639 -0.1714 -0.1738
 1872DPPC   C4B44160   7.937   8.050  25.266  0.1934  0.4871 -0.0759
 1873DPPC   NC344161   5.447  14.386  39.384 -0.1626  0.2860 -0.0277
 1873DPPC   PO444162   5.843  14.417  39.267  0.0556 -0.0484  0.0039
 1873DPPC   GL144163   6.197  14.475  39.085  0.0382 -0.3956 -0.0098
 1873DPPC   GL244164   6.294  14.348  38.811 -0.3741  0.0755  0.1272
 1873DPPC   C1A44165   6.707  14.546  38.941  0.0307 -0.0259 -0.0189
 1873DPPC   C2A44166   7.072  14.600  38.570  0.0590 -0.1329 -0.2754
 1873DPPC   C3A44167   7.307  14.584  38.167  0.0221  0.0210  0.2028
 1873DPPC   C4A44168   7.755  14.715  38.008 -0.1358 -0.2760  0.0388
 1873DPPC   C1B44169   6.447  14.378  38.393 -0.1070  0.0864  0.3992
 1873DPPC   C2B44170   6.858  14.279  38.222  0.2839  0.1180  0.1151
 1873DPPC   C3B44171   7.127  14.149  37.962 -0.0299 -0.0164 -0.0190
 1873DPPC   C4B44172   7.491  14.023  37.786 -0.0428 -0.2170  0.1908
 1874DPPC   NC344173   9.721  24.317  30.562  0.3773 -0.0710 -0.1706
 1874DPPC   PO444174   9.780  24.320  30.070  0.0070  0.3690  0.1000
 1874DPPC   GL144175  10.189  24.096  30.044 -0.0916  0.4805 -0.3348
 1874DPPC   GL244176  10.361  24.218  30.350 -0.1264 -0.2325 -0.0296
 1874DPPC   C1A44177  10.374  23.794  30.038  0.1436 -0.1530 -0.1862
 1874DPPC   C2A44178  10.488  23.578  29.755 -0.1129  0.5052  0.0090
 1874DPPC   C3A44179  10.651  23.274  29.855 -0.1678  0.1006 -0.1755
 1874DPPC   C4A44180  10.465  22.931  29.942 -0.0477  0.1272  0.3582
 1874DPPC   C1B44181  10.443  23.864  30.673 -0.1305  0.1159  0.0717
 1874DPPC   C2B44182  10.345  23.442  30.708  0.1086 -0.3101  0.0333
 1874DPPC   C3B44183  10.305  23.100  30.957 -0.0896 -0.1218 -0.0251
 1874DPPC   C4B44184   9.919  23.100  31.192 -0.0969 -0.1296 -0.0264
 1875DPPC   NC344185  12.912  14.250  25.611  0.0439 -0.1598 -0.0501
 1875DPPC   PO444186  13.163  14.034  25.844  0.0143  0.3217  0.1054
 1875DPPC   GL144187  13.488  13.801  25.767  0.0357 -0.2017  0.1033
 1875DPPC   GL244188  13.720  13.908  25.999 -0.2525 -0.3489 -0.0470
 1875DPPC   C1A44189  13.523  13.325  25.757 -0.0233  0.1712 -0.0007
 1875DPPC   C2A44190  13.624  13.025  25.492 -0.1598 -0.1530  0.2462
 1875DPPC   C3A44191  13.990  12.743  25.338  0.1581  0.3031 -0.1013
 1875DPPC   C4A44192  13.934  12.601  24.886  0.3188  0.1020  0.0805
 1875DPPC   C1B44193  14.025  14.054  26.320 -0.0957  0.0998  0.1055
 1875DPPC   C2B44194  14.416  14.168  26.525 -0.2375  0.1438 -0.0549
 1875DPPC   C3B44195  14.883  14.057  26.686  0.1305 -0.2428  0.1303
 1875DPPC   C4B44196  15.235  13.882  26.581  0.0456 -0.2277  0.0342
 1876DPPC   NC344197  20.181  23.228  30.696 -0.2341 -0.1089  0.0053
 1876DPPC   PO444198  20.489  23.283  30.943  0.2367 -0.0859 -0.3571
 1876DPPC   GL144199  20.364  22.832  31.069  0.0875 -0.2333 -0.0866
 1876DPPC   GL244200  20.231  22.838  31.319  0.0372  0.1037  0.0153
 1876DPPC   C1A44201  20.248  22.467  30.963 -0.2948  0.1826  0.1502
 1876DPPC   C2A44202  20.120  21.961  31.032  0.0259 -0.3789  0.0393
 1876DPPC   C3A44203  20.129  21.529  30.761  0.3723 -0.1020 -0.2235
 1876DPPC   C4A44204  20.303  21.101  30.673  0.3806 -0.2777 -0.1764
 1876DPPC   C1B44205  19.909  22.758  31.083  0.0161 -0.3287 -0.0980
 1876DPPC   C2B44206  19.664  22.325  31.011 -0.2913 -0.1729  0.0313
 1876DPPC   C3B44207  19.700  21.845  30.807 -0.0881 -0.1243 -0.0075
 1876DPPC   C4B44208  19.609  21.401  30.656 -0.5244 -0.0542  0.2614
 1877DPPC   NC344209  13.132  12.646  15.941  0.0338  0.0521 -0.0135
 1877DPPC   PO444210  13.065  12.491  16.414  0.0367  0.0525 -0.1029
 1877DPPC   GL144211  13.514  12.309  16.636 -0.1394  0.1388  0.3654
 1877DPPC   GL244212  13.277  12.161  16.699 -0.1205 -0.1538  0.0656
 1877DPPC   C1A44213  13.731  11.971  16.944 -0.0025 -0.2814 -0.4200
 1877DPPC   C2A44214  13.953  11.775  17.263 -0.0967 -0.2162 -0.2947
 1877DPPC   C3A44215  13.850  11.896  17.732  0.1032  0.2311  0.0053
 1877DPPC   C4A44216  13.745  11.680  18.183 -0.0479 -0.0071 -0.1457
 1877DPPC   C1B44217  13.180  12.029  17.105 -0.1518  0.1157 -0.0670
 1877DPPC   C2B44218  13.510  12.156  17.433 -0.1905  0.0130 -0.0279
 1877DPPC   C3B44219  13.744  12.397  17.722 -0.1828  0.0760  0.1059
 1877DPPC   C4B44220  13.625  12.527  18.125  0.0980 -0.1817 -0.1449
 1878DPPC   NC344221  26.656  13.478  22.535 -0.2844  0.1096  0.2064
 1878DPPC   PO444222  26.425  13.039  22.497 -0.0167 -0.1036  0.2194
 1878DPPC   GL144223  26.037  13.087  22.738  0.0398  0.0641 -0.3256
 1878DPPC   GL244224  26.079  12.922  22.997  0.0227 -0.0206 -0.0803
 1878DPPC   C1A44225  25.798  13.301  22.893  0.5172 -0.0174 -0.1256
 1878DPPC   C2A44226  25.508  13.277  23.225  0.1365 -0.2887 -0.1526
 1878DPPC   C3A44227  25.084  12.963  23.315 -0.1317  0.2408 -0.3871
 1878DPPC   C4A44228  24.660  12.752  23.224 -0.1805 -0.0028  0.1601
 1878DPPC   C1B44229  25.705  12.709  23.069 -0.0783 -0.0667  0.1378
 1878DPPC   C2B44230  25.292  12.484  23.094 -0.0072  0.2817 -0.2001
 1878DPPC   C3B44231  24.959  12.274  23.280  0.1986 -0.3123  0.1495
 1878DPPC   C4B44232  24.573  12.257  23.198  0.1220 -0.1304  0.2485
 1879DPPC   NC344233   4.008  13.853  24.612  0.1889 -0.1468 -0.5231
 1879DPPC   PO444234   4.433  13.819  24.456 -0.0378 -0.0600  0.0017
 1879DPPC   GL144235   4.754  14.004  24.600 -0.2227  0.0118 -0.3174
 1879DPPC   GL244236   4.999  14.200  24.570 -0.2229 -0.0810 -0.1217
 1879DPPC   C1A44237   5.026  13.915  24.959 -0.1215 -0.1680 -0.0877
 1879DPPC   C2A44238   5.380  13.900  25.266  0.2420 -0.0933 -0.2423
 1879DPPC   C3A44239   5.736  13.606  25.445 -0.1011 -0.0422  0.1469
 1879DPPC   C4A44240   6.121  13.856  25.613  0.4832  0.0157  0.3322
 1879DPPC   C1B44241   5.162  14.438  25.025  0.1253  0.1331  0.0450
 1879DPPC   C2B44242   5.448  14.604  25.348  0.0116  0.1276 -0.2229
 1879DPPC   C3B44243   5.747  14.851  25.436 -0.0842  0.1315 -0.1328
 1879DPPC   C4B44244   6.220  14.884  25.482 -0.3113 -0.0114 -0.4704
 1880DPPC   NC344245  11.195   2.067  25.936  0.1288 -0.3118 -0.1807
 1880DPPC   PO444246  10.968   2.147  26.281  0.1207  0.2112 -0.0779
 1880DPPC   GL144247  11.231   2.349  26.389  0.0220 -0.2808  0.1433
 1880DPPC   GL244248  11.142   2.520  26.767 -0.0254  0.3709  0.1250
 1880DPPC   C1A44249  11.614   2.549  26.511  0.1967  0.1210 -0.1167
 1880DPPC   C2A44250  11.739   2.946  26.419  0.0154  0.2740 -0.3234
 1880DPPC   C3A44251  11.968   3.209  26.129  0.0278 -0.2001  0.1898
 1880DPPC   C4A44252  12.283   3.676  26.249  0.1773  0.1345  0.0254
 1880DPPC   C1B44253  11.240   2.835  26.652 -0.0713  0.1955  0.1127
 1880DPPC   C2B44254  11.289   3.300  26.577 -0.1975 -0.0112 -0.3397
 1880DPPC   C3B44255  11.696   3.557  26.544 -0.0680 -0.2081 -0.0133
 1880DPPC   C4B44256  11.559   3.880  26.411  0.1784  0.0132  0.0136
 1881DPPC   NC344257   0.599  12.195  26.143 -0.0408  0.0308 -0.3118
 1881DPPC   PO444258   0.399  12.613  26.446  0.1332 -0.1316 -0.2813
 1881DPPC   GL144259  27.006  12.440  26.571  0.0148  0.1979  0.0105
 1881DPPC   GL244260   0.003  12.406  26.898 -0.1864 -0.0452 -0.1244
 1881DPPC   C1A44261  26.688  12.525  26.546  0.1112  0.2342 -0.0514
 1881DPPC   C2A44262  26.345  12.396  26.679  0.2504  0.0081 -0.0852
 1881DPPC   C3A44263  25.951  12.512  26.899 -0.0041 -0.5750  0.0407
 1881DPPC   C4A44264  25.916  12.812  27.263 -0.1512  0.2284 -0.0291
 1881DPPC   C1B44265  26.773  12.352  27.041 -0.1539  0.0480 -0.0943
 1881DPPC   C2B44266  26.328  12.493  27.256 -0.0936 -0.0612  0.2035
 1881DPPC   C3B44267  26.018  12.542  27.661 -0.0526  0.3243 -0.0748
 1881DPPC   C4B44268  25.632  12.727  27.680 -0.2656 -0.1420  0.1086
 1882DPPC   NC344269  22.200  16.007  31.913  0.0683 -0.0438 -0.0697
 1882DPPC   PO444270  22.507  16.247  32.225  0.3145  0.0090  0.0219
 1882DPPC   GL144271  22.873  16.520  32.135  0.2628  0.2399  0.1830
 1882DPPC   GL244272  22.818  16.722  31.904  0.1955  0.0055  0.0978
 1882DPPC   C1A44273  23.387  16.587  31.895  0.1371 -0.0803  0.1653
 1882DPPC   C2A44274  23.738  16.904  31.795 -0.0241  0.0906 -0.1442
 1882DPPC   C3A44275  23.985  17.194  31.574  0.0213 -0.0022 -0.0532
 1882DPPC   C4A44276  24.382  17.087  31.169  0.0626  0.0190  0.0385
 1882DPPC   C1B44277  23.051  17.034  31.764  0.0369  0.2456  0.1417
 1882DPPC   C2B44278  23.369  17.156  31.556 -0.1918 -0.0844  0.1439
 1882DPPC   C3B44279  23.548  17.305  31.140  0.1472  0.0233  0.0104
 1882DPPC   C4B44280  23.896  17.215  31.002 -0.1638 -0.0484 -0.0280
 1883DPPC   NC344281  16.764   5.081  17.567  0.2211  0.1977  0.0372
 1883DPPC   PO444282  17.224   5.078  17.426  0.0035  0.1397  0.0816
 1883DPPC   GL144283  17.269   5.490  17.654  0.0223  0.2138 -0.2851
 1883DPPC   GL244284  17.557   5.435  17.791  0.2686  0.1137  0.0718
 1883DPPC   C1A44285  17.043   5.897  17.836 -0.3053  0.0713  0.1360
 1883DPPC   C2A44286  16.817   5.997  17.974  0.2040 -0.3125 -0.1445
 1883DPPC   C3A44287  16.504   6.193  18.040 -0.1531  0.0174  0.1531
 1883DPPC   C4A44288  16.273   6.247  18.463 -0.0159  0.0059 -0.1128
 1883DPPC   C1B44289  17.697   5.606  18.190  0.1222  0.0195 -0.3653
 1883DPPC   C2B44290  17.895   5.703  18.597 -0.1214  0.0915 -0.2054
 1883DPPC   C3B44291  17.842   5.504  18.923  0.4148  0.1718 -0.0737
 1883DPPC   C4B44292  17.937   5.381  19.358  0.2226  0.1704 -0.1749
 1884DPPC   NC344293  17.069   6.554  22.216  0.0608 -0.0337 -0.0558
 1884DPPC   PO444294  17.279   6.894  22.101 -0.0608 -0.2146  0.1569
 1884DPPC   GL144295  17.509   6.496  21.931  0.3201  0.1761 -0.0634
 1884DPPC   GL244296  17.360   6.420  21.643  0.1737 -0.0279  0.1351
 1884DPPC   C1A44297  17.694   6.076  21.781  0.2701  0.0512 -0.0685
 1884DPPC   C2A44298  17.641   5.799  21.462 -0.0279 -0.2108  0.2284
 1884DPPC   C3A44299  17.602   5.539  21.138 -0.1627 -0.2606  0.2264
 1884DPPC   C4A44300  17.497   5.284  20.834 -0.0514 -0.0684 -0.2065
 1884DPPC   C1B44301  17.541   6.247  21.353 -0.0055 -0.0843 -0.0460
 1884DPPC   C2B44302  17.293   5.933  21.065 -0.2102  0.4253 -0.4680
 1884DPPC   C3B44303  17.133   5.552  20.905  0.1559 -0.0600  0.4632
 1884DPPC   C4B44304  17.023   5.119  20.834  0.0000 -0.1386  0.1726
 1885DPPC   NC344305   9.398  10.946  18.518 -0.0029  0.4914 -0.0413
 1885DPPC   PO444306   8.985  11.175  18.699  0.1152  0.1041 -0.2513
 1885DPPC   GL144307   9.313  11.289  18.974  0.3250  0.1667  0.2215
 1885DPPC   GL244308   9.526  10.983  19.025 -0.1895  0.3580  0.3005
 1885DPPC   C1A44309   9.408  11.690  19.095 -0.3149  0.0830  0.1313
 1885DPPC   C2A44310   9.851  11.871  19.293  0.3483 -0.3721  0.0484
 1885DPPC   C3A44311  10.326  11.961  19.109  0.1421 -0.0893 -0.0313
 1885DPPC   C4A44312  10.620  12.449  19.279 -0.2291  0.4218  0.0383
 1885DPPC   C1B44313   9.971  10.966  19.239 -0.0516  0.2868  0.0437
 1885DPPC   C2B44314  10.345  10.876  19.602 -0.2041 -0.3801  0.1869
 1885DPPC   C3B44315  10.649  10.929  19.916 -0.0557 -0.0905  0.1535
 1885DPPC   C4B44316  11.030  10.931  20.117  0.0381  0.0887  0.1218
 1886DPPC   NC344317  18.300  16.806  37.622  0.2143 -0.0356 -0.0938
 1886DPPC   PO444318  18.175  17.266  37.383 -0.2316  0.0776  0.2090
 1886DPPC   GL144319  18.278  17.468  37.748 -0.0745  0.1713 -0.0709
 1886DPPC   GL244320  18.269  17.272  37.969 -0.0531  0.0187 -0.2130
 1886DPPC   C1A44321  18.541  17.751  38.023 -0.1559 -0.1154  0.1598
 1886DPPC   C2A44322  18.636  18.064  38.262  0.1163 -0.1265 -0.4252
 1886DPPC   C3A44323  18.590  18.093  38.684 -0.1310  0.0998  0.1160
 1886DPPC   C4A44324  18.438  18.292  39.091  0.0476  0.1902  0.1206
 1886DPPC   C1B44325  18.470  17.343  38.397  0.1798  0.0559  0.3037
 1886DPPC   C2B44326  18.622  17.609  38.725  0.3479  0.1486  0.1352
 1886DPPC   C3B44327  18.818  17.742  39.078  0.1644  0.3228 -0.0779
 1886DPPC   C4B44328  19.358  17.828  39.082 -0.0048  0.1657 -0.1905
 1887DPPC   NC344329  18.772   6.173  35.305  0.0280 -0.0031 -0.0418
 1887DPPC   PO444330  18.519   5.890  35.609  0.1163  0.3633 -0.0692
 1887DPPC   GL144331  18.675   5.517  35.341  0.1611 -0.0520  0.1756
 1887DPPC   GL244332  18.409   5.314  35.348  0.0512 -0.2294 -0.1260
 1887DPPC   C1A44333  18.973   5.247  35.254 -0.0720 -0.0967  0.1007
 1887DPPC   C2A44334  19.062   4.918  35.612 -0.1005 -0.2826  0.0216
 1887DPPC   C3A44335  18.979   4.479  35.858 -0.1402 -0.2715  0.0351
 1887DPPC   C4A44336  19.208   4.210  36.317  0.2352 -0.5833  0.0274
 1887DPPC   C1B44337  18.526   5.032  35.399  0.0827  0.3248  0.0305
 1887DPPC   C2B44338  18.754   4.701  35.330 -0.0962 -0.3664  0.2406
 1887DPPC   C3B44339  18.903   4.227  35.359 -0.0771 -0.2326 -0.0013
 1887DPPC   C4B44340  18.817   3.719  35.268 -0.0819  0.0698 -0.0705
 1888DPPC   NC344341  12.737   7.860  24.089 -0.1384  0.0501  0.0313
 1888DPPC   PO444342  12.483   7.892  23.658 -0.0154 -0.0323 -0.0426
 1888DPPC   GL144343  12.071   7.871  23.446 -0.1294  0.1734 -0.2243
 1888DPPC   GL244344  11.841   7.792  23.571  0.3168  0.1056  0.1616
 1888DPPC   C1A44345  11.787   7.796  23.086  0.0386 -0.1361  0.0457
 1888DPPC   C2A44346  11.705   7.546  22.830 -0.0146  0.1199 -0.1974
 1888DPPC   C3A44347  11.593   7.101  22.565  0.0528 -0.2376 -0.1511
 1888DPPC   C4A44348  11.464   6.729  22.407 -0.0461  0.4984 -0.0918
 1888DPPC   C1B44349  11.363   7.729  23.422 -0.0837 -0.1138 -0.0857
 1888DPPC   C2B44350  11.111   7.364  23.369 -0.1583 -0.0318  0.1160
 1888DPPC   C3B44351  11.022   7.042  23.125  0.2875  0.2548 -0.3182
 1888DPPC   C4B44352  11.070   7.024  22.652  0.1249  0.1647 -0.2070
 1889DPPC   NC344353  11.099  22.522  22.162 -0.1773  0.2552 -0.1675
 1889DPPC   PO444354  10.659  22.721  22.117  0.0534  0.1138  0.0831
 1889DPPC   GL144355  10.568  22.316  22.313 -0.2995 -0.4971 -0.1600
 1889DPPC   GL244356  10.415  21.921  22.326 -0.3683 -0.0906  0.0232
 1889DPPC   C1A44357  10.792  22.150  22.705  0.0444 -0.1929  0.3213
 1889DPPC   C2A44358  11.062  21.754  22.938  0.0148  0.0950 -0.0509
 1889DPPC   C3A44359  11.082  21.606  23.337  0.3373 -0.1627 -0.3578
 1889DPPC   C4A44360  11.262  21.279  23.533 -0.1858 -0.1834  0.0255
 1889DPPC   C1B44361  10.526  21.722  22.692  0.1914 -0.0575 -0.0259
 1889DPPC   C2B44362  10.613  21.406  22.821 -0.1146  0.2009 -0.0795
 1889DPPC   C3B44363  10.869  21.216  23.079  0.1310 -0.2528  0.2583
 1889DPPC   C4B44364  10.885  20.925  23.447  0.3520 -0.0783 -0.1019
 1890DPPC   NC344365  19.652   0.815  32.571  0.1337  0.2706 -0.0089
 1890DPPC   PO444366  19.641   0.915  32.177 -0.0559 -0.0404  0.1071
 1890DPPC   GL144367  19.732   1.237  32.385 -0.0622  0.0792 -0.3732
 1890DPPC   GL244368  19.532   1.375  32.519  0.1158  0.1246 -0.3360
 1890DPPC   C1A44369  19.993   1.600  32.292  0.0292 -0.1735 -0.0190
 1890DPPC   C2A44370  19.958   2.052  32.393 -0.1333  0.2909 -0.0022
 1890DPPC   C3A44371  20.183   2.398  32.589 -0.2406 -0.1148  0.0082
 1890DPPC   C4A44372  20.198   2.948  32.475 -0.1940  0.4200 -0.1111
 1890DPPC   C1B44373  19.597   1.813  32.664  0.0504  0.4804 -0.2893
 1890DPPC   C2B44374  19.739   2.222  32.811 -0.1456  0.1475  0.1338
 1890DPPC   C3B44375  19.885   2.757  32.882 -0.2375  0.2923  0.0137
 1890DPPC   C4B44376  19.701   3.035  33.126  0.1778  0.1497  0.0705
 1891DPPC   NC344377   0.702  10.246  30.228  0.0384 -0.0175  0.0439
 1891DPPC   PO444378   0.674  10.642  30.311  0.0876 -0.0946 -0.0217
 1891DPPC   GL144379   0.244  10.778  30.329 -0.2002 -0.5785 -0.0540
 1891DPPC   GL244380   0.174  11.010  30.623  0.1408 -0.0691  0.0566
 1891DPPC   C1A44381  26.899  10.684  30.139  0.0761  0.1430 -0.1359
 1891DPPC   C2A44382  26.459  10.468  30.294 -0.1306  0.3802  0.0445
 1891DPPC   C3A44383  26.350  10.405  30.658  0.1921 -0.0320  0.0005
 1891DPPC   C4A44384  26.093  10.204  31.016 -0.0252  0.2964  0.3192
 1891DPPC   C1B44385  26.859  11.153  30.322  0.0513  0.0505  0.2025
 1891DPPC   C2B44386  26.364  11.330  30.174  0.0462 -0.0992  0.0788
 1891DPPC   C3B44387  25.953  11.473  30.138  0.2603 -0.1496  0.1505
 1891DPPC   C4B44388  25.695  11.620  30.473 -0.0040 -0.2829 -0.4215
 1892DPPC   NC344389  12.022  18.157  22.921 -0.0305 -0.1622  0.2087
 1892DPPC   PO444390  12.457  18.375  23.146 -0.1044 -0.0477  0.0127
 1892DPPC   GL144391  12.072  18.685  22.998  0.0745 -0.0870 -0.0734
 1892DPPC   GL244392  12.098  18.770  22.695 -0.0182 -0.0767 -0.1268
 1892DPPC   C1A44393  11.639  18.840  22.936  0.0426  0.0064  0.2321
 1892DPPC   C2A44394  11.268  18.996  22.678 -0.4212  0.1221  0.0654
 1892DPPC   C3A44395  11.067  19.186  22.373 -0.1009  0.1298  0.0741
 1892DPPC   C4A44396  10.746  19.253  22.106 -0.0726 -0.0681 -0.0631
 1892DPPC   C1B44397  12.203  19.104  22.372 -0.0954  0.1295 -0.1042
 1892DPPC   C2B44398  12.116  19.465  22.163 -0.0390  0.2654 -0.0365
 1892DPPC   C3B44399  11.878  19.804  22.152 -0.1418 -0.1202 -0.2517
 1892DPPC   C4B44400  11.790  20.115  22.347  0.1306 -0.0904 -0.3821
 1893DPPC   NC344401  15.597   8.564  39.013  0.6314 -0.0075  0.0306
 1893DPPC   PO444402  15.552   8.235  38.753  0.5439 -0.1160 -0.1837
 1893DPPC   GL144403  15.613   8.016  39.197  0.0909  0.0480  0.0273
 1893DPPC   GL244404  15.482   7.798  39.126  0.0379  0.1019  0.0296
 1893DPPC   C1A44405  15.724   7.994  39.622  0.1948 -0.2312 -0.0200
 1893DPPC   C2A44406  15.653   7.913  40.099 -0.1781  0.0834  0.0031
 1893DPPC   C3A44407  15.830   7.897  40.563 -0.0132 -0.3528  0.1343
 1893DPPC   C4A44408  15.943   7.689  40.934 -0.0675  0.0598  0.3106
 1893DPPC   C1B44409  15.607   7.496  39.445  0.1241  0.0005  0.0684
 1893DPPC   C2B44410  15.761   7.484  39.814 -0.1911  0.2971 -0.0039
 1893DPPC   C3B44411  15.637   7.420  40.265  0.0411  0.0990 -0.0381
 1893DPPC   C4B44412  15.466   7.153  40.546  0.1536  0.1449 -0.1888
 1894DPPC   NC344413  23.205  10.303  24.934 -0.0889  0.0631  0.0468
 1894DPPC   PO444414  23.203  10.618  24.579 -0.0122 -0.2587  0.0802
 1894DPPC   GL144415  23.373  10.227  24.403 -0.4362 -0.0984 -0.1257
 1894DPPC   GL244416  23.331   9.928  24.499 -0.2892 -0.0566 -0.0587
 1894DPPC   C1A44417  23.795  10.168  24.628  0.0134  0.1220  0.2467
 1894DPPC   C2A44418  24.237  10.230  24.548 -0.0456  0.0102 -0.0715
 1894DPPC   C3A44419  24.676  10.377  24.489 -0.0073  0.1271 -0.0481
 1894DPPC   C4A44420  25.051  10.321  24.288  0.0695 -0.3242 -0.2514
 1894DPPC   C1B44421  23.671   9.670  24.557 -0.0943 -0.0554  0.1136
 1894DPPC   C2B44422  24.057   9.647  24.477 -0.2099 -0.1897  0.1746
 1894DPPC   C3B44423  24.454   9.724  24.426  0.0522 -0.2060 -0.0580
 1894DPPC   C4B44424  24.865   9.836  24.616 -0.1198 -0.0275 -0.1737
 1895DPPC   NC344425  15.599   0.058  31.293 -0.1063  0.0290  0.1273
 1895DPPC   PO444426  15.460   0.146  30.949  0.1857 -0.2030  0.0759
 1895DPPC   GL144427  15.544   0.503  30.956  0.0559 -0.1377  0.0856
 1895DPPC   GL244428  15.254   0.718  30.998  0.1873 -0.0905  0.1873
 1895DPPC   C1A44429  15.666   0.874  31.141 -0.0414 -0.2179  0.0746
 1895DPPC   C2A44430  15.693   1.341  31.194  0.2301 -0.0481  0.0070
 1895DPPC   C3A44431  15.727   1.868  31.381 -0.2129 -0.0408  0.0698
 1895DPPC   C4A44432  15.884   2.182  31.637 -0.2678  0.2917  0.0741
 1895DPPC   C1B44433  15.086   1.027  30.852 -0.1507  0.0893 -0.0175
 1895DPPC   C2B44434  14.822   1.409  30.889 -0.2194 -0.1394 -0.0946
 1895DPPC   C3B44435  14.546   1.824  30.816  0.1340  0.0334  0.2062
 1895DPPC   C4B44436  14.636   2.176  30.593 -0.0461  0.3538 -0.0137
 1896DPPC   NC344437  20.232  18.337  31.245 -0.0597  0.1586  0.0448
 1896DPPC   PO444438  20.496  17.875  31.297 -0.1456  0.1102  0.3063
 1896DPPC   GL144439  20.812  18.189  31.222  0.1632 -0.2701 -0.1602
 1896DPPC   GL244440  20.742  18.367  31.425 -0.1404 -0.1108  0.3127
 1896DPPC   C1A44441  21.064  18.636  31.016  0.0828 -0.0659 -0.3083
 1896DPPC   C2A44442  21.187  19.048  30.725  0.1315  0.3023 -0.1889
 1896DPPC   C3A44443  20.960  19.464  30.646  0.0461 -0.1197 -0.0525
 1896DPPC   C4A44444  21.174  19.836  30.559 -0.0330 -0.2041  0.0676
 1896DPPC   C1B44445  20.714  18.760  31.429  0.1186  0.1611 -0.1329
 1896DPPC   C2B44446  21.114  19.173  31.595  0.0345  0.0731 -0.1642
 1896DPPC   C3B44447  21.517  19.177  31.686  0.1092 -0.0431  0.0735
 1896DPPC   C4B44448  21.856  19.174  31.405 -0.0628 -0.3122 -0.1795
 1897DPPC   NC344449   8.628  19.271  21.280 -0.1061 -0.0256 -0.2795
 1897DPPC   PO444450   8.833  18.967  21.188  0.0203  0.0402  0.0751
 1897DPPC   GL144451   9.143  18.693  21.016 -0.0263  0.0196  0.0009
 1897DPPC   GL244452   9.332  18.950  20.976 -0.3663 -0.1593  0.0585
 1897DPPC   C1A44453   9.306  18.336  21.228 -0.1231 -0.0250 -0.0585
 1897DPPC   C2A44454   9.578  18.007  21.213 -0.3504 -0.0681 -0.2850
 1897DPPC   C3A44455   9.811  17.686  21.579  0.0719  0.2708  0.0198
 1897DPPC   C4A44456  10.203  17.592  21.679  0.1377  0.3322  0.0133
 1897DPPC   C1B44457   9.369  18.850  21.489  0.1659 -0.1469 -0.3404
 1897DPPC   C2B44458   9.539  18.483  21.741  0.0115 -0.1548  0.0181
 1897DPPC   C3B44459   9.660  18.078  21.904  0.2177 -0.0303  0.2207
 1897DPPC   C4B44460   9.808  17.863  22.161 -0.1175  0.3366 -0.0974
 1898DPPC   NC344461  17.340  23.690  23.306 -0.1263  0.0270  0.1971
 1898DPPC   PO444462  17.062  23.768  23.039 -0.1845  0.0394 -0.1723
 1898DPPC   GL144463  16.961  23.340  23.241 -0.2174  0.2420 -0.1134
 1898DPPC   GL244464  17.105  23.237  23.484  0.0159  0.0707  0.2461
 1898DPPC   C1A44465  16.784  22.884  23.246  0.0559 -0.0633  0.0108
 1898DPPC   C2A44466  16.478  22.667  23.381 -0.0151 -0.1610  0.2613
 1898DPPC   C3A44467  16.378  22.600  23.789 -0.2141 -0.2397  0.0219
 1898DPPC   C4A44468  16.207  22.330  24.055 -0.1059 -0.1543  0.0411
 1898DPPC   C1B44469  17.271  22.848  23.381  0.2069 -0.2116 -0.2319
 1898DPPC   C2B44470  17.656  22.656  23.680 -0.0202 -0.2548 -0.0175
 1898DPPC   C3B44471  18.033  22.482  23.860 -0.1456  0.0274  0.4207
 1898DPPC   C4B44472  17.934  22.181  24.128  0.1139 -0.0313 -0.1486
 1899DPPC   NC344473  21.391  16.889  31.577 -0.0066  0.1503  0.0613
 1899DPPC   PO444474  21.170  17.242  31.440  0.0080  0.0544 -0.3142
 1899DPPC   GL144475  21.272  17.730  31.530 -0.0620  0.2770 -0.4108
 1899DPPC   GL244476  21.065  17.953  31.605 -0.0345 -0.1552  0.0646
 1899DPPC   C1A44477  21.564  18.034  31.276  0.5043 -0.0599  0.1656
 1899DPPC   C2A44478  21.802  18.381  31.360 -0.2530  0.1568  0.0047
 1899DPPC   C3A44479  22.310  18.298  31.310  0.1732 -0.0898  0.0864
 1899DPPC   C4A44480  22.643  18.335  31.500 -0.0516 -0.2050 -0.0290
 1899DPPC   C1B44481  21.256  18.403  31.409  0.1576 -0.0966 -0.1520
 1899DPPC   C2B44482  21.528  18.772  31.254  0.0538 -0.3422 -0.1960
 1899DPPC   C3B44483  21.390  19.231  31.143  0.0895  0.2620  0.1672
 1899DPPC   C4B44484  21.494  19.617  31.323 -0.3738 -0.1289 -0.1266
 1900DPPC   NC344485  11.216   0.839  31.672  0.1577  0.1698 -0.1358
 1900DPPC   PO444486  10.964   1.015  31.981  0.0345 -0.4162 -0.3536
 1900DPPC   GL144487  11.281   1.445  32.107  0.0883  0.0878  0.0567
 1900DPPC   GL244488  11.246   1.772  32.000  0.2057 -0.2090  0.3035
 1900DPPC   C1A44489  11.125   1.763  32.474  0.0384  0.1558  0.0595
 1900DPPC   C2A44490  10.752   1.990  32.614 -0.1891 -0.2521 -0.2508
 1900DPPC   C3A44491  10.716   2.243  32.960 -0.0683 -0.1290 -0.0203
 1900DPPC   C4A44492  10.855   2.414  33.333 -0.3549 -0.1186 -0.2546
 1900DPPC   C1B44493  11.397   2.040  31.705 -0.2006  0.2289  0.1715
 1900DPPC   C2B44494  11.501   2.245  31.259 -0.1662  0.2574 -0.2656
 1900DPPC   C3B44495  11.750   2.492  31.241 -0.1532  0.1785 -0.0980
 1900DPPC   C4B44496  12.017   2.857  31.381  0.0415 -0.0321 -0.1095
 1901DPPC   NC344497   7.649   3.467  28.350  0.1159  0.0230 -0.2973
 1901DPPC   PO444498   7.729   3.684  28.640 -0.3068  0.2086 -0.1604
 1901DPPC   GL144499   8.050   3.826  28.402 -0.2295  0.1542 -0.0769
 1901DPPC   GL244500   8.289   3.629  28.457 -0.2731 -0.2903  0.1103
 1901DPPC   C1A44501   8.289   4.169  28.132 -0.1074  0.0660  0.3831
 1901DPPC   C2A44502   8.578   4.517  27.935 -0.1875 -0.0803 -0.1950
 1901DPPC   C3A44503   8.922   4.883  27.794 -0.3056 -0.0195 -0.1837
 1901DPPC   C4A44504   9.293   5.220  27.596 -0.2539 -0.0699 -0.1302
 1901DPPC   C1B44505   8.684   3.849  28.326 -0.0417 -0.1111 -0.1169
 1901DPPC   C2B44506   8.822   4.242  28.274 -0.0976  0.0316 -0.0714
 1901DPPC   C3B44507   8.941   4.681  28.356  0.0982 -0.2938 -0.0815
 1901DPPC   C4B44508   9.074   5.126  28.153 -0.0829 -0.0807  0.0157
 1902DPPC   NC344509  15.351  15.012  20.481 -0.0497  0.0648  0.2412
 1902DPPC   PO444510  15.015  15.136  20.222 -0.0209  0.3173  0.1152
 1902DPPC   GL144511  14.856  15.142  19.741  0.0099  0.0917  0.0976
 1902DPPC   GL244512  14.870  15.453  19.593  0.0624  0.0749 -0.1982
 1902DPPC   C1A44513  14.940  14.968  19.269  0.3529 -0.2492 -0.1029
 1902DPPC   C2A44514  15.014  14.901  18.833  0.2601  0.0866  0.1801
 1902DPPC   C3A44515  14.843  14.881  18.400 -0.1589 -0.0299 -0.0899
 1902DPPC   C4A44516  14.580  14.805  18.060  0.1704 -0.0471 -0.0912
 1902DPPC   C1B44517  14.486  15.346  19.386  0.3632  0.0916 -0.4862
 1902DPPC   C2B44518  14.229  15.538  19.126  0.2492 -0.5241  0.0999
 1902DPPC   C3B44519  14.203  16.049  19.014 -0.0872 -0.3557  0.4064
 1902DPPC   C4B44520  14.118  16.298  18.677 -0.0874 -0.1437  0.1601
 1903DPPC   NC344521   9.445  20.235  20.732  0.1640 -0.0993  0.0275
 1903DPPC   PO444522   9.455  19.879  20.421  0.1090 -0.2023 -0.2381
 1903DPPC   GL144523   9.598  19.501  20.528  0.2614 -0.2857 -0.1242
 1903DPPC   GL244524   9.870  19.415  20.321 -0.0094 -0.0039 -0.0842
 1903DPPC   C1A44525   9.610  19.362  20.972  0.0804 -0.1334  0.1517
 1903DPPC   C2A44526   9.767  19.133  21.309  0.1508 -0.2594 -0.5591
 1903DPPC   C3A44527   9.968  19.126  21.592  0.1013 -0.0991 -0.1487
 1903DPPC   C4A44528  10.342  19.055  21.901  0.1338 -0.1963  0.1920
 1903DPPC   C1B44529  10.205  19.197  20.400 -0.0453  0.0376  0.3784
 1903DPPC   C2B44530  10.619  19.177  20.736  0.1949  0.1950 -0.0125
 1903DPPC   C3B44531  10.766  18.988  21.037 -0.0762  0.0087  0.1675
 1903DPPC   C4B44532  10.824  18.763  21.320 -0.1049  0.0076 -0.0039
 1904DPPC   NC344533  23.419  12.414  30.655 -0.0144  0.0455  0.1323
 1904DPPC   PO444534  23.681  12.284  30.879  0.0070 -0.3135 -0.2055
 1904DPPC   GL144535  24.031  12.512  30.905  0.4413  0.0947 -0.0503
 1904DPPC   GL244536  24.241  12.362  30.839  0.0829 -0.6422 -0.1371
 1904DPPC   C1A44537  24.381  12.766  31.021  0.0055  0.2888 -0.0375
 1904DPPC   C2A44538  24.739  12.643  31.154  0.0742  0.0580 -0.0556
 1904DPPC   C3A44539  25.257  12.686  31.014 -0.0864  0.0379 -0.2743
 1904DPPC   C4A44540  25.557  12.898  30.754  0.0451 -0.2170 -0.2447
 1904DPPC   C1B44541  24.548  12.244  31.051  0.0143  0.2463  0.0686
 1904DPPC   C2B44542  24.999  12.232  30.976 -0.0476 -0.3045 -0.1065
 1904DPPC   C3B44543  25.331  12.392  30.654 -0.0672 -0.0040 -0.1324
 1904DPPC   C4B44544  25.513  12.353  30.259 -0.1645 -0.2221  0.1671
 1905DPPC   NC344545   9.599   5.219  20.743 -0.1388 -0.0575 -0.0310
 1905DPPC   PO444546   9.664   5.596  20.813 -0.2474  0.1342 -0.4463
 1905DPPC   GL144547   9.922   5.718  21.073  0.2512 -0.0367 -0.0296
 1905DPPC   GL244548   9.981   6.113  21.154  0.1472  0.2249 -0.1268
 1905DPPC   C1A44549  10.326   5.627  21.297 -0.0331 -0.0481  0.1931
 1905DPPC   C2A44550  10.642   5.900  21.554 -0.0287 -0.0484  0.0805
 1905DPPC   C3A44551  10.952   6.234  21.480 -0.0613  0.2121  0.2558
 1905DPPC   C4A44552  11.357   6.464  21.483 -0.0395  0.0680  0.1491
 1905DPPC   C1B44553  10.043   5.903  21.575  0.2468 -0.2371 -0.3118
 1905DPPC   C2B44554  10.254   6.056  21.880  0.1181 -0.2673 -0.2059
 1905DPPC   C3B44555  10.599   6.420  21.835 -0.0234  0.0855 -0.0272
 1905DPPC   C4B44556  10.995   6.369  21.984 -0.0668  0.0392 -0.3225
 1906DPPC   NC344557   9.049  21.328  37.916  0.4663 -0.1339 -0.2818
 1906DPPC   PO444558   9.015  20.934  37.952  0.0332 -0.1352  0.0031
 1906DPPC   GL144559   9.372  20.618  37.930 -0.3407  0.0055  0.1271
 1906DPPC   GL244560   9.226  20.403  37.670 -0.2656  0.2102  0.0490
 1906DPPC   C1A44561   9.699  20.222  37.920  0.0548  0.1058 -0.0318
 1906DPPC   C2A44562   9.788  19.809  37.797 -0.1825 -0.0291 -0.1387
 1906DPPC   C3A44563   9.961  19.673  37.459  0.1609 -0.1051 -0.0859
 1906DPPC   C4A44564  10.361  19.592  37.199 -0.3822 -0.3929 -0.0024
 1906DPPC   C1B44565   9.630  20.333  37.484  0.0260  0.0717 -0.0311
 1906DPPC   C2B44566   9.957  20.214  37.289 -0.2918  0.2988 -0.0974
 1906DPPC   C3B44567  10.119  19.947  37.007  0.2427 -0.1743 -0.0185
 1906DPPC   C4B44568  10.386  19.701  36.741 -0.1228 -0.0785  0.0395
 1907DPPC   NC344569  25.870  14.537  38.191  0.1359  0.0958  0.2303
 1907DPPC   PO444570  26.011  14.536  37.762 -0.0180  0.0114 -0.1332
 1907DPPC   GL144571  25.635  14.277  37.638 -0.0142 -0.4510 -0.0320
 1907DPPC   GL244572  25.732  13.897  37.769 -0.0827 -0.5187  0.0793
 1907DPPC   C1A44573  25.215  14.161  37.759 -0.2478 -0.0203  0.1023
 1907DPPC   C2A44574  24.873  14.052  38.009 -0.3051 -0.1105  0.5169
 1907DPPC   C3A44575  24.648  14.120  38.321 -0.2197  0.0246  0.2644
 1907DPPC   C4A44576  24.274  14.080  38.364 -0.3039 -0.1041  0.3312
 1907DPPC   C1B44577  25.538  13.584  37.551  0.1865 -0.0502  0.1311
 1907DPPC   C2B44578  25.159  13.434  37.343  0.2487  0.5175  0.1462
 1907DPPC   C3B44579  24.937  13.281  37.021 -0.1019  0.0372 -0.0615
 1907DPPC   C4B44580  25.136  13.149  36.710  0.0740  0.2739  0.0887
 1908DPPC   NC344581  21.598   6.796  28.665 -0.1200  0.1927  0.0644
 1908DPPC   PO444582  21.734   6.315  28.798  0.2752 -0.1492  0.0634
 1908DPPC   GL144583  22.186   6.107  28.900 -0.2741 -0.2273  0.0048
 1908DPPC   GL244584  22.253   5.797  28.761 -0.3547 -0.1582 -0.2598
 1908DPPC   C1A44585  22.391   5.960  29.258  0.1174 -0.0399  0.0097
 1908DPPC   C2A44586  22.579   5.728  29.676 -0.2148  0.3402  0.2127
 1908DPPC   C3A44587  22.698   5.404  29.975 -0.0564  0.1347 -0.2458
 1908DPPC   C4A44588  23.060   5.154  30.222  0.2650 -0.0811 -0.0462
 1908DPPC   C1B44589  22.629   5.583  29.042 -0.1517  0.2117 -0.0263
 1908DPPC   C2B44590  22.883   5.268  29.173  0.2587 -0.1171  0.2085
 1908DPPC   C3B44591  23.346   5.449  29.091  0.4153  0.0088 -0.1870
 1908DPPC   C4B44592  23.524   5.749  29.246 -0.3946  0.2434 -0.0032
 1909DPPC   NC344593   9.625  18.635  40.393 -0.0251  0.1128 -0.0803
 1909DPPC   PO444594   9.324  18.362  40.482  0.1538 -0.3874  0.1013
 1909DPPC   GL144595   9.599  18.147  40.126 -0.0870  0.2790  0.1109
 1909DPPC   GL244596   9.917  18.132  40.106 -0.1148 -0.0786  0.6608
 1909DPPC   C1A44597   9.647  17.662  40.029 -0.0100  0.1976  0.1135
 1909DPPC   C2A44598   9.999  17.374  39.778 -0.0104 -0.0314 -0.0286
 1909DPPC   C3A44599  10.297  17.369  39.381  0.2495  0.1674  0.2194
 1909DPPC   C4A44600  10.731  17.441  39.368 -0.0796  0.1870 -0.0236
 1909DPPC   C1B44601  10.232  18.231  39.893 -0.2155  0.0605  0.0376
 1909DPPC   C2B44602  10.607  18.294  39.556  0.0368 -0.1289 -0.1869
 1909DPPC   C3B44603  10.597  18.502  39.085 -0.2180 -0.0531  0.0167
 1909DPPC   C4B44604  10.605  18.572  38.743 -0.0500 -0.0282  0.0196
 1910DPPC   NC344605  16.667  10.953  39.712  0.0951  0.0563 -0.1000
 1910DPPC   PO444606  16.350  10.648  39.703  0.2823  0.1116 -0.3863
 1910DPPC   GL144607  16.207  10.496  40.176 -0.1151 -0.0989  0.0204
 1910DPPC   GL244608  16.350  10.305  40.385 -0.1031 -0.7265 -0.3401
 1910DPPC   C1A44609  16.057   9.955  40.218 -0.0503 -0.2481 -0.0940
 1910DPPC   C2A44610  15.812   9.602  40.374 -0.1981  0.1586 -0.0432
 1910DPPC   C3A44611  15.358   9.543  40.529  0.2495  0.3049 -0.1952
 1910DPPC   C4A44612  15.164   9.678  40.868  0.3195  0.0836 -0.0934
 1910DPPC   C1B44613  16.208  10.005  40.761 -0.2250  0.3608 -0.1315
 1910DPPC   C2B44614  16.205   9.513  40.759 -0.0455  0.0289  0.1114
 1910DPPC   C3B44615  16.146   9.155  41.095  0.0239  0.0063  0.2826
 1910DPPC   C4B44616  16.304   8.848  41.201  0.0382  0.1624 -0.1851
 1911DPPC   NC344617  14.756   4.968  33.688 -0.1879  0.4799 -0.1680
 1911DPPC   PO444618  14.926   5.037  33.200 -0.3959 -0.1294  0.0378
 1911DPPC   GL144619  14.880   4.633  33.307  0.0930  0.2084 -0.0589
 1911DPPC   GL244620  15.035   4.503  33.555  0.0862 -0.3927  0.1495
 1911DPPC   C1A44621  14.795   4.111  33.453  0.2085 -0.3863 -0.2240
 1911DPPC   C2A44622  14.822   3.771  33.638 -0.3970  0.1532 -0.3163
 1911DPPC   C3A44623  14.597   3.441  33.739 -0.3376  0.1476  0.2352
 1911DPPC   C4A44624  14.585   2.993  33.685 -0.0491  0.0692 -0.0304
 1911DPPC   C1B44625  15.252   3.989  33.537  0.2664 -0.1642  0.1000
 1911DPPC   C2B44626  15.380   3.564  33.524 -0.1140 -0.1165 -0.1009
 1911DPPC   C3B44627  15.636   3.202  33.714 -0.1941  0.1634 -0.2245
 1911DPPC   C4B44628  15.681   2.910  34.056 -0.1073 -0.0198  0.0357
 1912DPPC   NC344629   7.707  23.545  29.836 -0.0765  0.2017 -0.0578
 1912DPPC   PO444630   7.936  23.551  29.433  0.0922  0.3049 -0.0883
 1912DPPC   GL144631   7.952  23.199  29.607  0.0462  0.1198 -0.0806
 1912DPPC   GL244632   8.238  23.098  29.444  0.0184 -0.0696  0.1455
 1912DPPC   C1A44633   8.133  23.061  29.949 -0.0636 -0.1260  0.1750
 1912DPPC   C2A44634   8.160  22.742  30.193 -0.1045  0.0180  0.1457
 1912DPPC   C3A44635   8.328  22.350  30.386 -0.1156  0.0361 -0.3412
 1912DPPC   C4A44636   8.383  21.923  30.476 -0.2364 -0.0044  0.0142
 1912DPPC   C1B44637   8.186  22.695  29.646  0.1558 -0.3950  0.1242
 1912DPPC   C2B44638   8.402  22.468  29.877  0.1782 -0.2153  0.1050
 1912DPPC   C3B44639   8.639  22.168  30.074  0.2938 -0.0552  0.1144
 1912DPPC   C4B44640   8.867  21.774  30.180  0.4486  0.2760 -0.1354
 1913DPPC   NC344641  22.883  20.566  25.486 -0.1570 -0.2415 -0.2237
 1913DPPC   PO444642  22.539  20.501  25.748  0.1938  0.0645  0.1225
 1913DPPC   GL144643  22.112  20.223  25.691  0.1434  0.1531 -0.3091
 1913DPPC   GL244644  22.288  19.966  25.683 -0.0447 -0.0639 -0.4402
 1913DPPC   C1A44645  21.722  19.843  25.680  0.1427 -0.0855  0.1993
 1913DPPC   C2A44646  21.407  19.510  25.653  0.2848 -0.0621  0.0471
 1913DPPC   C3A44647  21.236  19.139  25.837 -0.3294  0.3166 -0.0697
 1913DPPC   C4A44648  20.954  18.879  25.867 -0.1908 -0.1478  0.2300
 1913DPPC   C1B44649  22.112  19.719  26.040 -0.0858  0.2066  0.1252
 1913DPPC   C2B44650  21.819  19.595  26.176  0.1779 -0.3316  0.1121
 1913DPPC   C3B44651  21.591  19.206  26.294 -0.2960 -0.0758  0.0494
 1913DPPC   C4B44652  21.239  18.919  26.276  0.0389  0.0591 -0.0292
 1914DPPC   NC344653  20.490   6.619  41.739 -0.2151  0.0379  0.2000
 1914DPPC   PO444654  20.593   6.384  41.517  0.2426 -0.1335  0.1574
 1914DPPC   GL144655  20.386   6.540  41.222  0.1159 -0.5551  0.1526
 1914DPPC   GL244656  20.224   6.209  41.180  0.0135 -0.0092 -0.1403
 1914DPPC   C1A44657  20.261   6.851  40.920  0.5782 -0.0628 -0.0673
 1914DPPC   C2A44658  20.207   7.119  40.709  0.1031 -0.1525 -0.0663
 1914DPPC   C3A44659  20.342   7.500  40.347 -0.1465 -0.0200 -0.2392
 1914DPPC   C4A44660  20.193   7.961  40.471 -0.1288  0.0579 -0.3581
 1914DPPC   C1B44661  19.910   6.517  40.948  0.0795  0.2082  0.0820
 1914DPPC   C2B44662  20.002   6.657  40.461  0.2239  0.0950 -0.0975
 1914DPPC   C3B44663  19.810   6.724  40.144 -0.2594  0.1302 -0.1055
 1914DPPC   C4B44664  19.713   6.899  39.761  0.1817 -0.2089  0.1967
 1915DPPC   NC344665  21.074  20.655  20.671  0.2084  0.0491 -0.3499
 1915DPPC   PO444666  20.683  20.866  20.657 -0.0220  0.0210  0.4293
 1915DPPC   GL144667  20.632  20.449  20.723 -0.0701 -0.2053 -0.0199
 1915DPPC   GL244668  20.550  20.332  20.409  0.1179  0.2527 -0.3725
 1915DPPC   C1A44669  20.589  20.249  21.027 -0.0746 -0.0149  0.1106
 1915DPPC   C2A44670  20.644  20.061  21.375  0.1014 -0.1575 -0.0694
 1915DPPC   C3A44671  20.454  20.311  21.630 -0.2547  0.3087 -0.0280
 1915DPPC   C4A44672  20.196  20.499  21.545  0.1810 -0.3370  0.1265
 1915DPPC   C1B44673  20.096  20.294  20.572  0.0904 -0.2143  0.1487
 1915DPPC   C2B44674  19.643  20.239  20.869 -0.4850 -0.2199 -0.1849
 1915DPPC   C3B44675  19.323  20.253  21.063 -0.3193 -0.0754 -0.1229
 1915DPPC   C4B44676  19.061  20.252  21.428 -0.1629 -0.0968  0.0535
 1916DPPC   NC344677   4.957  13.999  38.344 -0.1252 -0.1051 -0.0713
 1916DPPC   PO444678   5.197  13.490  38.320  0.2770 -0.1302 -0.1688
 1916DPPC   GL144679   5.628  13.492  38.118  0.0543  0.2175 -0.1620
 1916DPPC   GL244680   5.678  13.615  37.822 -0.1111  0.1759 -0.1921
 1916DPPC   C1A44681   6.118  13.397  38.083  0.2401 -0.4299 -0.1227
 1916DPPC   C2A44682   6.587  13.300  38.121  0.1101  0.0196 -0.3756
 1916DPPC   C3A44683   7.057  13.291  38.164 -0.2491 -0.0882  0.0872
 1916DPPC   C4A44684   7.219  13.604  38.008  0.0443  0.3056 -0.1293
 1916DPPC   C1B44685   6.020  13.676  37.602  0.0328 -0.0060 -0.1932
 1916DPPC   C2B44686   6.436  13.569  37.445 -0.3900  0.1067  0.1232
 1916DPPC   C3B44687   6.843  13.644  37.198 -0.0980 -0.1215  0.0129
 1916DPPC   C4B44688   7.207  13.711  36.829  0.2551  0.0981  0.0976
 1917DPPC   NC344689  24.938  13.689  18.625  0.1976  0.0793 -0.0968
 1917DPPC   PO444690  25.095  13.182  18.553 -0.0636  0.1381  0.0416
 1917DPPC   GL144691  24.611  13.262  18.627 -0.1656 -0.2123  0.0539
 1917DPPC   GL244692  24.529  13.167  18.878 -0.0899  0.1187  0.1546
 1917DPPC   C1A44693  24.189  13.461  18.586  0.2494 -0.0360 -0.0916
 1917DPPC   C2A44694  23.875  13.507  18.859 -0.1230  0.3362  0.0866
 1917DPPC   C3A44695  23.429  13.387  18.990 -0.1391 -0.0273  0.0022
 1917DPPC   C4A44696  23.248  13.290  19.377  0.2162  0.2644  0.1107
 1917DPPC   C1B44697  24.277  13.567  19.119  0.0365 -0.0104 -0.0463
 1917DPPC   C2B44698  23.934  13.446  19.418 -0.4372 -0.0143 -0.2505
 1917DPPC   C3B44699  23.585  13.234  19.706 -0.0018  0.1857 -0.0231
 1917DPPC   C4B44700  23.452  13.108  20.150  0.0309 -0.0714 -0.1738
 1918DPPC   NC344701   5.222  14.518  23.177 -0.4653  0.0630 -0.0624
 1918DPPC   PO444702   5.309  14.995  22.948 -0.0193 -0.0208  0.3190
 1918DPPC   GL144703   5.627  14.999  23.194  0.0595 -0.1610 -0.1175
 1918DPPC   GL244704   5.549  15.118  23.490 -0.0562 -0.2827 -0.0076
 1918DPPC   C1A44705   6.017  14.880  23.417 -0.0059  0.0261 -0.1962
 1918DPPC   C2A44706   6.186  15.070  23.620  0.4415 -0.1848 -0.2516
 1918DPPC   C3A44707   6.462  15.412  23.898  0.0548  0.0643  0.0348
 1918DPPC   C4A44708   6.839  15.580  23.979  0.1471 -0.0335  0.1578
 1918DPPC   C1B44709   5.767  14.994  23.906 -0.2004 -0.0462  0.1546
 1918DPPC   C2B44710   6.028  15.074  24.197  0.0031  0.0831 -0.1294
 1918DPPC   C3B44711   6.418  14.952  24.321  0.1338  0.4776  0.1075
 1918DPPC   C4B44712   6.658  15.150  24.635  0.0341 -0.1027  0.0152
 1919DPPC   NC344713   7.333  15.249  20.181  0.2739 -0.3260 -0.1283
 1919DPPC   PO444714   7.156  15.634  20.501  0.1252 -0.0911 -0.2591
 1919DPPC   GL144715   7.467  15.541  20.830 -0.3310 -0.1830 -0.0266
 1919DPPC   GL244716   7.617  15.886  21.008  0.0912  0.0806 -0.1924
 1919DPPC   C1A44717   7.926  15.496  21.050 -0.0481  0.0974  0.0458
 1919DPPC   C2A44718   8.250  15.249  21.199 -0.1040  0.0947  0.1761
 1919DPPC   C3A44719   8.215  14.881  21.556 -0.1306 -0.2678  0.0617
 1919DPPC   C4A44720   8.436  14.816  21.928  0.3224  0.0837  0.0860
 1919DPPC   C1B44721   7.896  16.028  21.226 -0.2303  0.1781 -0.0190
 1919DPPC   C2B44722   8.287  15.710  21.433  0.0940 -0.1779  0.1931
 1919DPPC   C3B44723   8.605  15.504  21.520 -0.1826 -0.3007 -0.0717
 1919DPPC   C4B44724   8.663  15.132  21.576 -0.0014  0.1051 -0.0080
 1920DPPC   NC344725   9.399  17.759  19.001  0.1115  0.0609 -0.0270
 1920DPPC   PO444726   9.215  17.985  19.280 -0.0629  0.2248  0.1364
 1920DPPC   GL144727   9.645  17.874  19.451  0.1568 -0.2956 -0.3018
 1920DPPC   GL244728   9.975  17.917  19.298 -0.0441 -0.0828  0.0862
 1920DPPC   C1A44729   9.770  17.911  19.963  0.2265 -0.0905  0.2436
 1920DPPC   C2A44730   9.844  17.725  20.423  0.1529 -0.1020  0.1233
 1920DPPC   C3A44731   9.999  17.675  20.796  0.1760  0.1900  0.2374
 1920DPPC   C4A44732  10.094  17.590  21.223  0.0495 -0.3254  0.3018
 1920DPPC   C1B44733  10.362  17.639  19.522 -0.0293  0.3381  0.0928
 1920DPPC   C2B44734  10.632  17.654  19.752 -0.5250  0.2199 -0.3011
 1920DPPC   C3B44735  10.963  17.711  19.781  0.1416  0.1608 -0.1227
 1920DPPC   C4B44736  11.204  17.395  19.619 -0.0267  0.3549  0.2860
 1921DPPC   NC344737  14.043   6.255  42.125  0.1949  0.5000  0.0307
 1921DPPC   PO444738  14.200   6.642  42.433 -0.1623  0.2043  0.0551
 1921DPPC   GL144739  13.899   6.804  42.091  0.0088  0.1031  0.2577
 1921DPPC   GL244740  13.852   7.075  42.324 -0.1698 -0.4735 -0.3366
 1921DPPC   C1A44741  13.966   6.954  41.644  0.0752  0.2783  0.4715
 1921DPPC   C2A44742  14.197   7.042  41.225 -0.0839  0.3113  0.1499
 1921DPPC   C3A44743  14.377   7.283  40.982 -0.1326 -0.0849  0.1030
 1921DPPC   C4A44744  14.555   7.525  40.600 -0.4383  0.0880  0.1929
 1921DPPC   C1B44745  14.096   7.286  42.017  0.1146  0.1177  0.1341
 1921DPPC   C2B44746  14.141   7.457  41.549  0.2361  0.1049 -0.2523
 1921DPPC   C3B44747  14.131   7.794  41.483 -0.0158 -0.1947  0.0443
 1921DPPC   C4B44748  14.394   8.083  41.422 -0.0739  0.2252  0.0059
 1922DPPC   NC344749   6.149  17.560  37.959  0.1389  0.1087 -0.0870
 1922DPPC   PO444750   6.483  17.532  37.677  0.0958  0.2233  0.2221
 1922DPPC   GL144751   6.643  17.184  37.652  0.1333 -0.0453  0.2442
 1922DPPC   GL244752   6.907  17.187  37.470 -0.0298  0.2148  0.0057
 1922DPPC   C1A44753   6.938  16.705  37.632  0.2015 -0.0218 -0.0889
 1922DPPC   C2A44754   7.029  16.355  37.360 -0.1883  0.2168 -0.1034
 1922DPPC   C3A44755   7.454  16.085  37.370 -0.1361  0.2206  0.1820
 1922DPPC   C4A44756   7.518  15.743  37.143  0.1303  0.1597  0.0546
 1922DPPC   C1B44757   7.233  16.977  37.376  0.0404 -0.2233  0.2462
 1922DPPC   C2B44758   7.409  16.611  37.166 -0.1517  0.1281 -0.0554
 1922DPPC   C3B44759   7.263  16.264  36.963 -0.0745  0.0819 -0.1212
 1922DPPC   C4B44760   7.038  15.880  36.935 -0.2015 -0.0249  0.2155
 1923DPPC   NC344761  18.429  16.876  43.090  0.2756 -0.0168  0.0254
 1923DPPC   PO444762  18.899  16.817  43.007 -0.1305 -0.2148  0.2174
 1923DPPC   GL144763  18.670  16.630  42.662 -0.0837  0.3300  0.0293
 1923DPPC   GL244764  18.464  16.867  42.432  0.1152 -0.3421  0.2411
 1923DPPC   C1A44765  18.752  16.245  42.409  0.0196  0.2672  0.1890
 1923DPPC   C2A44766  18.603  15.845  42.323  0.0856  0.1237 -0.2608
 1923DPPC   C3A44767  18.443  15.527  42.037  0.1281  0.1944  0.1039
 1923DPPC   C4A44768  18.408  15.151  41.891  0.1226  0.0963 -0.0658
 1923DPPC   C1B44769  18.597  16.689  42.182 -0.0183  0.1270  0.0821
 1923DPPC   C2B44770  18.565  16.331  41.939 -0.1904 -0.0190  0.0417
 1923DPPC   C3B44771  18.476  15.948  41.743  0.1999  0.2641 -0.0222
 1923DPPC   C4B44772  18.342  15.468  41.522  0.2011 -0.2926 -0.2712
 1924DPPC   NC344773  16.400  25.099  31.312  0.2242  0.3153  0.0498
 1924DPPC   PO444774  16.481  24.874  31.714 -0.1107  0.2026  0.1181
 1924DPPC   GL144775  16.570  24.635  31.305 -0.0811 -0.1290 -0.2464
 1924DPPC   GL244776  16.402  24.485  31.385  0.2841 -0.0658 -0.1634
 1924DPPC   C1A44777  16.728  24.290  31.077  0.0385  0.2271  0.1185
 1924DPPC   C2A44778  16.624  23.921  31.013 -0.2857  0.0230 -0.0493
 1924DPPC   C3A44779  16.479  23.430  31.178  0.2595 -0.3094 -0.0136
 1924DPPC   C4A44780  16.432  23.214  31.500  0.0111  0.1012 -0.0616
 1924DPPC   C1B44781  16.174  24.165  31.607 -0.4134 -0.0306  0.2991
 1924DPPC   C2B44782  15.721  23.988  31.533 -0.0667 -0.2959 -0.0359
 1924DPPC   C3B44783  15.556  23.586  31.407 -0.0672 -0.2278  0.1146
 1924DPPC   C4B44784  15.356  23.398  31.163  0.0115  0.2126 -0.2383
 1925DPPC   NC344785  15.823   9.505  19.982  0.0682  0.1321  0.0716
 1925DPPC   PO444786  16.330   9.650  19.904 -0.0896  0.0957 -0.1279
 1925DPPC   GL144787  16.481   9.592  19.514 -0.0514 -0.0754 -0.4430
 1925DPPC   GL244788  16.566   9.281  19.492 -0.0418 -0.1027 -0.0809
 1925DPPC   C1A44789  16.270   9.626  19.163  0.3853  0.0522  0.0040
 1925DPPC   C2A44790  15.954   9.686  18.825  0.3024 -0.0248 -0.1152
 1925DPPC   C3A44791  15.999   9.358  18.458 -0.0307  0.2135 -0.0526
 1925DPPC   C4A44792  16.055   9.026  18.125 -0.2264 -0.0925 -0.1886
 1925DPPC   C1B44793  16.595   9.299  18.995 -0.0512 -0.1228 -0.0576
 1925DPPC   C2B44794  16.458   9.367  18.553 -0.2475 -0.0552 -0.1359
 1925DPPC   C3B44795  16.409   9.522  18.091  0.0553  0.1912  0.1848
 1925DPPC   C4B44796  16.097   9.411  17.742 -0.3101  0.0809 -0.3747
 1926DPPC   NC344797   9.126  11.048  25.393 -0.0759 -0.0876  0.0042
 1926DPPC   PO444798   9.482  10.754  25.397 -0.4231  0.0349 -0.1589
 1926DPPC   GL144799   9.133  10.642  25.101  0.1365 -0.2903 -0.6727
 1926DPPC   GL244800   8.925  10.332  25.171 -0.1553 -0.2374 -0.1848
 1926DPPC   C1A44801   8.932  10.795  24.865  0.0124  0.1165  0.1819
 1926DPPC   C2A44802   8.666  11.090  24.610 -0.2977 -0.1016 -0.1042
 1926DPPC   C3A44803   8.495  11.310  24.304  0.2641  0.1084  0.0517
 1926DPPC   C4A44804   8.159  11.370  24.028 -0.5194 -0.3506  0.0334
 1926DPPC   C1B44805   8.549  10.328  24.911 -0.0534 -0.1501  0.3052
 1926DPPC   C2B44806   8.397  10.662  24.634 -0.1881 -0.0807 -0.0627
 1926DPPC   C3B44807   8.267  10.843  24.285  0.1696  0.0110 -0.0208
 1926DPPC   C4B44808   8.186  10.698  23.886 -0.0394  0.0768 -0.1551
 1927DPPC   NC344809   6.518   9.280  38.175 -0.0468  0.3506 -0.1277
 1927DPPC   PO444810   6.835   9.012  38.246  0.0184  0.0739 -0.1184
 1927DPPC   GL144811   7.254   8.870  38.091 -0.0642  0.0077 -0.0288
 1927DPPC   GL244812   7.346   8.926  37.809 -0.0425 -0.4347 -0.1285
 1927DPPC   C1A44813   7.704   8.902  38.133 -0.0944 -0.0773  0.1633
 1927DPPC   C2A44814   8.167   8.919  38.106 -0.3362  0.6060 -0.1235
 1927DPPC   C3A44815   8.376   8.532  38.046  0.1928  0.0240 -0.4213
 1927DPPC   C4A44816   8.544   8.107  37.838 -0.1156 -0.5870  0.0625
 1927DPPC   C1B44817   7.402   8.987  37.389 -0.1570  0.0582  0.0298
 1927DPPC   C2B44818   7.434   9.024  36.952  0.0441  0.3013 -0.1456
 1927DPPC   C3B44819   7.537   8.769  36.692  0.0599  0.0457 -0.1884
 1927DPPC   C4B44820   7.911   8.693  36.512 -0.0777 -0.1496 -0.3041
 1928DPPC   NC344821   3.384  13.534  33.275 -0.0487 -0.0007 -0.3270
 1928DPPC   PO444822   3.777  13.690  33.578 -0.3016  0.0250  0.1266
 1928DPPC   GL144823   4.191  13.837  33.628 -0.3042  0.2025 -0.1145
 1928DPPC   GL244824   4.107  14.021  33.353  0.2093 -0.0811 -0.5213
 1928DPPC   C1A44825   4.524  13.942  33.597  0.0688 -0.1509  0.3891
 1928DPPC   C2A44826   4.806  13.948  33.359  0.2517  0.0906 -0.3507
 1928DPPC   C3A44827   4.969  14.241  33.032 -0.2001  0.2622 -0.0980
 1928DPPC   C4A44828   5.397  14.407  32.862  0.2629  0.0236  0.1234
 1928DPPC   C1B44829   4.328  13.711  33.155  0.3145  0.0201  0.0660
 1928DPPC   C2B44830   4.561  13.348  33.151 -0.3637  0.0917 -0.0500
 1928DPPC   C3B44831   4.898  13.155  33.234 -0.1313  0.1390  0.2486
 1928DPPC   C4B44832   5.306  13.131  33.224 -0.0387 -0.1452  0.2366
 1929DPPC   NC344833  13.620  13.102  44.065 -0.0319 -0.0785  0.0641
 1929DPPC   PO444834  13.657  13.551  44.130  0.0686  0.0615 -0.1610
 1929DPPC   GL144835  13.678  13.466  43.672 -0.2255 -0.2532 -0.0276
 1929DPPC   GL244836  13.889  13.124  43.535  0.0503  0.3439  0.0933
 1929DPPC   C1A44837  13.650  13.392  43.175 -0.1119  0.0081 -0.3654
 1929DPPC   C2A44838  13.369  13.531  42.893 -0.0471  0.1862 -0.0721
 1929DPPC   C3A44839  12.897  13.612  42.796 -0.0685  0.3595 -0.0307
 1929DPPC   C4A44840  12.652  13.953  42.401 -0.2388 -0.2820  0.3236
 1929DPPC   C1B44841  13.955  13.012  43.104  0.0695 -0.0853 -0.1874
 1929DPPC   C2B44842  13.982  12.710  42.705  0.1537 -0.0568  0.2341
 1929DPPC   C3B44843  13.886  12.640  42.260 -0.2861  0.0341  0.2995
 1929DPPC   C4B44844  13.852  12.515  41.838  0.2965 -0.2477  0.2061
 1930DPPC   NC344845  21.494   7.296  16.573  0.0621  0.1098 -0.3435
 1930DPPC   PO444846  21.262   7.139  16.906 -0.0231 -0.2280 -0.1857
 1930DPPC   GL144847  21.153   7.167  17.251  0.1222 -0.0070  0.0421
 1930DPPC   GL244848  21.493   7.063  17.419 -0.0501 -0.2344  0.1655
 1930DPPC   C1A44849  21.112   7.343  17.668 -0.0233 -0.1246 -0.1467
 1930DPPC   C2A44850  20.782   7.550  17.926  0.2248  0.0266  0.1279
 1930DPPC   C3A44851  20.408   7.845  17.961 -0.0458 -0.0610 -0.0666
 1930DPPC   C4A44852  20.181   8.179  18.208 -0.1927  0.0417  0.1965
 1930DPPC   C1B44853  21.515   7.605  17.658 -0.1430  0.0441 -0.1377
 1930DPPC   C2B44854  21.231   7.766  17.908 -0.1408  0.1562 -0.0243
 1930DPPC   C3B44855  20.910   7.875  18.260  0.0177 -0.2102  0.0129
 1930DPPC   C4B44856  20.550   7.909  18.441  0.0403 -0.0399 -0.1080
 1931DPPC   NC344857  21.528  20.238  21.714 -0.0737  0.0464  0.0546
 1931DPPC   PO444858  21.288  20.498  21.821 -0.0749  0.2567 -0.0974
 1931DPPC   GL144859  21.002  20.193  21.971 -0.0428 -0.0547  0.1180
 1931DPPC   GL244860  21.268  19.967  22.140  0.0986  0.1985 -0.0639
 1931DPPC   C1A44861  20.557  19.926  21.965 -0.0511 -0.0351  0.1128
 1931DPPC   C2A44862  20.175  19.785  22.135 -0.0774  0.1352  0.5814
 1931DPPC   C3A44863  19.758  19.822  22.197  0.0647  0.1034 -0.0370
 1931DPPC   C4A44864  19.332  19.786  22.344  0.2704  0.0837 -0.0932
 1931DPPC   C1B44865  20.900  19.622  22.157  0.0313 -0.1291 -0.0269
 1931DPPC   C2B44866  20.408  19.344  22.217 -0.0239 -0.2108  0.2444
 1931DPPC   C3B44867  20.024  19.364  22.406 -0.2566  0.3611  0.3671
 1931DPPC   C4B44868  19.670  19.664  22.704 -0.0042 -0.1774  0.0361
 1932DPPC   NC344869   8.819   8.264  28.995 -0.1929 -0.2031 -0.3111
 1932DPPC   PO444870   8.780   8.011  28.662  0.1009 -0.1471 -0.2254
 1932DPPC   GL144871   8.472   7.706  28.598 -0.2731 -0.0664 -0.0102
 1932DPPC   GL244872   8.713   7.472  28.479  0.0576 -0.1973  0.2818
 1932DPPC   C1A44873   8.103   7.480  28.664 -0.0779  0.1995  0.1479
 1932DPPC   C2A44874   7.848   7.178  28.519 -0.1961 -0.0767  0.2031
 1932DPPC   C3A44875   7.447   7.009  28.500  0.2492  0.2138  0.0222
 1932DPPC   C4A44876   7.064   6.864  28.780  0.0767  0.1384  0.0787
 1932DPPC   C1B44877   8.385   7.243  28.309 -0.2713  0.2393  0.0855
 1932DPPC   C2B44878   8.089   7.118  27.954  0.3702 -0.3306 -0.1539
 1932DPPC   C3B44879   7.742   6.985  27.609 -0.1923 -0.1443 -0.3055
 1932DPPC   C4B44880   7.655   7.116  27.262 -0.1921  0.0948 -0.0647
 1933DPPC   NC344881  19.179  23.803  28.330  0.2253 -0.1052  0.0069
 1933DPPC   PO444882  19.634  23.818  28.220  0.0848 -0.1152 -0.2058
 1933DPPC   GL144883  19.696  23.335  28.306  0.3924 -0.1425 -0.0278
 1933DPPC   GL244884  19.613  23.319  28.646 -0.0228  0.0581  0.1125
 1933DPPC   C1A44885  19.539  22.859  28.491 -0.0153 -0.3146  0.1461
 1933DPPC   C2A44886  19.202  22.557  28.251 -0.1116 -0.1517 -0.0030
 1933DPPC   C3A44887  19.025  22.625  27.776  0.1437  0.3128  0.0495
 1933DPPC   C4A44888  19.354  22.541  27.406 -0.0977 -0.2027 -0.1506
 1933DPPC   C1B44889  19.167  23.008  28.844  0.1825  0.2133 -0.0947
 1933DPPC   C2B44890  18.840  22.725  28.703 -0.0228  0.1929  0.1721
 1933DPPC   C3B44891  18.724  22.398  28.495 -0.0197  0.0193 -0.1025
 1933DPPC   C4B44892  18.431  22.181  28.684  0.0744 -0.1089  0.0836
 1934DPPC   NC344893  22.716   9.136  41.054  0.2125 -0.0377 -0.0318
 1934DPPC   PO444894  22.721   8.851  40.682  0.0070 -0.1589  0.1528
 1934DPPC   GL144895  22.443   9.225  40.593 -0.0575  0.2197 -0.0151
 1934DPPC   GL244896  22.447   9.216  40.224  0.4260 -0.3458  0.0472
 1934DPPC   C1A44897  22.019   9.351  40.449 -0.0420 -0.0362  0.0818
 1934DPPC   C2A44898  21.656   9.266  40.214 -0.1862 -0.0509 -0.1229
 1934DPPC   C3A44899  21.395   9.138  39.884 -0.3120 -0.0327 -0.2488
 1934DPPC   C4A44900  21.228   8.873  39.493 -0.0543 -0.0521 -0.0279
 1934DPPC   C1B44901  22.156   9.182  39.914 -0.0013  0.0278  0.1314
 1934DPPC   C2B44902  21.870   9.177  39.644 -0.1196 -0.2408  0.3421
 1934DPPC   C3B44903  21.663   9.161  39.208 -0.0816 -0.1859 -0.1044
 1934DPPC   C4B44904  21.494   9.115  38.826 -0.0802  0.0317 -0.1117
 1935DPPC   NC344905  21.610   8.392  36.122  0.3573  0.0375  0.0909
 1935DPPC   PO444906  21.707   8.056  35.965 -0.3206  0.0043  0.3432
 1935DPPC   GL144907  21.902   7.595  36.029 -0.0120 -0.1256  0.2056
 1935DPPC   GL244908  21.990   7.753  36.384 -0.0601 -0.0690 -0.1467
 1935DPPC   C1A44909  22.034   7.307  36.450 -0.0874 -0.1538  0.1999
 1935DPPC   C2A44910  22.230   6.903  36.497  0.1979  0.2055  0.3013
 1935DPPC   C3A44911  22.268   6.387  36.394 -0.0740 -0.2711  0.0212
 1935DPPC   C4A44912  22.008   6.045  36.384 -0.1870 -0.1437  0.3090
 1935DPPC   C1B44913  22.438   7.640  36.389  0.2097 -0.1718 -0.4772
 1935DPPC   C2B44914  22.855   7.481  36.749  0.1647  0.1124 -0.2213
 1935DPPC   C3B44915  23.153   7.708  37.001  0.1126  0.0755  0.1689
 1935DPPC   C4B44916  23.176   7.836  37.401  0.0194  0.1110 -0.0593
 1936DPPC   NC344917  12.407   1.870  24.645 -0.0297 -0.0922 -0.3057
 1936DPPC   PO444918  12.392   1.630  25.163  0.0357 -0.3018 -0.0604
 1936DPPC   GL144919  12.342   2.066  25.135  0.0384 -0.0937 -0.0657
 1936DPPC   GL244920  12.173   2.064  25.482  0.1111  0.3346  0.4868
 1936DPPC   C1A44921  12.220   2.484  25.209 -0.2608  0.0057  0.0850
 1936DPPC   C2A44922  12.262   3.023  25.188 -0.0364 -0.0502 -0.2918
 1936DPPC   C3A44923  12.167   3.366  25.255 -0.0995 -0.3179  0.2189
 1936DPPC   C4A44924  11.942   3.757  25.545 -0.0756  0.1091 -0.1875
 1936DPPC   C1B44925  12.600   2.185  25.548  0.0220  0.2245  0.1168
 1936DPPC   C2B44926  12.904   2.497  25.641 -0.0987  0.0142  0.1854
 1936DPPC   C3B44927  13.141   2.678  25.980 -0.2957 -0.1834 -0.3864
 1936DPPC   C4B44928  13.333   2.567  26.427 -0.0442  0.1227 -0.1296
 1937DPPC   NC344929  23.938  16.792  23.433  0.3683  0.2582  0.4387
 1937DPPC   PO444930  23.649  17.054  23.498  0.1211  0.1144  0.2446
 1937DPPC   GL144931  23.435  16.692  23.643  0.0490 -0.0779  0.0701
 1937DPPC   GL244932  23.078  16.652  23.687 -0.1819  0.0428  0.1723
 1937DPPC   C1A44933  23.385  16.298  23.841 -0.0778 -0.2997 -0.1169
 1937DPPC   C2A44934  23.467  15.916  23.664 -0.1563  0.1853  0.0990
 1937DPPC   C3A44935  23.457  15.770  23.305  0.3840 -0.2955 -0.0853
 1937DPPC   C4A44936  23.123  15.688  23.036 -0.1486  0.1026 -0.0917
 1937DPPC   C1B44937  22.928  16.328  24.052 -0.0412 -0.3275  0.3308
 1937DPPC   C2B44938  22.625  16.152  24.214  0.2892  0.0388 -0.2360
 1937DPPC   C3B44939  22.525  15.800  24.302  0.0044  0.1867 -0.1716
 1937DPPC   C4B44940  22.341  15.476  24.230 -0.1008  0.0756  0.3384
 1938DPPC   NC344941  10.502  10.122  23.904 -0.2663  0.3066  0.2564
 1938DPPC   PO444942  10.725   9.832  23.733  0.2220 -0.1078  0.1502
 1938DPPC   GL144943  10.333   9.625  23.758 -0.3047  0.3856 -0.0745
 1938DPPC   GL244944  10.062   9.741  23.846  0.3323  0.1299 -0.1832
 1938DPPC   C1A44945  10.259   9.325  23.370 -0.3589 -0.2487  0.0161
 1938DPPC   C2A44946   9.916   9.152  23.234 -0.0777  0.2524 -0.2216
 1938DPPC   C3A44947   9.853   8.836  22.930  0.1041 -0.4786 -0.3003
 1938DPPC   C4A44948   9.639   8.496  22.812 -0.0792 -0.1370  0.0895
 1938DPPC   C1B44949   9.860   9.491  23.576 -0.1090 -0.0824 -0.1499
 1938DPPC   C2B44950   9.660   9.195  23.674  0.0234  0.2054  0.2769
 1938DPPC   C3B44951   9.345   9.355  23.597 -0.1365 -0.1604  0.0880
 1938DPPC   C4B44952   8.986   9.074  23.629  0.1513  0.1505 -0.1583
 1939DPPC   NC344953  23.814  11.465  32.306 -0.3477  0.0210 -0.1564
 1939DPPC   PO444954  23.756  11.897  32.299 -0.0272 -0.1096 -0.0218
 1939DPPC   GL144955  24.081  11.905  32.415  0.0867  0.1024  0.0773
 1939DPPC   GL244956  24.095  12.151  32.613 -0.0855  0.0834 -0.0735
 1939DPPC   C1A44957  24.470  11.637  32.479  0.0647  0.1125 -0.0106
 1939DPPC   C2A44958  24.923  11.547  32.528  0.2755 -0.0132 -0.2843
 1939DPPC   C3A44959  25.321  11.586  32.680  0.0620 -0.2015  0.1351
 1939DPPC   C4A44960  25.535  11.720  32.939  0.0776 -0.0298 -0.1472
 1939DPPC   C1B44961  24.530  12.161  32.569 -0.2010 -0.0680  0.1838
 1939DPPC   C2B44962  24.904  12.002  32.407  0.2632 -0.2711  0.3072
 1939DPPC   C3B44963  25.386  11.985  32.224 -0.1471 -0.2228 -0.4180
 1939DPPC   C4B44964  25.758  11.887  32.448  0.1728 -0.3723 -0.2170
 1940DPPC   NC344965  17.112   8.646  43.345 -0.0419 -0.1464  0.0090
 1940DPPC   PO444966  17.121   8.241  43.115 -0.2981 -0.4043 -0.1290
 1940DPPC   GL144967  17.278   8.522  42.864 -0.0174 -0.0263 -0.2804
 1940DPPC   GL244968  17.112   8.664  42.779  0.0917  0.2018 -0.0835
 1940DPPC   C1A44969  17.272   8.609  42.352  0.0750 -0.0795 -0.1497
 1940DPPC   C2A44970  17.065   8.737  42.013 -0.1217  0.0633 -0.3060
 1940DPPC   C3A44971  16.905   8.661  41.642 -0.0290 -0.0634  0.0639
 1940DPPC   C4A44972  16.551   8.759  41.620 -0.0525  0.3765  0.0307
 1940DPPC   C1B44973  16.799   8.462  42.449  0.2320  0.1299 -0.2036
 1940DPPC   C2B44974  16.668   8.350  41.967 -0.4620 -0.4042  0.0078
 1940DPPC   C3B44975  16.565   8.040  41.695  0.1706 -0.1885  0.0652
 1940DPPC   C4B44976  16.530   7.574  41.555  0.1244  0.0834  0.0739
 1941DPPC   NC344977   9.829  24.583  33.498  0.1156  0.1661 -0.1052
 1941DPPC   PO444978   9.821  24.421  33.971  0.0123 -0.0003 -0.0980
 1941DPPC   GL144979   9.781  24.008  33.817  0.2050  0.1991 -0.1251
 1941DPPC   GL244980   9.505  23.825  33.709  0.2160  0.1705 -0.3480
 1941DPPC   C1A44981   9.997  23.616  33.534  0.0988  0.2506  0.1189
 1941DPPC   C2A44982  10.240  23.719  33.112  0.0847 -0.0886  0.1371
 1941DPPC   C3A44983  10.706  23.712  32.948 -0.0592 -0.3105 -0.0363
 1941DPPC   C4A44984  11.075  23.438  32.712 -0.1232 -0.0695  0.2192
 1941DPPC   C1B44985   9.672  23.418  33.845  0.2435 -0.1845  0.1347
 1941DPPC   C2B44986   9.665  22.995  33.689 -0.1301  0.0062  0.0984
 1941DPPC   C3B44987   9.794  22.656  33.546 -0.2170  0.0776  0.2139
 1941DPPC   C4B44988   9.927  22.234  33.321 -0.3534 -0.1159  0.0731
 1942DPPC   NC344989   4.186  14.472  35.606 -0.3576 -0.1745 -0.0473
 1942DPPC   PO444990   4.201  14.183  35.390  0.1065 -0.2965  0.1715
 1942DPPC   GL144991   4.643  14.066  35.092  0.2901  0.3151  0.0969
 1942DPPC   GL244992   4.736  13.853  35.024  0.3526  0.0992 -0.2120
 1942DPPC   C1A44993   4.883  14.348  35.004  0.3505  0.2017 -0.5408
 1942DPPC   C2A44994   5.271  14.576  34.965  0.0310 -0.3650 -0.1282
 1942DPPC   C3A44995   5.577  14.540  34.882  0.1162 -0.0003 -0.1826
 1942DPPC   C4A44996   5.959  14.458  34.731 -0.1686 -0.0709  0.1416
 1942DPPC   C1B44997   5.150  13.722  34.808  0.2901  0.1002  0.0062
 1942DPPC   C2B44998   5.438  13.541  34.582 -0.0129  0.0132 -0.3010
 1942DPPC   C3B44999   5.708  13.513  34.181  0.3464  0.1123  0.0507
 1942DPPC   C4B45000   6.043  13.293  34.072  0.0708  0.0452 -0.1384
 1943DPPC   NC345001  18.897   6.376  36.270  0.4019  0.0005 -0.0780
 1943DPPC   PO445002  18.573   6.484  36.604  0.4795  0.1688  0.0382
 1943DPPC   GL145003  18.828   6.076  36.617  0.0490 -0.1523  0.2041
 1943DPPC   GL245004  18.812   6.079  36.862  0.2559  0.0186  0.0308
 1943DPPC   C1A45005  19.049   5.696  36.546 -0.1239 -0.1180  0.2065
 1943DPPC   C2A45006  18.868   5.295  36.559  0.1173 -0.0803 -0.2589
 1943DPPC   C3A45007  18.527   5.039  36.685 -0.0040  0.0733  0.1454
 1943DPPC   C4A45008  18.334   4.698  36.699  0.0869 -0.1499 -0.1789
 1943DPPC   C1B45009  18.638   5.903  37.165 -0.0316  0.2707 -0.1380
 1943DPPC   C2B45010  18.440   5.882  37.568  0.2794 -0.2224 -0.3485
 1943DPPC   C3B45011  18.477   5.661  37.949 -0.1753 -0.1341 -0.2754
 1943DPPC   C4B45012  18.596   5.465  38.379 -0.2854 -0.2028  0.0115
 1944DPPC   NC345013  21.829   7.492  26.585  0.2986 -0.0029  0.1080
 1944DPPC   PO445014  22.041   7.070  26.626  0.1291 -0.1631  0.0339
 1944DPPC   GL145015  22.341   6.886  26.411 -0.0923  0.2039 -0.1751
 1944DPPC   GL245016  22.498   6.779  26.687  0.0162  0.0030 -0.3262
 1944DPPC   C1A45017  22.511   6.623  26.004  0.0992 -0.0840  0.2813
 1944DPPC   C2A45018  22.805   6.460  25.693  0.0509 -0.0096  0.0318
 1944DPPC   C3A45019  22.818   6.261  25.383  0.1079 -0.2044 -0.0238
 1944DPPC   C4A45020  23.027   5.929  25.197  0.0029  0.0420  0.0749
 1944DPPC   C1B45021  22.876   6.752  26.529 -0.2957  0.3200 -0.3707
 1944DPPC   C2B45022  23.203   6.525  26.517 -0.0088  0.1885  0.1070
 1944DPPC   C3B45023  23.550   6.600  26.249 -0.1432 -0.1087 -0.1754
 1944DPPC   C4B45024  23.888   6.324  26.137  0.1179 -0.0287  0.1068
 1945DPPC   NC345025  11.768   9.120  37.697  0.0223 -0.1325 -0.0396
 1945DPPC   PO445026  12.140   9.245  37.928 -0.0119  0.1624  0.0689
 1945DPPC   GL145027  11.784   9.004  38.214 -0.0159 -0.0187 -0.1669
 1945DPPC   GL245028  11.573   8.804  38.098  0.0438 -0.1480 -0.0972
 1945DPPC   C1A45029  11.576   8.744  38.593 -0.1084  0.2739  0.0494
 1945DPPC   C2A45030  11.348   8.484  38.839  0.1069 -0.1936  0.1360
 1945DPPC   C3A45031  11.209   8.419  39.215 -0.1199 -0.1480  0.2362
 1945DPPC   C4A45032  10.963   8.171  39.449 -0.0203  0.3281 -0.2899
 1945DPPC   C1B45033  11.075   8.637  38.057  0.0844 -0.2502 -0.0656
 1945DPPC   C2B45034  10.720   8.446  38.063 -0.2799 -0.0985  0.0395
 1945DPPC   C3B45035  10.337   8.160  38.137  0.1744  0.4262 -0.0616
 1945DPPC   C4B45036  10.164   7.809  38.472  0.2440 -0.1949  0.3451
 1946DPPC   NC345037   4.715  19.665  33.707  0.2377 -0.1525  0.0719
 1946DPPC   PO445038   5.057  19.777  34.014  0.0801  0.5895  0.2218
 1946DPPC   GL145039   5.552  19.793  33.868 -0.2156  0.0609  0.2551
 1946DPPC   GL245040   5.662  19.739  34.247 -0.0340  0.0139 -0.1159
 1946DPPC   C1A45041   5.933  19.591  33.783 -0.1733  0.0715 -0.1418
 1946DPPC   C2A45042   6.249  19.521  33.494 -0.2399 -0.1325 -0.2046
 1946DPPC   C3A45043   6.361  19.142  33.254  0.1666  0.3568 -0.3488
 1946DPPC   C4A45044   6.309  18.637  33.048 -0.3164  0.0283  0.0447
 1946DPPC   C1B45045   6.057  19.535  34.287 -0.2761  0.0978  0.1400
 1946DPPC   C2B45046   6.328  19.338  33.949  0.1751  0.0642  0.1945
 1946DPPC   C3B45047   6.208  18.925  33.913  0.1817 -0.2414 -0.1523
 1946DPPC   C4B45048   6.221  18.595  33.537 -0.1826 -0.2359 -0.1193
 1947DPPC   NC345049  12.118  19.349  24.731 -0.1763  0.2351 -0.4327
 1947DPPC   PO445050  11.710  19.171  24.549 -0.0810  0.0305 -0.2678
 1947DPPC   GL145051  11.607  19.207  24.184  0.2339  0.3240 -0.1451
 1947DPPC   GL245052  11.885  19.141  23.965  0.3680  0.0912 -0.2056
 1947DPPC   C1A45053  11.403  19.547  24.045 -0.2679 -0.1966 -0.1694
 1947DPPC   C2A45054  11.337  19.549  23.597 -0.2131 -0.0801  0.2384
 1947DPPC   C3A45055  11.274  19.430  23.120 -0.1542 -0.0046 -0.2052
 1947DPPC   C4A45056  11.034  19.522  22.825  0.2311  0.1963 -0.0684
 1947DPPC   C1B45057  11.807  19.499  23.779 -0.1829 -0.1992  0.0562
 1947DPPC   C2B45058  12.045  19.847  23.722 -0.0804  0.0540  0.0926
 1947DPPC   C3B45059  11.872  20.253  23.676  0.0286  0.0942 -0.0839
 1947DPPC   C4B45060  11.842  20.689  23.596  0.3569 -0.1065  0.4011
 1948DPPC   NC345061  12.513   2.852  22.227 -0.2609  0.2276  0.0043
 1948DPPC   PO445062  12.124   3.185  22.257 -0.0811  0.1376 -0.0806
 1948DPPC   GL145063  12.271   3.420  22.511 -0.1358 -0.1905  0.0168
 1948DPPC   GL245064  12.140   3.684  22.729  0.0481  0.0761 -0.1853
 1948DPPC   C1A45065  12.619   3.425  22.878 -0.2102 -0.3212  0.1478
 1948DPPC   C2A45066  12.799   3.450  23.316  0.0929 -0.0910  0.4322
 1948DPPC   C3A45067  12.989   3.769  23.571  0.1886 -0.0741  0.0940
 1948DPPC   C4A45068  13.193   3.990  23.783  0.4069 -0.2850 -0.0355
 1948DPPC   C1B45069  12.495   3.851  22.659  0.0738 -0.4269  0.1829
 1948DPPC   C2B45070  12.734   4.052  22.865  0.0191  0.0526 -0.0488
 1948DPPC   C3B45071  13.104   4.328  22.862  0.1431  0.3932  0.0525
 1948DPPC   C4B45072  13.559   4.403  22.906  0.0760 -0.1196 -0.2735
 1949DPPC   NC345073  23.811   9.836  28.628 -0.0193  0.1226  0.1491
 1949DPPC   PO445074  23.739  10.044  28.973  0.0421 -0.3218 -0.0807
 1949DPPC   GL145075  24.159  10.063  28.885 -0.1981 -0.2628  0.0980
 1949DPPC   GL245076  24.108  10.425  28.930 -0.0642 -0.1115 -0.1902
 1949DPPC   C1A45077  24.527  10.202  28.778  0.0773  0.2946  0.0070
 1949DPPC   C2A45078  24.792  10.471  28.411  0.0229  0.2091  0.0166
 1949DPPC   C3A45079  25.006  10.421  28.071 -0.3884  0.1150  0.1716
 1949DPPC   C4A45080  25.189  10.349  27.705  0.0143  0.0008 -0.0374
 1949DPPC   C1B45081  24.162  10.531  28.532 -0.0613 -0.0443 -0.2259
 1949DPPC   C2B45082  24.269  10.296  28.355 -0.0442 -0.1678  0.2611
 1949DPPC   C3B45083  24.573   9.999  28.116 -0.3911 -0.3816 -0.1100
 1949DPPC   C4B45084  24.968   9.928  27.939  0.1262  0.0348 -0.2761
 1950DPPC   NC345085  14.242  14.358  43.408  0.1529 -0.1882  0.1249
 1950DPPC   PO445086  13.838  14.271  43.652  0.1122 -0.0929  0.0788
 1950DPPC   GL145087  13.859  13.982  43.434  0.1252 -0.0382 -0.3316
 1950DPPC   GL245088  14.136  13.829  43.417  0.1601  0.1691 -0.1157
 1950DPPC   C1A45089  13.791  13.833  43.015  0.2378  0.0817 -0.0102
 1950DPPC   C2A45090  13.874  13.595  42.709  0.2573  0.0850 -0.0339
 1950DPPC   C3A45091  13.605  13.506  42.383  0.0251 -0.1052 -0.0251
 1950DPPC   C4A45092  13.695  13.324  41.887 -0.0371 -0.2680 -0.2587
 1950DPPC   C1B45093  14.128  13.427  43.276  0.0136 -0.1894  0.0853
 1950DPPC   C2B45094  14.336  13.214  42.790 -0.0287  0.1332  0.1899
 1950DPPC   C3B45095  14.465  13.220  42.361  0.0977 -0.2242  0.3343
 1950DPPC   C4B45096  14.584  13.435  41.950 -0.2545 -0.1284 -0.0284
 1951DPPC   NC345097  25.763  15.693  24.902 -0.2089 -0.0517  0.0121
 1951DPPC   PO445098  25.473  16.140  25.146  0.0490 -0.2130 -0.1813
 1951DPPC   GL145099  25.018  16.009  25.239  0.0790  0.1314 -0.1349
 1951DPPC   GL245100  24.890  16.240  25.476  0.2536  0.0555  0.1265
 1951DPPC   C1A45101  24.485  15.863  25.098  0.0404  0.0433 -0.0513
 1951DPPC   C2A45102  24.063  15.881  25.175 -0.1246  0.1995 -0.5260
 1951DPPC   C3A45103  23.616  15.762  25.318  0.0889  0.0209  0.0771
 1951DPPC   C4A45104  23.219  15.785  25.435  0.2865  0.0097  0.0890
 1951DPPC   C1B45105  24.818  15.817  25.669  0.2508  0.0887  0.0168
 1951DPPC   C2B45106  24.427  15.667  25.645 -0.1354 -0.3037 -0.3157
 1951DPPC   C3B45107  23.934  15.702  25.679  0.2020 -0.2274  0.2446
 1951DPPC   C4B45108  23.515  15.676  25.841 -0.1196 -0.0940  0.0786
 1952DPPC   NC345109  11.296   8.543  35.863 -0.1280  0.1930 -0.1206
 1952DPPC   PO445110  11.052   8.323  35.606 -0.0954 -0.1740 -0.2157
 1952DPPC   GL145111  10.650   8.165  35.985 -0.0466  0.0662 -0.3646
 1952DPPC   GL245112  10.368   8.389  35.877  0.2204 -0.1450  0.0863
 1952DPPC   C1A45113  10.312   7.870  36.069  0.0411 -0.0080  0.0246
 1952DPPC   C2A45114   9.964   7.628  35.997 -0.2775  0.0764  0.0022
 1952DPPC   C3A45115   9.626   7.483  36.223 -0.2378 -0.2961 -0.0284
 1952DPPC   C4A45116   9.273   7.450  36.295 -0.0206 -0.1809  0.0081
 1952DPPC   C1B45117   9.930   8.267  36.017 -0.1611  0.2237 -0.0229
 1952DPPC   C2B45118   9.582   8.101  36.018 -0.1211  0.0646 -0.2736
 1952DPPC   C3B45119   9.327   7.969  36.347 -0.1571 -0.0330 -0.1134
 1952DPPC   C4B45120   9.197   7.919  36.781  0.0352  0.1626  0.0060
 1953DPPC   NC345121  15.869   4.201  41.165  0.2851 -0.0828  0.2063
 1953DPPC   PO445122  15.487   4.511  41.032 -0.1338  0.1056  0.0421
 1953DPPC   GL145123  15.479   4.798  40.787  0.0038 -0.2401  0.2424
 1953DPPC   GL245124  15.496   4.820  40.408 -0.0013  0.0693 -0.0057
 1953DPPC   C1A45125  15.581   5.272  40.837  0.2971  0.1062 -0.1807
 1953DPPC   C2A45126  15.391   5.640  40.604 -0.0460  0.0349  0.2918
 1953DPPC   C3A45127  15.443   5.986  40.366 -0.0055 -0.3000 -0.2268
 1953DPPC   C4A45128  15.579   5.888  39.922 -0.2601 -0.0050  0.3689
 1953DPPC   C1B45129  15.729   5.197  40.374  0.1588 -0.1215  0.3286
 1953DPPC   C2B45130  15.837   5.470  39.952 -0.3506  0.0140  0.3733
 1953DPPC   C3B45131  16.279   5.504  39.696  0.2419  0.1490  0.5002
 1953DPPC   C4B45132  16.637   5.402  39.525 -0.2534 -0.0904  0.2119
 1954DPPC   NC345133  25.906  15.575  26.887  0.2055  0.2704 -0.0458
 1954DPPC   PO445134  25.757  15.900  26.762  0.2579 -0.1192 -0.1401
 1954DPPC   GL145135  25.359  15.680  26.692  0.2071 -0.1716  0.1531
 1954DPPC   GL245136  25.220  15.498  26.410 -0.0369  0.2393  0.1454
 1954DPPC   C1A45137  25.033  15.465  26.924  0.2592 -0.0467 -0.1119
 1954DPPC   C2A45138  24.808  15.328  27.232 -0.1766 -0.0929  0.1153
 1954DPPC   C3A45139  24.535  15.060  27.364 -0.0783  0.0568 -0.2069
 1954DPPC   C4A45140  24.321  14.740  27.657 -0.4885  0.0896  0.1249
 1954DPPC   C1B45141  24.886  15.234  26.483  0.0079 -0.0459 -0.2217
 1954DPPC   C2B45142  24.717  15.024  26.689 -0.1271 -0.1473  0.0528
 1954DPPC   C3B45143  24.374  15.062  26.886  0.0328  0.2690 -0.1132
 1954DPPC   C4B45144  24.020  15.077  27.246 -0.1885 -0.2133  0.3060
 1955DPPC   NC345145  10.869  14.982  23.594  0.1582  0.0822 -0.0033
 1955DPPC   PO445146  10.517  15.346  23.371 -0.2380 -0.2475 -0.0932
 1955DPPC   GL145147  10.188  15.577  23.219  0.1266  0.1585  0.1408
 1955DPPC   GL245148   9.931  15.558  22.876 -0.2291  0.3154 -0.0355
 1955DPPC   C1A45149  10.008  15.943  23.215 -0.0863  0.2438  0.1061
 1955DPPC   C2A45150   9.699  16.392  23.103 -0.0657 -0.0832 -0.2546
 1955DPPC   C3A45151   9.331  16.517  22.912  0.0124 -0.0887  0.3081
 1955DPPC   C4A45152   8.938  16.526  22.782 -0.3642  0.1359 -0.2858
 1955DPPC   C1B45153   9.690  15.876  22.818  0.1980 -0.0170 -0.1582
 1955DPPC   C2B45154   9.428  16.057  22.628  0.2730  0.2032  0.0814
 1955DPPC   C3B45155   9.120  16.213  22.309  0.3562 -0.0272 -0.1424
 1955DPPC   C4B45156   9.397  16.404  22.009  0.1763 -0.2112 -0.0666
 1956DPPC   NC345157  23.459   2.463  34.833 -0.3300  0.3333  0.3137
 1956DPPC   PO445158  22.943   2.467  34.906 -0.0159  0.1988 -0.2612
 1956DPPC   GL145159  22.715   2.868  34.754  0.1472 -0.0404 -0.1752
 1956DPPC   GL245160  22.587   2.941  34.471  0.2840 -0.1833  0.2668
 1956DPPC   C1A45161  22.560   3.317  34.765 -0.1014  0.1104  0.1853
 1956DPPC   C2A45162  22.249   3.542  34.522 -0.2063  0.0553 -0.5161
 1956DPPC   C3A45163  21.982   3.745  34.233 -0.3161 -0.1844 -0.0574
 1956DPPC   C4A45164  21.728   4.123  34.080 -0.3210  0.1861  0.0914
 1956DPPC   C1B45165  22.126   3.107  34.415  0.2015  0.0781  0.0105
 1956DPPC   C2B45166  21.867   3.276  33.970 -0.0972  0.2070 -0.3882
 1956DPPC   C3B45167  22.011   3.205  33.536 -0.1830  0.0801  0.1214
 1956DPPC   C4B45168  21.772   3.259  33.280 -0.1083 -0.2141 -0.2624
 1957DPPC   NC345169  19.376   4.691  27.168  0.1761  0.4423 -0.2745
 1957DPPC   PO445170  18.877   4.606  27.199  0.1108 -0.1194 -0.2426
 1957DPPC   GL145171  19.134   4.196  27.296 -0.3926  0.1444 -0.2681
 1957DPPC   GL245172  19.280   4.237  26.899  0.0883 -0.1835  0.0053
 1957DPPC   C1A45173  19.146   3.759  27.284  0.2185 -0.1239 -0.1154
 1957DPPC   C2A45174  18.980   3.548  27.021 -0.1548  0.0142 -0.1612
 1957DPPC   C3A45175  18.699   3.158  26.847 -0.2078 -0.0699 -0.1761
 1957DPPC   C4A45176  18.283   3.039  26.802  0.0723 -0.0496 -0.0765
 1957DPPC   C1B45177  19.253   3.880  26.648 -0.2994 -0.2240  0.1125
 1957DPPC   C2B45178  19.509   3.601  26.587 -0.0730  0.0916  0.1731
 1957DPPC   C3B45179  19.443   3.200  26.851  0.0769 -0.1890  0.1954
 1957DPPC   C4B45180  19.632   2.846  27.077 -0.0802 -0.0052 -0.0160
 1958DPPC   NC345181   7.653  15.148  32.390  0.1373 -0.1445 -0.0955
 1958DPPC   PO445182   7.667  15.472  32.173  0.4056 -0.2876 -0.2524
 1958DPPC   GL145183   7.311  15.597  32.219  0.0960  0.0064  0.1735
 1958DPPC   GL245184   7.075  15.330  32.204 -0.1977 -0.0364  0.3445
 1958DPPC   C1A45185   6.862  15.732  32.101 -0.2072 -0.0343  0.2378
 1958DPPC   C2A45186   6.496  15.909  32.214 -0.2262  0.2876  0.0068
 1958DPPC   C3A45187   6.171  16.176  32.208 -0.0556  0.2585  0.1481
 1958DPPC   C4A45188   5.868  16.034  32.504 -0.0620 -0.2199 -0.0471
 1958DPPC   C1B45189   6.488  15.334  32.158 -0.1296 -0.1711 -0.1291
 1958DPPC   C2B45190   6.095  15.540  32.082  0.2137 -0.3479 -0.1592
 1958DPPC   C3B45191   5.691  15.696  32.182 -0.0053 -0.1273  0.0465
 1958DPPC   C4B45192   5.342  15.790  32.425  0.0313 -0.0867 -0.0438
 1959DPPC   NC345193  17.646   8.281  38.424 -0.1961  0.3706  0.0239
 1959DPPC   PO445194  18.050   8.469  38.316 -0.2842  0.0446 -0.1289
 1959DPPC   GL145195  18.164   8.410  38.777 -0.1691 -0.2801 -0.1835
 1959DPPC   GL245196  17.980   8.530  39.049  0.0275  0.1602 -0.0155
 1959DPPC   C1A45197  18.242   8.061  38.942  0.1277 -0.2845 -0.0782
 1959DPPC   C2A45198  18.325   7.870  39.344  0.0778  0.2515 -0.1408
 1959DPPC   C3A45199  18.496   7.791  39.824 -0.2555 -0.2436 -0.0698
 1959DPPC   C4A45200  18.649   7.563  40.048  0.0393 -0.2353  0.1680
 1959DPPC   C1B45201  18.295   8.426  39.297 -0.1907 -0.1922  0.2571
 1959DPPC   C2B45202  18.382   8.303  39.674  0.0168  0.0299 -0.0386
 1959DPPC   C3B45203  18.370   8.275  40.112 -0.1475 -0.0618  0.2173
 1959DPPC   C4B45204  18.396   7.928  40.386 -0.1168 -0.1572  0.0054
 1960DPPC   NC345205  18.659  18.016  25.002  0.0716 -0.0182 -0.1870
 1960DPPC   PO445206  18.621  17.639  25.139 -0.0452  0.3177 -0.0888
 1960DPPC   GL145207  18.952  17.470  25.212 -0.1989  0.1314 -0.1281
 1960DPPC   GL245208  18.962  17.192  25.466  0.2120  0.2014 -0.1015
 1960DPPC   C1A45209  19.302  17.689  25.094  0.0147 -0.0276 -0.0783
 1960DPPC   C2A45210  19.356  18.079  24.927  0.2437  0.0833 -0.1203
 1960DPPC   C3A45211  19.304  18.486  24.875 -0.1675  0.1258  0.1797
 1960DPPC   C4A45212  19.587  18.788  24.554 -0.0523 -0.2256 -0.4187
 1960DPPC   C1B45213  19.210  16.862  25.246  0.1850 -0.1821  0.2529
 1960DPPC   C2B45214  19.537  16.807  25.043  0.0049 -0.2143 -0.2027
 1960DPPC   C3B45215  19.746  16.661  24.745  0.1994  0.0925 -0.1430
 1960DPPC   C4B45216  20.002  16.777  24.364  0.1241  0.1579 -0.1899
 1961DPPC   NC345217  22.640  18.520  24.793 -0.0109 -0.0527  0.0829
 1961DPPC   PO445218  22.534  18.791  24.443 -0.1005 -0.2874 -0.0107
 1961DPPC   GL145219  22.233  18.493  24.474 -0.1638 -0.0338  0.0437
 1961DPPC   GL245220  22.126  18.282  24.747  0.1513 -0.2917  0.5505
 1961DPPC   C1A45221  21.918  18.369  24.288 -0.1313  0.1517 -0.0777
 1961DPPC   C2A45222  21.775  18.043  24.128 -0.0433  0.4331 -0.1470
 1961DPPC   C3A45223  21.855  17.776  23.793  0.0130  0.0622 -0.2258
 1961DPPC   C4A45224  21.656  17.509  23.427  0.0646 -0.0037  0.0995
 1961DPPC   C1B45225  21.679  18.051  24.817 -0.3320 -0.2656  0.1801
 1961DPPC   C2B45226  21.371  18.014  24.540 -0.0769  0.1268 -0.2423
 1961DPPC   C3B45227  21.126  18.156  24.241 -0.1725 -0.0615  0.0265
 1961DPPC   C4B45228  20.884  18.389  23.968 -0.0399 -0.0810 -0.2687
 1962DPPC   NC345229  18.562  18.989  41.594  0.0609  0.1840 -0.0938
 1962DPPC   PO445230  18.742  19.374  41.544  0.2184  0.1510  0.2595
 1962DPPC   GL145231  18.722  19.414  41.114 -0.3329 -0.3164 -0.1408
 1962DPPC   GL245232  18.944  19.399  40.840 -0.0242  0.1964  0.1146
 1962DPPC   C1A45233  18.446  19.409  40.715  0.1791  0.0176 -0.0814
 1962DPPC   C2A45234  18.259  19.100  40.467 -0.3687 -0.1214  0.2796
 1962DPPC   C3A45235  18.325  18.860  40.130 -0.1616 -0.1916  0.0695
 1962DPPC   C4A45236  18.409  18.818  39.676  0.2520  0.0296  0.0502
 1962DPPC   C1B45237  19.043  19.388  40.392 -0.2316  0.0393  0.6140
 1962DPPC   C2B45238  19.340  19.178  40.107  0.1671  0.0165 -0.0847
 1962DPPC   C3B45239  19.257  19.005  39.685  0.4571  0.1312  0.3706
 1962DPPC   C4B45240  19.317  18.749  39.348  0.2597  0.1824  0.0187
 1963DPPC   NC345241   8.231   8.235  20.305  0.0323  0.0511  0.0199
 1963DPPC   PO445242   8.687   8.186  20.548  0.2866  0.2464  0.2701
 1963DPPC   GL145243   8.723   8.179  21.023  0.1108 -0.0258  0.0182
 1963DPPC   GL245244   8.706   7.817  21.130  0.0567 -0.0797  0.0155
 1963DPPC   C1A45245   9.080   8.115  21.262 -0.0793 -0.0883 -0.1267
 1963DPPC   C2A45246   9.480   8.359  21.334 -0.0656  0.0760 -0.0999
 1963DPPC   C3A45247   9.839   8.539  21.336 -0.1830 -0.0642  0.1267
 1963DPPC   C4A45248  10.250   8.561  21.368 -0.1534 -0.2423  0.2213
 1963DPPC   C1B45249   8.721   7.961  21.527  0.0747 -0.3052  0.4574
 1963DPPC   C2B45250   8.847   8.276  21.786 -0.1715 -0.2134  0.1241
 1963DPPC   C3B45251   9.091   8.561  21.950 -0.0062  0.3849  0.1288
 1963DPPC   C4B45252   9.352   8.527  22.358 -0.2496  0.3872  0.0080
 1964DPPC   NC345253  17.592  22.304  39.123 -0.0711  0.1525 -0.3327
 1964DPPC   PO445254  17.967  22.112  39.117 -0.0500  0.3892 -0.1689
 1964DPPC   GL145255  17.677  21.870  38.802 -0.0187  0.3869 -0.2119
 1964DPPC   GL245256  17.428  22.006  38.683 -0.1498  0.1358  0.1166
 1964DPPC   C1A45257  17.815  21.869  38.350 -0.1678 -0.1392  0.0910
 1964DPPC   C2A45258  17.591  21.695  37.868 -0.0899 -0.0387 -0.0364
 1964DPPC   C3A45259  17.671  21.297  37.651  0.0922  0.2118 -0.2248
 1964DPPC   C4A45260  17.523  20.807  37.477 -0.0586 -0.1559  0.0534
 1964DPPC   C1B45261  17.271  21.753  38.356 -0.0808 -0.0606  0.3774
 1964DPPC   C2B45262  16.984  21.417  38.325  0.1018 -0.0234  0.1010
 1964DPPC   C3B45263  16.735  21.136  38.194 -0.0472  0.0227 -0.2553
 1964DPPC   C4B45264  16.680  20.759  37.958 -0.3584  0.1675 -0.0498
 1965DPPC   NC345265  21.722  21.954  28.924  0.0854  0.0738  0.2318
 1965DPPC   PO445266  21.527  22.288  28.634 -0.0341  0.3252  0.1912
 1965DPPC   GL145267  21.183  22.056  28.538 -0.2843  0.1016  0.3320
 1965DPPC   GL245268  20.854  22.079  28.436 -0.2938 -0.1265 -0.1510
 1965DPPC   C1A45269  20.906  21.651  28.615 -0.0100  0.3385 -0.0467
 1965DPPC   C2A45270  20.553  21.664  28.700 -0.1295 -0.1167  0.2002
 1965DPPC   C3A45271  20.132  21.558  28.850  0.0646 -0.0479 -0.1994
 1965DPPC   C4A45272  19.787  21.288  28.946  0.4245  0.0862  0.2228
 1965DPPC   C1B45273  20.872  21.783  28.120 -0.2317  0.0003  0.2902
 1965DPPC   C2B45274  20.761  21.342  28.093  0.6230 -0.2072  0.1448
 1965DPPC   C3B45275  20.494  21.046  28.097  0.0536  0.1356  0.2397
 1965DPPC   C4B45276  20.495  20.617  27.764  0.3187  0.4209  0.0585
 1966DPPC   NC345277  18.722   9.491  39.064  0.1819  0.0424  0.0406
 1966DPPC   PO445278  18.645   9.874  39.153  0.0818 -0.3408 -0.0982
 1966DPPC   GL145279  18.652   9.707  39.560 -0.0023 -0.2733 -0.2451
 1966DPPC   GL245280  18.845   9.463  39.524  0.0767  0.0758 -0.1398
 1966DPPC   C1A45281  18.845   9.675  39.971 -0.2939  0.0918 -0.0512
 1966DPPC   C2A45282  18.749   9.558  40.456 -0.2473 -0.0712  0.5718
 1966DPPC   C3A45283  18.819   9.682  40.728 -0.3130  0.0374  0.2406
 1966DPPC   C4A45284  19.070   9.760  41.188  0.1367 -0.0030 -0.0674
 1966DPPC   C1B45285  18.580   9.254  39.889  0.4174  0.0850  0.2105
 1966DPPC   C2B45286  18.668   9.111  40.359 -0.2102  0.2293 -0.2213
 1966DPPC   C3B45287  18.685   9.108  40.840 -0.1704 -0.1461  0.0258
 1966DPPC   C4B45288  18.813   9.322  41.171 -0.1432 -0.3771 -0.0332
 1967DPPC   NC345289   9.257   5.959  39.227  0.0909  0.1503 -0.1932
 1967DPPC   PO445290   9.506   5.716  38.985  0.0092 -0.1661  0.0896
 1967DPPC   GL145291   9.752   5.803  38.621  0.1907  0.0921  0.1696
 1967DPPC   GL245292   9.566   6.039  38.405 -0.2828 -0.1471 -0.1916
 1967DPPC   C1A45293  10.145   5.666  38.490 -0.1275 -0.2024  0.0635
 1967DPPC   C2A45294  10.290   5.806  38.073 -0.1220 -0.2920 -0.1375
 1967DPPC   C3A45295  10.539   5.870  37.852 -0.0653 -0.0407  0.1868
 1967DPPC   C4A45296  10.748   6.092  37.580  0.2083 -0.2518 -0.0295
 1967DPPC   C1B45297   9.433   6.525  38.512  0.2510  0.0808 -0.4618
 1967DPPC   C2B45298   9.586   6.976  38.637 -0.1052  0.0079  0.1193
 1967DPPC   C3B45299   9.466   7.390  38.817  0.0299 -0.0044 -0.0900
 1967DPPC   C4B45300   9.636   7.778  38.516 -0.0673  0.2142 -0.0407
 1968DPPC   NC345301   3.219  11.723  30.793  0.0794  0.1772 -0.0045
 1968DPPC   PO445302   3.580  11.574  30.521  0.1212 -0.1637  0.1345
 1968DPPC   GL145303   3.905  11.530  30.778 -0.3074 -0.0486  0.1035
 1968DPPC   GL245304   3.825  11.798  30.920  0.1580 -0.0017  0.0903
 1968DPPC   C1A45305   4.335  11.510  31.049 -0.1112  0.1991 -0.1216
 1968DPPC   C2A45306   4.613  11.517  31.196  0.1257 -0.1316 -0.1727
 1968DPPC   C3A45307   5.080  11.472  31.142 -0.2183  0.1660 -0.1338
 1968DPPC   C4A45308   5.352  11.209  31.370 -0.0801 -0.0785  0.2396
 1968DPPC   C1B45309   4.220  11.957  30.976 -0.0875 -0.0919  0.3304
 1968DPPC   C2B45310   4.633  12.117  30.893 -0.2387 -0.0546  0.4325
 1968DPPC   C3B45311   5.047  12.222  30.877 -0.4585 -0.1984  0.2529
 1968DPPC   C4B45312   5.272  12.171  30.548 -0.0503  0.1514  0.2947
 1969DPPC   NC345313  18.237   7.367  21.290 -0.5429 -0.1719  0.1991
 1969DPPC   PO445314  18.620   7.213  21.324 -0.0057  0.0095 -0.2724
 1969DPPC   GL145315  18.762   6.948  21.147  0.1321 -0.0648  0.0521
 1969DPPC   GL245316  18.793   6.650  21.255  0.1719  0.0602  0.1019
 1969DPPC   C1A45317  18.830   6.761  20.705 -0.3212 -0.0893  0.2410
 1969DPPC   C2A45318  19.072   6.419  20.431 -0.0471 -0.2314  0.1902
 1969DPPC   C3A45319  19.075   6.100  20.082 -0.1323 -0.3292 -0.1660
 1969DPPC   C4A45320  19.270   5.885  19.812 -0.0355  0.1560  0.3106
 1969DPPC   C1B45321  18.754   6.305  20.930  0.1721  0.0153 -0.3531
 1969DPPC   C2B45322  18.797   5.873  21.091  0.3113  0.0504  0.0904
 1969DPPC   C3B45323  18.659   5.396  20.967 -0.0311  0.1342 -0.2143
 1969DPPC   C4B45324  18.690   5.165  20.593 -0.0350  0.1293 -0.1830
 1970DPPC   NC345325   0.630   9.430  28.514  0.0840 -0.0089  0.2424
 1970DPPC   PO445326   0.298   9.630  28.811  0.0076  0.0195 -0.1066
 1970DPPC   GL145327   0.098   9.366  29.184  0.1829 -0.1125  0.6350
 1970DPPC   GL245328   0.045   9.102  29.047 -0.1370 -0.0924  0.1829
 1970DPPC   C1A45329  26.754   9.310  29.363 -0.1963 -0.1036 -0.0620
 1970DPPC   C2A45330  26.391   9.338  29.424  0.0612 -0.2424 -0.3014
 1970DPPC   C3A45331  26.157   9.516  29.729  0.1401 -0.1965  0.0682
 1970DPPC   C4A45332  25.841   9.823  29.648  0.0223 -0.5765  0.1681
 1970DPPC   C1B45333  26.694   9.083  28.917  0.1650 -0.1172  0.1237
 1970DPPC   C2B45334  26.375   9.121  28.694  0.3258 -0.0452  0.1135
 1970DPPC   C3B45335  25.860   8.896  28.581 -0.1972  0.1185  0.2201
 1970DPPC   C4B45336  25.380   8.822  28.662  0.1688  0.1326 -0.2000
 1971DPPC   NC345337  10.703   4.143  39.553 -0.0173  0.0563  0.0696
 1971DPPC   PO445338  11.109   4.253  39.776  0.0858  0.2451 -0.0009
 1971DPPC   GL145339  11.258   4.552  39.428 -0.3443 -0.3156  0.0894
 1971DPPC   GL245340  11.343   4.809  39.455  0.3041 -0.3690 -0.0929
 1971DPPC   C1A45341  11.117   4.533  39.004 -0.2150 -0.0521 -0.2848
 1971DPPC   C2A45342  10.921   4.485  38.544 -0.1909 -0.0991 -0.0474
 1971DPPC   C3A45343  11.144   4.656  38.222 -0.1238 -0.0602 -0.0449
 1971DPPC   C4A45344  11.410   4.862  38.304  0.0412 -0.2383  0.3826
 1971DPPC   C1B45345  11.571   4.953  39.038 -0.1330 -0.3256 -0.0044
 1971DPPC   C2B45346  11.864   5.220  38.682  0.0874  0.1367  0.3043
 1971DPPC   C3B45347  11.975   4.996  38.333  0.0983  0.0315  0.5046
 1971DPPC   C4B45348  11.824   4.775  37.996 -0.3630 -0.0772  0.2189
 1972DPPC   NC345349   7.187  23.514  31.446  0.2185  0.1363  0.1131
 1972DPPC   PO445350   7.627  23.219  31.275  0.0438  0.3195  0.0186
 1972DPPC   GL145351   8.000  23.121  31.453 -0.2250 -0.0219  0.3626
 1972DPPC   GL245352   8.157  22.884  31.672 -0.0867  0.3043  0.0060
 1972DPPC   C1A45353   8.311  23.043  31.212 -0.1063 -0.0548  0.1596
 1972DPPC   C2A45354   8.703  22.912  31.171 -0.2333 -0.1578 -0.1394
 1972DPPC   C3A45355   9.010  22.588  31.238 -0.3201  0.2070  0.0516
 1972DPPC   C4A45356   9.353  22.287  31.452 -0.1126  0.0373  0.0230
 1972DPPC   C1B45357   8.451  22.648  31.527  0.3440  0.1629 -0.1859
 1972DPPC   C2B45358   8.594  22.231  31.489 -0.1882  0.0925 -0.1810
 1972DPPC   C3B45359   8.576  21.842  31.689 -0.0316 -0.1940 -0.1318
 1972DPPC   C4B45360   8.924  21.609  31.970  0.5448 -0.1049 -0.1372
 1973DPPC   NC345361  21.132   2.538  35.891  0.2607  0.0001  0.2828
 1973DPPC   PO445362  21.167   2.723  36.316  0.1096  0.0506 -0.3002
 1973DPPC   GL145363  21.189   3.066  36.082  0.0595  0.1573 -0.0680
 1973DPPC   GL245364  21.149   3.035  35.840 -0.1459  0.2437 -0.0075
 1973DPPC   C1A45365  21.031   3.502  36.221  0.2153 -0.0815 -0.1990
 1973DPPC   C2A45366  20.695   3.834  36.279  0.2301  0.1258 -0.1324
 1973DPPC   C3A45367  20.795   4.296  36.374  0.2620 -0.1667 -0.1750
 1973DPPC   C4A45368  21.075   4.316  36.697 -0.1052 -0.1177 -0.1515
 1973DPPC   C1B45369  20.871   3.271  35.776 -0.0194  0.3681 -0.2227
 1973DPPC   C2B45370  20.690   3.740  35.716  0.1032  0.0506 -0.1112
 1973DPPC   C3B45371  20.644   4.169  35.898 -0.0564 -0.1266  0.1976
 1973DPPC   C4B45372  20.714   4.578  35.906 -0.1255 -0.0812 -0.1182
 1974DPPC   NC345373  25.673   8.894  19.691  0.0141  0.2859  0.2757
 1974DPPC   PO445374  25.235   8.857  19.773  0.0739  0.1267 -0.2914
 1974DPPC   GL145375  24.830   8.698  19.714  0.0987  0.3234 -0.0898
 1974DPPC   GL245376  24.717   8.964  19.569 -0.1459 -0.0250 -0.1986
 1974DPPC   C1A45377  24.534   8.391  19.897 -0.0225  0.3301  0.3057
 1974DPPC   C2A45378  24.096   8.561  19.829  0.1274 -0.0638 -0.1003
 1974DPPC   C3A45379  23.728   8.615  20.116  0.1683 -0.1178 -0.2660
 1974DPPC   C4A45380  23.369   8.752  20.156  0.0951 -0.0359 -0.0832
 1974DPPC   C1B45381  24.498   9.059  19.980 -0.0808  0.0102 -0.0163
 1974DPPC   C2B45382  24.093   9.005  20.245 -0.0215 -0.3317 -0.0861
 1974DPPC   C3B45383  23.677   9.157  20.377  0.0589 -0.3808 -0.3016
 1974DPPC   C4B45384  23.260   9.214  20.296 -0.1399 -0.1053  0.3365
 1975DPPC   NC345385  19.046   9.250  19.716  0.0251  0.1356 -0.0041
 1975DPPC   PO445386  19.299   9.402  19.424 -0.0384 -0.1089  0.0369
 1975DPPC   GL145387  19.579   9.363  19.039  0.1333  0.2155 -0.1271
 1975DPPC   GL245388  19.652   8.997  18.978  0.1224 -0.1331 -0.0760
 1975DPPC   C1A45389  19.644   9.515  18.758 -0.0996  0.0445 -0.0198
 1975DPPC   C2A45390  19.565   9.522  18.352  0.1333 -0.2107 -0.3105
 1975DPPC   C3A45391  19.193   9.412  18.106 -0.2633  0.2758  0.0941
 1975DPPC   C4A45392  19.184   9.124  17.824 -0.0839  0.2374  0.1515
 1975DPPC   C1B45393  19.764   9.060  18.629  0.1115 -0.2646 -0.0377
 1975DPPC   C2B45394  19.675   9.031  18.158  0.0492  0.5021  0.0014
 1975DPPC   C3B45395  19.753   9.428  17.825  0.0487  0.2037 -0.2893
 1975DPPC   C4B45396  19.820   9.732  17.428 -0.4146  0.2899  0.0360
 1976DPPC   NC345397   5.806   7.218  26.111  0.1348 -0.0523 -0.1697
 1976DPPC   PO445398   6.126   6.977  25.910  0.0513  0.3349 -0.0350
 1976DPPC   GL145399   6.471   7.071  25.739  0.1901 -0.0856  0.0001
 1976DPPC   GL245400   6.726   6.950  25.810  0.0314 -0.0668  0.0093
 1976DPPC   C1A45401   6.757   7.426  25.765  0.0275  0.1135 -0.1195
 1976DPPC   C2A45402   6.918   7.797  25.891  0.2383 -0.1654  0.0334
 1976DPPC   C3A45403   7.371   7.845  25.773 -0.3447 -0.0042 -0.0951
 1976DPPC   C4A45404   7.851   7.822  25.768 -0.0363  0.1015 -0.1160
 1976DPPC   C1B45405   6.862   7.159  26.180 -0.3071 -0.0423 -0.1006
 1976DPPC   C2B45406   7.249   7.224  26.463  0.3753  0.0599  0.2919
 1976DPPC   C3B45407   7.460   7.586  26.691  0.1596  0.1745 -0.0627
 1976DPPC   C4B45408   7.793   7.637  26.954  0.0120 -0.0039 -0.2762
 1977DPPC   NC345409  20.815   2.648  21.388  0.3088 -0.0446  0.0144
 1977DPPC   PO445410  21.068   2.767  21.697  0.0886 -0.2498 -0.1584
 1977DPPC   GL145411  21.177   3.079  21.971 -0.1737  0.1761  0.3135
 1977DPPC   GL245412  21.510   3.269  21.967  0.0545  0.0151 -0.0007
 1977DPPC   C1A45413  21.050   3.258  22.392 -0.3398 -0.1415  0.2527
 1977DPPC   C2A45414  20.910   3.503  22.746  0.0028  0.2525  0.2693
 1977DPPC   C3A45415  21.055   3.491  23.133  0.0873 -0.1260  0.1277
 1977DPPC   C4A45416  20.977   3.723  23.446  0.1592  0.2552  0.0237
 1977DPPC   C1B45417  21.537   3.575  22.270 -0.2409  0.1305  0.5453
 1977DPPC   C2B45418  21.244   3.906  22.311  0.3475 -0.1560 -0.0847
 1977DPPC   C3B45419  20.979   4.019  22.644 -0.1416  0.1399 -0.0283
 1977DPPC   C4B45420  20.794   4.233  23.029  0.0523 -0.1369 -0.5391
 1978DPPC   NC345421  23.535  10.342  16.377  0.0903 -0.0089 -0.0526
 1978DPPC   PO445422  23.533  10.738  16.695 -0.0770 -0.1238 -0.1616
 1978DPPC   GL145423  23.361  10.525  17.148 -0.2395 -0.2136  0.0045
 1978DPPC   GL245424  23.128  10.670  17.352 -0.0886  0.1814 -0.0748
 1978DPPC   C1A45425  23.442  10.562  17.704 -0.1312 -0.0189  0.0447
 1978DPPC   C2A45426  23.253  10.399  18.083 -0.0575 -0.0490 -0.2146
 1978DPPC   C3A45427  23.369  10.741  18.408 -0.1035 -0.1503  0.0370
 1978DPPC   C4A45428  23.351  10.856  18.876 -0.3898 -0.0579 -0.0371
 1978DPPC   C1B45429  22.921  10.685  17.691 -0.0504 -0.0789  0.0049
 1978DPPC   C2B45430  22.959  10.771  18.141 -0.1162 -0.1730  0.2955
 1978DPPC   C3B45431  22.843  10.968  18.633 -0.3063  0.4394  0.0573
 1978DPPC   C4B45432  22.981  11.087  19.067  0.0489  0.1159  0.1274
 1979DPPC   NC345433  22.534  11.462  35.588  0.0872  0.3219 -0.0799
 1979DPPC   PO445434  22.789  11.907  35.552  0.1539  0.0750 -0.0994
 1979DPPC   GL145435  23.250  11.834  35.658 -0.0522 -0.0411 -0.0229
 1979DPPC   GL245436  23.354  11.463  35.700 -0.1121  0.1990 -0.1048
 1979DPPC   C1A45437  23.718  11.866  35.700  0.1067 -0.0035 -0.3118
 1979DPPC   C2A45438  24.177  11.652  35.750  0.0400  0.2300 -0.0285
 1979DPPC   C3A45439  24.526  11.462  35.779 -0.1128  0.0088 -0.0769
 1979DPPC   C4A45440  25.045  11.530  35.866 -0.0051  0.2880 -0.3593
 1979DPPC   C1B45441  23.763  11.379  35.939 -0.1320  0.1755  0.2384
 1979DPPC   C2B45442  24.161  11.143  36.039  0.3539  0.2060 -0.3493
 1979DPPC   C3B45443  24.538  11.228  36.313  0.0726  0.0296  0.0042
 1979DPPC   C4B45444  24.517  11.516  36.657 -0.0986 -0.0750  0.1946
 1980DPPC   NC345445   8.194  13.569  33.947  0.0086  0.1501 -0.3149
 1980DPPC   PO445446   8.175  13.785  34.282  0.1795  0.1008  0.2718
 1980DPPC   GL145447   7.917  13.693  34.647  0.1113  0.1335 -0.0419
 1980DPPC   GL245448   7.736  13.463  34.640 -0.0643 -0.1225 -0.1253
 1980DPPC   C1A45449   7.514  13.885  34.815 -0.1400  0.4118 -0.1210
 1980DPPC   C2A45450   7.177  13.863  34.718  0.1620 -0.1857  0.4230
 1980DPPC   C3A45451   6.867  14.078  34.608  0.3426  0.0442  0.2750
 1980DPPC   C4A45452   6.398  14.140  34.527 -0.0805 -0.4914 -0.2906
 1980DPPC   C1B45453   7.372  13.479  34.450 -0.2057  0.1187  0.0670
 1980DPPC   C2B45454   6.971  13.462  34.555  0.4748 -0.1511  0.3132
 1980DPPC   C3B45455   6.602  13.483  34.747  0.1960 -0.2480  0.0846
 1980DPPC   C4B45456   6.124  13.393  34.545  0.2642 -0.1678 -0.0443
 1981DPPC   NC345457   4.554  18.174  35.237  0.2546  0.2377 -0.0730
 1981DPPC   PO445458   4.809  17.900  35.016 -0.0926  0.1312 -0.0034
 1981DPPC   GL145459   5.203  17.801  34.868 -0.0714 -0.3196  0.3928
 1981DPPC   GL245460   5.400  17.710  34.586 -0.0795 -0.0052 -0.0934
 1981DPPC   C1A45461   5.574  17.847  35.032  0.1307  0.2008 -0.2047
 1981DPPC   C2A45462   5.928  17.490  34.921  0.0849 -0.0960 -0.1802
 1981DPPC   C3A45463   6.302  17.408  34.870  0.2594  0.0813 -0.0553
 1981DPPC   C4A45464   6.634  17.197  34.701 -0.3908 -0.0353 -0.1004
 1981DPPC   C1B45465   5.836  17.659  34.450  0.1644  0.3018 -0.2598
 1981DPPC   C2B45466   6.096  17.487  34.441  0.1250  0.0579 -0.2535
 1981DPPC   C3B45467   6.539  17.491  34.290 -0.0698  0.2720 -0.3225
 1981DPPC   C4B45468   6.813  17.864  34.157  0.0886  0.0044 -0.2712
 1982DPPC   NC345469  21.238  11.805  38.232 -0.2450 -0.1053 -0.3766
 1982DPPC   PO445470  20.735  11.820  38.446 -0.0662 -0.2415  0.0384
 1982DPPC   GL145471  20.804  12.003  38.778  0.3150  0.0896 -0.1030
 1982DPPC   GL245472  20.847  12.232  38.910 -0.0526  0.1703 -0.0231
 1982DPPC   C1A45473  21.193  11.939  38.991  0.1174  0.2148 -0.0904
 1982DPPC   C2A45474  21.501  11.997  39.376  0.0851  0.1304 -0.2249
 1982DPPC   C3A45475  21.529  12.307  39.570 -0.1294  0.2042 -0.0809
 1982DPPC   C4A45476  21.304  12.607  39.601 -0.0019  0.3971 -0.0052
 1982DPPC   C1B45477  21.158  12.429  39.158 -0.4827 -0.1221 -0.0523
 1982DPPC   C2B45478  21.272  12.677  38.839 -0.0631  0.2826 -0.0177
 1982DPPC   C3B45479  21.713  12.838  38.745 -0.0993 -0.2580 -0.0199
 1982DPPC   C4B45480  21.953  12.910  38.456  0.0296 -0.1831 -0.0191
 1983DPPC   NC345481  22.131  16.077  30.036 -0.1662  0.2875 -0.1390
 1983DPPC   PO445482  22.071  16.481  30.150  0.0057 -0.1642  0.3885
 1983DPPC   GL145483  22.381  16.506  29.885  0.1823  0.2485 -0.2757
 1983DPPC   GL245484  22.576  16.545  30.110 -0.1223  0.1068  0.2260
 1983DPPC   C1A45485  22.713  16.660  29.570 -0.0111  0.0707 -0.0624
 1983DPPC   C2A45486  23.120  16.867  29.559 -0.2209 -0.1069  0.5267
 1983DPPC   C3A45487  23.310  16.988  29.073 -0.0189 -0.3507 -0.0992
 1983DPPC   C4A45488  23.429  17.347  28.882 -0.1300 -0.3982  0.1881
 1983DPPC   C1B45489  22.988  16.474  30.408 -0.1074 -0.0078 -0.2359
 1983DPPC   C2B45490  23.335  16.733  30.391  0.1403 -0.0872 -0.1419
 1983DPPC   C3B45491  23.571  16.988  30.135  0.5308 -0.2250 -0.2154
 1983DPPC   C4B45492  23.597  17.024  29.589  0.0650  0.2487 -0.0460
 1984DPPC   NC345493   0.836  10.395  31.364 -0.0138  0.1163 -0.1461
 1984DPPC   PO445494   0.983  10.063  31.222  0.1579 -0.2230 -0.2292
 1984DPPC   GL145495   0.459  10.073  31.131 -0.0425  0.1863  0.0822
 1984DPPC   GL245496   0.509  10.044  31.486 -0.1991  0.1329  0.2064
 1984DPPC   C1A45497   0.024  10.243  31.080  0.0174  0.1591 -0.1007
 1984DPPC   C2A45498  26.672  10.109  30.962  0.1960  0.0839 -0.2899
 1984DPPC   C3A45499  26.375   9.695  30.742 -0.1513 -0.1363 -0.0784
 1984DPPC   C4A45500  26.092   9.397  30.654 -0.0779  0.3533  0.4636
 1984DPPC   C1B45501   0.070   9.778  31.432 -0.5270  0.4693 -0.1593
 1984DPPC   C2B45502  26.697   9.719  31.293 -0.0591 -0.1169  0.3259
 1984DPPC   C3B45503  26.317   9.824  31.364  0.1737 -0.1378 -0.2205
 1984DPPC   C4B45504  25.950   9.753  31.006 -0.0631  0.1333 -0.0143
 1985DPPC   NC345505  19.107  18.497  30.589 -0.0200  0.2872  0.2002
 1985DPPC   PO445506  19.145  18.929  30.452 -0.0190 -0.0831  0.0221
 1985DPPC   GL145507  19.254  19.364  30.329 -0.0890  0.1758 -0.0204
 1985DPPC   GL245508  19.050  19.554  30.513  0.0739  0.1140 -0.0440
 1985DPPC   C1A45509  19.589  19.725  30.207  0.2321  0.1582  0.2097
 1985DPPC   C2A45510  19.828  19.971  29.991 -0.2454  0.0149  0.3002
 1985DPPC   C3A45511  20.082  20.227  29.763  0.3571  0.1896  0.2219
 1985DPPC   C4A45512  20.177  20.517  29.369 -0.1185  0.1892  0.0820
 1985DPPC   C1B45513  19.336  19.901  30.582  0.1959 -0.0672  0.0339
 1985DPPC   C2B45514  19.572  20.259  30.584 -0.0320  0.3629  0.2405
 1985DPPC   C3B45515  19.754  20.570  30.592  0.0369  0.0782 -0.1214
 1985DPPC   C4B45516  19.745  20.904  30.749 -0.2071 -0.0479  0.2283
 1986DPPC   NC345517  22.085   1.834  23.552 -0.0440 -0.1384 -0.0015
 1986DPPC   PO445518  22.282   2.160  23.827  0.0243  0.2234 -0.1463
 1986DPPC   GL145519  22.086   2.616  23.823 -0.0511 -0.1326  0.0231
 1986DPPC   GL245520  21.733   2.558  23.749  0.0288  0.1727 -0.1870
 1986DPPC   C1A45521  21.960   2.835  24.025 -0.3161 -0.0424 -0.1804
 1986DPPC   C2A45522  21.788   3.224  24.218  0.3069 -0.1252 -0.0547
 1986DPPC   C3A45523  21.409   3.305  24.413  0.2062  0.1309 -0.0900
 1986DPPC   C4A45524  21.012   3.048  24.343  0.1124  0.1428  0.4001
 1986DPPC   C1B45525  21.685   2.885  23.622 -0.0204  0.1801 -0.1426
 1986DPPC   C2B45526  21.575   3.272  23.774 -0.1823  0.0340 -0.1484
 1986DPPC   C3B45527  21.345   3.608  24.028 -0.3785 -0.0109  0.1431
 1986DPPC   C4B45528  21.019   3.931  23.909  0.2668 -0.0528  0.0921
 1987DPPC   NC345529  15.879  15.091  27.267  0.0768  0.1559 -0.0794
 1987DPPC   PO445530  16.159  14.940  27.576  0.1489 -0.0306 -0.0155
 1987DPPC   GL145531  16.365  14.934  27.234 -0.1145  0.0471  0.0048
 1987DPPC   GL245532  16.624  15.203  27.277 -0.0026  0.0999 -0.0611
 1987DPPC   C1A45533  16.516  14.808  26.829  0.0364 -0.2642  0.1894
 1987DPPC   C2A45534  16.858  14.786  26.666 -0.1579 -0.0500 -0.3423
 1987DPPC   C3A45535  17.189  14.853  26.451 -0.0836  0.4990  0.1746
 1987DPPC   C4A45536  17.264  14.750  25.896 -0.1998  0.1614 -0.0239
 1987DPPC   C1B45537  16.685  15.281  26.822 -0.0390  0.0652  0.1269
 1987DPPC   C2B45538  16.773  15.216  26.446  0.2784  0.2217 -0.1566
 1987DPPC   C3B45539  16.996  15.207  26.124 -0.3250  0.0354  0.4716
 1987DPPC   C4B45540  17.256  15.260  25.682  0.0853 -0.3035 -0.0098
 1988DPPC   NC345541  13.690  14.316  24.371  0.2405 -0.0460  0.0692
 1988DPPC   PO445542  13.709  14.528  24.833 -0.0548  0.2918 -0.0128
 1988DPPC   GL145543  13.986  14.501  25.307 -0.3428 -0.0382 -0.0639
 1988DPPC   GL245544  13.923  14.659  25.592  0.0746 -0.1762 -0.0190
 1988DPPC   C1A45545  14.496  14.431  25.383 -0.0081 -0.0707  0.2408
 1988DPPC   C2A45546  14.700  14.116  25.205 -0.0494 -0.0512  0.0644
 1988DPPC   C3A45547  15.148  14.253  25.134 -0.1070  0.0356 -0.1713
 1988DPPC   C4A45548  15.534  14.102  25.153  0.2763 -0.1928 -0.2642
 1988DPPC   C1B45549  14.134  14.553  25.972 -0.0661 -0.1186  0.1140
 1988DPPC   C2B45550  14.493  14.524  26.204 -0.0637 -0.0037  0.1564
 1988DPPC   C3B45551  14.876  14.484  26.434  0.2922 -0.2453  0.1443
 1988DPPC   C4B45552  15.327  14.410  26.574  0.0111 -0.2117 -0.0506
 1989DPPC   NC345553  18.137   1.010  35.243 -0.1856 -0.1073 -0.1040
 1989DPPC   PO445554  18.379   1.350  35.390  0.4203 -0.1450 -0.2207
 1989DPPC   GL145555  18.269   1.552  35.062 -0.1890 -0.0422  0.0136
 1989DPPC   GL245556  18.018   1.364  34.875  0.1096 -0.1518  0.3596
 1989DPPC   C1A45557  18.366   1.902  34.887 -0.0829  0.0878 -0.2316
 1989DPPC   C2A45558  18.274   2.312  34.863  0.0608 -0.0411 -0.0779
 1989DPPC   C3A45559  18.031   2.673  34.806 -0.2499  0.0857 -0.1473
 1989DPPC   C4A45560  17.793   3.081  34.930  0.1747  0.1540  0.2931
 1989DPPC   C1B45561  17.790   1.787  34.703  0.0661 -0.2604 -0.1846
 1989DPPC   C2B45562  17.758   2.192  34.620  0.2060  0.0558  0.2072
 1989DPPC   C3B45563  17.746   2.603  34.357  0.0813 -0.0573  0.2701
 1989DPPC   C4B45564  17.629   2.963  34.023  0.0454 -0.0488 -0.0421
 1990DPPC   NC345565  22.062  11.183  20.953  0.0939 -0.2655  0.0616
 1990DPPC   PO445566  21.780  10.982  20.664 -0.1252 -0.1987  0.2636
 1990DPPC   GL145567  22.045  10.986  20.384 -0.1473 -0.0648  0.2638
 1990DPPC   GL245568  21.870  11.137  20.038 -0.3455  0.1621 -0.0590
 1990DPPC   C1A45569  22.390  10.638  20.128 -0.2009  0.0828 -0.0976
 1990DPPC   C2A45570  22.663  10.470  19.809 -0.1639 -0.2220  0.0883
 1990DPPC   C3A45571  23.119  10.276  19.706  0.0836  0.0606  0.2069
 1990DPPC   C4A45572  23.369  10.105  19.516  0.0329 -0.0691  0.1215
 1990DPPC   C1B45573  22.042  10.901  19.785 -0.5104  0.0199  0.0322
 1990DPPC   C2B45574  22.355  10.657  19.475  0.0367  0.2169 -0.1931
 1990DPPC   C3B45575  22.726  10.579  19.313 -0.3221  0.2408 -0.0409
 1990DPPC   C4B45576  23.188  10.500  19.145  0.3115  0.0929 -0.0760
 1991DPPC   NC345577  13.792  10.751  43.850  0.2432  0.2617 -0.2992
 1991DPPC   PO445578  13.816  11.092  43.803 -0.0529 -0.2019 -0.0116
 1991DPPC   GL145579  13.830  10.896  43.352 -0.3580  0.1117 -0.2231
 1991DPPC   GL245580  13.495  10.655  43.367  0.0445 -0.3053 -0.2523
 1991DPPC   C1A45581  13.940  10.816  42.989  0.2062  0.0861 -0.0708
 1991DPPC   C2A45582  14.310  10.557  42.946  0.3223  0.0518 -0.0614
 1991DPPC   C3A45583  14.773  10.342  42.791  0.1542  0.2362  0.0390
 1991DPPC   C4A45584  15.001  10.710  42.522  0.0358  0.2820  0.2117
 1991DPPC   C1B45585  13.053  10.802  43.142 -0.0582 -0.3500 -0.3303
 1991DPPC   C2B45586  12.714  10.858  42.788 -0.1415  0.0460  0.0077
 1991DPPC   C3B45587  12.343  11.069  42.634 -0.1401 -0.0702 -0.0686
 1991DPPC   C4B45588  12.249  11.151  42.195 -0.2020 -0.0516  0.0057
 1992DPPC   NC345589  13.001   5.218  26.544 -0.0633  0.1442  0.1684
 1992DPPC   PO445590  13.357   4.949  26.715 -0.0060 -0.0251 -0.0155
 1992DPPC   GL145591  13.047   4.618  26.857  0.0429  0.0005  0.0391
 1992DPPC   GL245592  12.781   4.600  26.599  0.2096  0.0050  0.2500
 1992DPPC   C1A45593  12.806   4.284  26.995 -0.5593 -0.2133 -0.0129
 1992DPPC   C2A45594  12.518   3.991  26.996  0.1204  0.0463  0.0775
 1992DPPC   C3A45595  12.193   3.838  26.740 -0.1218  0.1636 -0.1343
 1992DPPC   C4A45596  11.845   3.687  27.035 -0.4897 -0.1012 -0.0656
 1992DPPC   C1B45597  12.410   4.342  26.347 -0.1096  0.2245  0.2220
 1992DPPC   C2B45598  12.739   4.025  26.216  0.1019 -0.1562 -0.2167
 1992DPPC   C3B45599  13.132   3.648  26.277  0.0660  0.0540 -0.0397
 1992DPPC   C4B45600  13.121   3.369  26.585  0.0813  0.3311  0.0913
 1993DPPC   NC345601   9.802   6.414  40.041 -0.0774  0.0404  0.3867
 1993DPPC   PO445602   9.549   6.797  40.138  0.1357  0.1846 -0.2551
 1993DPPC   GL145603   9.818   6.970  39.856 -0.3376 -0.1301  0.3310
 1993DPPC   GL245604   9.922   6.687  39.575 -0.1780 -0.1336  0.0542
 1993DPPC   C1A45605   9.707   7.146  39.399  0.0311  0.0799 -0.2524
 1993DPPC   C2A45606   9.882   7.269  38.999  0.0931 -0.1228 -0.1064
 1993DPPC   C3A45607  10.013   7.376  38.646 -0.0065 -0.0314 -0.1037
 1993DPPC   C4A45608  10.368   7.238  38.356  0.1284  0.0211 -0.0037
 1993DPPC   C1B45609  10.217   7.126  39.551  0.4983 -0.1432  0.2907
 1993DPPC   C2B45610  10.547   7.402  39.312 -0.0050 -0.0365 -0.1162
 1993DPPC   C3B45611  10.813   7.757  39.167 -0.4010 -0.1080  0.1006
 1993DPPC   C4B45612  11.056   7.981  38.867  0.0271 -0.1846  0.1258
 1994DPPC   NC345613  12.717   0.099  27.736 -0.1519 -0.2111 -0.3089
 1994DPPC   PO445614  12.665   0.538  27.902  0.0907  0.0687 -0.1088
 1994DPPC   GL145615  13.090   0.788  27.974  0.0905  0.0356 -0.0393
 1994DPPC   GL245616  13.070   1.030  28.373 -0.0323 -0.0151 -0.0180
 1994DPPC   C1A45617  13.066   1.215  27.918 -0.3751  0.0366 -0.0035
 1994DPPC   C2A45618  13.180   1.617  27.819 -0.0529 -0.0519 -0.2589
 1994DPPC   C3A45619  13.499   1.814  27.853  0.1195  0.2661 -0.1557
 1994DPPC   C4A45620  13.416   2.175  27.793 -0.0858 -0.0253 -0.0327
 1994DPPC   C1B45621  12.930   1.522  28.262  0.2203 -0.0575  0.1441
 1994DPPC   C2B45622  12.993   1.996  28.078  0.2160 -0.0168  0.0597
 1994DPPC   C3B45623  13.024   2.417  28.009  0.0887  0.0503  0.1118
 1994DPPC   C4B45624  13.197   2.820  28.098  0.2183 -0.0443 -0.2296
 1995DPPC   NC345625   6.714   6.130  36.125  0.0103 -0.2788 -0.2587
 1995DPPC   PO445626   6.288   6.262  36.360 -0.1788  0.0627  0.0481
 1995DPPC   GL145627   6.542   6.671  36.084 -0.1575  0.2892  0.1646
 1995DPPC   GL245628   6.855   6.597  35.884 -0.0550 -0.0335  0.1882
 1995DPPC   C1A45629   6.685   7.120  35.964  0.2220  0.0129 -0.1974
 1995DPPC   C2A45630   7.002   7.276  35.676  0.0314  0.1452  0.0623
 1995DPPC   C3A45631   7.313   7.253  35.340 -0.2726 -0.2718 -0.0501
 1995DPPC   C4A45632   7.708   7.216  35.108  0.2434  0.2136  0.1584
 1995DPPC   C1B45633   7.225   6.889  35.910  0.2956  0.0340  0.2813
 1995DPPC   C2B45634   7.563   7.137  35.890 -0.2868 -0.0120 -0.1686
 1995DPPC   C3B45635   7.787   7.349  35.644  0.0767  0.1174 -0.0315
 1995DPPC   C4B45636   8.040   7.612  35.293 -0.1208 -0.2895  0.2033
 1996DPPC   NC345637   5.674   6.609  32.503  0.0337  0.0567  0.2292
 1996DPPC   PO445638   5.812   6.250  32.237  0.0667  0.1439  0.0333
 1996DPPC   GL145639   6.039   6.499  32.061 -0.1295 -0.0248  0.3243
 1996DPPC   GL245640   6.263   6.220  32.016  0.1070  0.2053 -0.1791
 1996DPPC   C1A45641   6.364   6.635  31.814 -0.1462 -0.0273  0.4097
 1996DPPC   C2A45642   6.788   6.674  31.765 -0.2188 -0.1640  0.2998
 1996DPPC   C3A45643   7.300   6.755  31.667  0.0590 -0.0902  0.1256
 1996DPPC   C4A45644   7.529   7.012  31.881  0.4015 -0.0785  0.0055
 1996DPPC   C1B45645   6.616   6.413  32.189 -0.0545 -0.3555  0.0718
 1996DPPC   C2B45646   6.925   6.578  32.314 -0.0790 -0.3322 -0.0754
 1996DPPC   C3B45647   7.312   6.754  32.360 -0.1297 -0.0416  0.1891
 1996DPPC   C4B45648   7.774   6.620  32.572 -0.0834 -0.1724 -0.1437
 1997DPPC   NC345649  13.553   0.590  26.456 -0.0437 -0.3677  0.0296
 1997DPPC   PO445650  13.682   0.563  26.815 -0.4526 -0.0116 -0.1942
 1997DPPC   GL145651  13.828   0.847  27.060  0.0797 -0.0122 -0.0498
 1997DPPC   GL245652  14.158   0.922  26.896  0.1673  0.0273  0.0604
 1997DPPC   C1A45653  13.909   1.279  27.183 -0.0045 -0.2281 -0.1320
 1997DPPC   C2A45654  14.125   1.640  27.415 -0.1701  0.3116 -0.0017
 1997DPPC   C3A45655  14.485   1.572  27.433 -0.3289  0.5260 -0.2639
 1997DPPC   C4A45656  14.751   1.537  27.075 -0.1163  0.2523 -0.3050
 1997DPPC   C1B45657  14.355   1.290  26.904 -0.0471  0.2735 -0.0942
 1997DPPC   C2B45658  14.295   1.709  26.992 -0.0568 -0.1773 -0.0648
 1997DPPC   C3B45659  14.630   2.044  27.048  0.1630 -0.0768 -0.2119
 1997DPPC   C4B45660  14.821   2.501  27.212 -0.3086 -0.0874  0.0469
 1998DPPC   NC345661  26.419   5.582  31.433 -0.0967  0.1159  0.1952
 1998DPPC   PO445662  26.069   5.489  31.694  0.2028  0.1049 -0.2220
 1998DPPC   GL145663  25.774   5.659  31.349 -0.2720 -0.2972 -0.1019
 1998DPPC   GL245664  25.760   5.433  31.068  0.0798  0.3150  0.0284
 1998DPPC   C1A45665  25.478   5.905  31.037 -0.0542 -0.1570 -0.4439
 1998DPPC   C2A45666  25.269   5.864  30.629 -0.0768  0.0666  0.0110
 1998DPPC   C3A45667  24.810   5.751  30.622  0.1450  0.1621 -0.0889
 1998DPPC   C4A45668  24.474   5.849  30.354  0.1613 -0.1385 -0.1378
 1998DPPC   C1B45669  25.322   5.479  31.007  0.3961  0.2324 -0.1871
 1998DPPC   C2B45670  24.984   5.240  30.650  0.0695 -0.1291  0.3540
 1998DPPC   C3B45671  24.550   5.331  30.405  0.2203  0.3239 -0.0309
 1998DPPC   C4B45672  24.160   5.470  30.463 -0.0486  0.4269 -0.0450
 1999DPPC   NC345673  11.674  15.871  22.522 -0.3524 -0.3834  0.0074
 1999DPPC   PO445674  11.353  15.795  22.155 -0.2892  0.5332 -0.0743
 1999DPPC   GL145675  11.038  15.803  21.853 -0.0365  0.2761  0.0658
 1999DPPC   GL245676  11.158  15.706  21.512  0.0784  0.1867 -0.1468
 1999DPPC   C1A45677  10.622  15.778  22.155  0.0012  0.0918  0.3127
 1999DPPC   C2A45678  10.213  15.649  21.989  0.0332  0.3950 -0.2681
 1999DPPC   C3A45679   9.818  15.523  21.964  0.3323 -0.2012  0.1132
 1999DPPC   C4A45680   9.610  15.704  21.600 -0.0353 -0.0383 -0.1759
 1999DPPC   C1B45681  10.942  15.494  21.196  0.2913 -0.0767 -0.1599
 1999DPPC   C2B45682  10.766  15.380  20.867  0.2687 -0.1058 -0.1780
 1999DPPC   C3B45683  10.552  15.442  20.487 -0.1475  0.0144  0.0774
 1999DPPC   C4B45684  10.224  15.545  20.143 -0.0771 -0.0083 -0.0718
 2000DPPC   NC345685  24.470   4.479  36.244 -0.0137  0.0453  0.0186
 2000DPPC   PO445686  24.215   4.756  36.461  0.0490 -0.0189 -0.2609
 2000DPPC   GL145687  23.976   5.163  36.323  0.0994  0.1027  0.1136
 2000DPPC   GL245688  23.935   5.511  36.391 -0.0564 -0.0993 -0.0651
 2000DPPC   C1A45689  23.626   5.229  36.075 -0.1376 -0.0001  0.2887
 2000DPPC   C2A45690  23.223   5.083  35.766 -0.2284 -0.2432  0.0476
 2000DPPC   C3A45691  22.812   4.925  35.797  0.4563  0.2323 -0.1634
 2000DPPC   C4A45692  22.424   5.107  35.647  0.2737  0.0622 -0.1786
 2000DPPC   C1B45693  23.774   5.839  36.154 -0.3639 -0.1205  0.2629
 2000DPPC   C2B45694  23.520   5.642  35.751  0.0699  0.0861  0.0645
 2000DPPC   C3B45695  23.083   5.636  35.767 -0.3421  0.1222  0.0077
 2000DPPC   C4B45696  22.756   5.464  35.693  0.2763  0.2967 -0.1650
 2001DPPC   NC345697  23.154  10.793  26.588  0.0751 -0.0484 -0.0795
 2001DPPC   PO445698  23.139  10.406  26.762 -0.1169 -0.0416 -0.0931
 2001DPPC   GL145699  23.565  10.331  26.779 -0.2958  0.1816 -0.2718
 2001DPPC   GL245700  23.647  10.568  26.625  0.0032  0.0069 -0.1646
 2001DPPC   C1A45701  23.869  10.105  26.786  0.0834 -0.2332 -0.3913
 2001DPPC   C2A45702  24.199   9.796  26.876  0.0353  0.2370 -0.0929
 2001DPPC   C3A45703  24.603   9.858  27.103  0.2363 -0.0839 -0.1854
 2001DPPC   C4A45704  24.915   9.977  27.475 -0.0472  0.4923  0.4428
 2001DPPC   C1B45705  24.114  10.642  26.439  0.2355  0.1508 -0.0223
 2001DPPC   C2B45706  24.472  10.688  26.387  0.1023  0.2825 -0.4231
 2001DPPC   C3B45707  24.816  10.867  26.307  0.2176  0.0712  0.1338
 2001DPPC   C4B45708  25.239  10.961  26.296 -0.2670 -0.0617  0.2017
 2002DPPC   NC345709  21.191  22.015  26.511  0.1248 -0.1826  0.0581
 2002DPPC   PO445710  20.875  22.244  26.732  0.0113 -0.0670  0.0538
 2002DPPC   GL145711  20.668  21.886  26.676 -0.1084  0.0415  0.2395
 2002DPPC   GL245712  20.911  21.675  26.408  0.2904 -0.3138 -0.3662
 2002DPPC   C1A45713  20.322  21.575  26.736 -0.0924 -0.0224 -0.0760
 2002DPPC   C2A45714  20.238  21.224  26.925 -0.0205  0.0389  0.1898
 2002DPPC   C3A45715  20.084  20.850  26.825 -0.0216 -0.3761  0.0527
 2002DPPC   C4A45716  19.806  20.601  26.512  0.1279  0.1280 -0.1800
 2002DPPC   C1B45717  20.659  21.229  26.428  0.0016  0.2423 -0.1770
 2002DPPC   C2B45718  20.301  21.052  26.354 -0.3114  0.0472  0.3385
 2002DPPC   C3B45719  20.010  20.744  26.073  0.1386 -0.0677  0.0004
 2002DPPC   C4B45720  19.569  20.511  26.058  0.0089  0.0385  0.1097
 2003DPPC   NC345721   5.649  21.867  31.559 -0.3617  0.3947 -0.3175
 2003DPPC   PO445722   6.096  22.052  31.616  0.0306 -0.0215  0.1688
 2003DPPC   GL145723   6.515  21.813  31.624  0.3277 -0.1251  0.1100
 2003DPPC   GL245724   6.606  21.625  31.329 -0.1834 -0.2373  0.1936
 2003DPPC   C1A45725   6.903  21.997  31.748  0.0771  0.1681  0.2643
 2003DPPC   C2A45726   7.325  21.943  31.782  0.0205  0.3479  0.2146
 2003DPPC   C3A45727   7.737  22.143  31.858  0.1197 -0.0152 -0.0460
 2003DPPC   C4A45728   8.243  22.246  31.827  0.1741  0.1018  0.1107
 2003DPPC   C1B45729   6.756  21.212  31.385 -0.1848  0.0350 -0.2010
 2003DPPC   C2B45730   7.011  20.949  31.038 -0.3517 -0.1516 -0.2833
 2003DPPC   C3B45731   7.348  20.600  31.031 -0.3145 -0.1822  0.0758
 2003DPPC   C4B45732   7.309  20.456  31.463  0.2769  0.0575 -0.0705
 2004DPPC   NC345733  24.554   3.642  33.182 -0.0544  0.2750  0.0413
 2004DPPC   PO445734  24.342   3.674  32.740 -0.2815 -0.0484  0.0536
 2004DPPC   GL145735  24.080   3.725  32.915  0.1711  0.1403  0.2168
 2004DPPC   GL245736  23.863   3.671  32.714  0.3672  0.1959 -0.2023
 2004DPPC   C1A45737  23.838   4.134  32.926 -0.2989  0.0576  0.3205
 2004DPPC   C2A45738  23.620   4.431  32.776  0.3243 -0.1153  0.1237
 2004DPPC   C3A45739  23.412   4.893  32.785  0.1168 -0.0371  0.2400
 2004DPPC   C4A45740  23.318   5.173  33.065  0.2353 -0.2364  0.2124
 2004DPPC   C1B45741  23.532   3.799  32.498  0.0377  0.0296 -0.0675
 2004DPPC   C2B45742  23.315   4.159  32.339 -0.4576 -0.0628 -0.2357
 2004DPPC   C3B45743  23.545   4.659  32.279  0.0495  0.2775  0.2474
 2004DPPC   C4B45744  23.330   4.991  32.208 -0.0837 -0.0961 -0.1686
 2005DPPC   NC345745  21.361  14.039  21.278  0.0905  0.0893  0.0028
 2005DPPC   PO445746  21.513  13.930  21.673 -0.1171 -0.1370 -0.1939
 2005DPPC   GL145747  21.779  14.223  21.947  0.1200  0.2480 -0.1583
 2005DPPC   GL245748  22.022  14.045  22.237 -0.1086 -0.2591 -0.0456
 2005DPPC   C1A45749  22.188  14.423  21.838 -0.0537  0.1280 -0.2115
 2005DPPC   C2A45750  22.612  14.372  21.742  0.0233  0.1007 -0.0029
 2005DPPC   C3A45751  22.996  14.440  21.588 -0.0006 -0.0139  0.4638
 2005DPPC   C4A45752  23.294  14.486  21.607  0.0333 -0.0288  0.0871
 2005DPPC   C1B45753  22.238  14.417  22.358 -0.0553  0.2806 -0.1447
 2005DPPC   C2B45754  22.429  14.790  22.541  0.2274  0.2488 -0.0600
 2005DPPC   C3B45755  22.391  15.312  22.740  0.0624 -0.1570  0.3132
 2005DPPC   C4B45756  22.646  15.679  22.884 -0.2130 -0.0710 -0.3086
 2006DPPC   NC345757  22.908  17.757  21.227  0.4342  0.0988 -0.1578
 2006DPPC   PO445758  22.867  18.102  20.936 -0.0008 -0.0695  0.1575
 2006DPPC   GL145759  22.576  17.922  20.793  0.0361 -0.0785  0.2508
 2006DPPC   GL245760  22.395  17.861  21.077  0.1335 -0.2801 -0.0890
 2006DPPC   C1A45761  22.273  17.568  20.744  0.2398  0.3129  0.2704
 2006DPPC   C2A45762  22.233  17.117  20.951  0.3587 -0.0571 -0.1463
 2006DPPC   C3A45763  22.022  16.757  20.787  0.1663 -0.1353 -0.1387
 2006DPPC   C4A45764  21.736  16.532  20.632  0.0046  0.1299 -0.1886
 2006DPPC   C1B45765  22.359  17.351  21.375 -0.1689 -0.2076  0.2358
 2006DPPC   C2B45766  22.466  17.009  21.486 -0.1103 -0.2343 -0.0832
 2006DPPC   C3B45767  22.242  16.609  21.506 -0.2945 -0.3723  0.0189
 2006DPPC   C4B45768  22.379  16.127  21.518 -0.0128  0.0190 -0.1038
 2007DPPC   NC345769  19.618   0.473  24.914 -0.1970 -0.0265 -0.2383
 2007DPPC   PO445770  19.714   0.975  24.913  0.1865  0.1485  0.0207
 2007DPPC   GL145771  19.304   1.197  24.875  0.1473 -0.1304 -0.0945
 2007DPPC   GL245772  19.114   1.338  25.260 -0.0563  0.1537  0.4029
 2007DPPC   C1A45773  19.376   1.605  24.946 -0.0152 -0.1344  0.0852
 2007DPPC   C2A45774  19.420   2.068  25.071  0.4031 -0.2531  0.0131
 2007DPPC   C3A45775  19.097   2.219  25.357  0.3115 -0.2624  0.0841
 2007DPPC   C4A45776  18.894   2.427  25.558 -0.1760 -0.0933 -0.0579
 2007DPPC   C1B45777  18.900   1.703  25.286 -0.0505  0.0183  0.2069
 2007DPPC   C2B45778  18.600   2.022  25.261  0.1146  0.1654 -0.2066
 2007DPPC   C3B45779  18.448   2.308  25.512  0.2970  0.2467  0.1372
 2007DPPC   C4B45780  18.508   2.483  25.881 -0.1049 -0.2269  0.1369
 2008DPPC   NC345781  26.582   6.654  26.148  0.1706  0.0945  0.0646
 2008DPPC   PO445782  26.474   6.315  26.481  0.0846 -0.1465 -0.1136
 2008DPPC   GL145783  26.087   6.541  26.556 -0.0957 -0.0294  0.1235
 2008DPPC   GL245784  25.906   6.328  26.717 -0.1171  0.1188 -0.4204
 2008DPPC   C1A45785  25.959   6.857  26.194 -0.2015  0.2431  0.4943
 2008DPPC   C2A45786  25.587   6.965  25.933 -0.2428  0.3533 -0.2404
 2008DPPC   C3A45787  25.106   7.059  25.771  0.0005  0.0236  0.1588
 2008DPPC   C4A45788  24.718   7.138  25.583  0.1803 -0.0693 -0.0833
 2008DPPC   C1B45789  25.547   6.450  26.820 -0.0428 -0.3767 -0.1987
 2008DPPC   C2B45790  25.218   6.674  26.996 -0.0130  0.0509  0.0555
 2008DPPC   C3B45791  25.237   7.134  27.258 -0.1077  0.0065 -0.1845
 2008DPPC   C4B45792  25.313   7.620  27.214  0.3571  0.1519  0.0768
 2009DPPC   NC345793  11.273   5.212  19.559  0.2639  0.1313 -0.4182
 2009DPPC   PO445794  11.701   5.327  19.721  0.0856 -0.1215 -0.1029
 2009DPPC   GL145795  11.803   5.388  20.287 -0.0080  0.0290 -0.1120
 2009DPPC   GL245796  11.536   5.246  20.499  0.0602 -0.1643 -0.2315
 2009DPPC   C1A45797  11.875   5.493  20.696 -0.4171  0.2504 -0.1921
 2009DPPC   C2A45798  11.932   5.914  20.998  0.2508 -0.1473 -0.1883
 2009DPPC   C3A45799  12.164   5.949  21.430  0.4529  0.2197 -0.0479
 2009DPPC   C4A45800  12.546   5.908  21.333 -0.1158 -0.1727  0.1248
 2009DPPC   C1B45801  11.505   5.767  20.457 -0.3677  0.0187 -0.0007
 2009DPPC   C2B45802  11.672   6.120  20.593  0.2302  0.2360  0.5886
 2009DPPC   C3B45803  11.984   6.333  20.800 -0.0415 -0.0637  0.1548
 2009DPPC   C4B45804  12.287   6.240  21.044 -0.4859 -0.0118  0.1614
 2010DPPC   NC345805  18.020  23.659  23.065  0.2015 -0.1980  0.1351
 2010DPPC   PO445806  17.988  23.493  22.699  0.2842  0.0614 -0.1271
 2010DPPC   GL145807  17.814  23.159  23.023 -0.1505 -0.0582  0.0137
 2010DPPC   GL245808  17.512  23.228  23.080  0.2280 -0.0350 -0.1142
 2010DPPC   C1A45809  17.791  22.847  23.281  0.2477 -0.1956 -0.2406
 2010DPPC   C2A45810  17.497  22.472  23.228 -0.3695 -0.4820  0.1101
 2010DPPC   C3A45811  17.649  22.283  22.929 -0.1343  0.2619  0.1796
 2010DPPC   C4A45812  17.660  21.809  22.841 -0.0157  0.1700  0.2003
 2010DPPC   C1B45813  17.169  23.089  22.886  0.1376 -0.0095  0.1130
 2010DPPC   C2B45814  16.787  23.063  22.744 -0.1095 -0.2072  0.1702
 2010DPPC   C3B45815  16.645  22.580  22.784 -0.1633  0.2065  0.1327
 2010DPPC   C4B45816  16.514  22.291  23.024  0.1747  0.1516 -0.0991
 2011DPPC   NC345817  14.170   8.356  16.236  0.1633  0.2859 -0.0563
 2011DPPC   PO445818  14.055   8.387  16.604  0.2656 -0.2383  0.1334
 2011DPPC   GL145819  13.929   8.501  16.973 -0.3264 -0.1807  0.2975
 2011DPPC   GL245820  13.685   8.288  17.061 -0.3815 -0.2797 -0.0300
 2011DPPC   C1A45821  14.113   8.328  17.394  0.1829  0.1012  0.0029
 2011DPPC   C2A45822  14.279   8.089  17.813 -0.0231 -0.0803  0.1754
 2011DPPC   C3A45823  14.195   8.228  18.254  0.0042 -0.4174 -0.0677
 2011DPPC   C4A45824  14.071   8.048  18.576  0.0729 -0.5302 -0.1176
 2011DPPC   C1B45825  13.634   8.375  17.516 -0.1832 -0.2760 -0.4275
 2011DPPC   C2B45826  13.898   8.654  17.878  0.0415  0.0600 -0.3807
 2011DPPC   C3B45827  13.975   8.744  18.224 -0.3134  0.0584  0.0009
 2011DPPC   C4B45828  14.123   8.604  18.582  0.2188  0.0999  0.1914
 2012DPPC   NC345829  20.350  16.624  29.831  0.0311  0.3701  0.1582
 2012DPPC   PO445830  20.835  16.908  29.851  0.2689 -0.2680  0.1713
 2012DPPC   GL145831  21.215  17.132  29.818  0.0169  0.1593 -0.3564
 2012DPPC   GL245832  21.007  17.438  29.753  0.0391  0.0379 -0.3107
 2012DPPC   C1A45833  21.507  17.419  29.786 -0.0672 -0.0148 -0.1698
 2012DPPC   C2A45834  21.515  17.789  29.409  0.0226 -0.2061  0.0611
 2012DPPC   C3A45835  21.819  18.177  29.138  0.0910  0.1910 -0.1027
 2012DPPC   C4A45836  22.205  18.327  29.025  0.2621 -0.0494 -0.2747
 2012DPPC   C1B45837  21.290  17.765  30.019  0.1834 -0.0429 -0.1560
 2012DPPC   C2B45838  21.706  17.851  29.917 -0.0341 -0.0890 -0.3162
 2012DPPC   C3B45839  21.943  17.647  29.534  0.0582 -0.1705 -0.0471
 2012DPPC   C4B45840  22.262  17.969  29.341 -0.2023  0.0037  0.3822
 2013DPPC   NC345841  11.849   7.598  17.351  0.2013  0.0332 -0.0831
 2013DPPC   PO445842  11.863   8.086  17.424  0.1826  0.1283 -0.1112
 2013DPPC   GL145843  11.988   7.977  17.685 -0.1639 -0.2329 -0.0285
 2013DPPC   GL245844  12.224   8.253  17.746 -0.2206  0.6072  0.0240
 2013DPPC   C1A45845  12.099   7.895  18.127 -0.0269  0.2495  0.2975
 2013DPPC   C2A45846  12.395   7.985  18.420  0.0064  0.0050 -0.1260
 2013DPPC   C3A45847  12.546   8.171  18.746 -0.2802 -0.0842  0.1922
 2013DPPC   C4A45848  12.556   8.409  19.133  0.1045  0.0838 -0.3777
 2013DPPC   C1B45849  12.560   7.907  17.832  0.0937  0.1194  0.1916
 2013DPPC   C2B45850  12.852   7.585  17.806  0.3033  0.2475  0.2284
 2013DPPC   C3B45851  13.093   7.311  18.042 -0.0038 -0.0002 -0.2058
 2013DPPC   C4B45852  13.354   7.108  18.286 -0.0946 -0.0888  0.0065
 2014DPPC   NC345853  22.635  19.985  24.671 -0.1289 -0.0909 -0.2661
 2014DPPC   PO445854  22.504  19.538  24.639  0.1030  0.0259 -0.3696
 2014DPPC   GL145855  22.099  19.157  24.482 -0.2423 -0.1939  0.1629
 2014DPPC   GL245856  21.876  18.897  24.319  0.1365  0.0730  0.0114
 2014DPPC   C1A45857  21.751  18.958  24.787 -0.1511  0.1714  0.2963
 2014DPPC   C2A45858  21.590  18.517  24.963  0.0268 -0.1986 -0.2971
 2014DPPC   C3A45859  21.416  18.129  25.210  0.2313  0.1400 -0.0183
 2014DPPC   C4A45860  21.070  18.277  25.477  0.2205 -0.5554 -0.0448
 2014DPPC   C1B45861  21.533  18.679  24.405 -0.6587  0.4611 -0.0691
 2014DPPC   C2B45862  21.133  18.610  24.619  0.2625  0.0083  0.0020
 2014DPPC   C3B45863  21.085  18.297  24.883 -0.1281 -0.3324  0.4372
 2014DPPC   C4B45864  20.976  17.879  24.847  0.4005 -0.0496 -0.2024
 2015DPPC   NC345865  20.677  22.764  31.989  0.1111 -0.0714 -0.3231
 2015DPPC   PO445866  20.556  22.950  31.672 -0.2397  0.2096 -0.0893
 2015DPPC   GL145867  20.149  22.716  31.885  0.0581 -0.1498  0.2962
 2015DPPC   GL245868  19.808  22.762  32.048  0.0070 -0.2113 -0.1955
 2015DPPC   C1A45869  19.932  22.301  31.953 -0.1936  0.1446  0.2301
 2015DPPC   C2A45870  19.576  22.039  31.956 -0.0718  0.0337 -0.0185
 2015DPPC   C3A45871  19.397  21.745  32.146  0.1829  0.0147 -0.0257
 2015DPPC   C4A45872  19.159  21.462  32.017  0.3039  0.0024 -0.2781
 2015DPPC   C1B45873  19.401  22.545  32.062 -0.1835  0.2508  0.3515
 2015DPPC   C2B45874  19.258  22.331  31.737 -0.0021 -0.0359  0.3460
 2015DPPC   C3B45875  19.224  22.181  31.355 -0.2802  0.0612 -0.3047
 2015DPPC   C4B45876  18.899  22.110  31.153  0.1249 -0.1259 -0.1555
 2016DPPC   NC345877  16.851   1.958  21.840 -0.6640  0.1101  0.0929
 2016DPPC   PO445878  16.700   1.834  21.532 -0.0691 -0.1908  0.1977
 2016DPPC   GL145879  16.349   1.957  21.828 -0.0056 -0.2613 -0.0442
 2016DPPC   GL245880  16.120   1.926  22.127 -0.0910  0.0798 -0.2042
 2016DPPC   C1A45881  16.256   2.372  21.916  0.0987  0.1879  0.0204
 2016DPPC   C2A45882  16.379   2.769  21.885  0.2478 -0.0373 -0.4441
 2016DPPC   C3A45883  16.192   3.103  21.912  0.0696 -0.0232 -0.4450
 2016DPPC   C4A45884  16.276   3.483  22.123  0.3096  0.0068  0.1439
 2016DPPC   C1B45885  16.077   2.346  22.421 -0.1246 -0.0470  0.2275
 2016DPPC   C2B45886  16.123   2.719  22.277 -0.1934 -0.0778  0.3406
 2016DPPC   C3B45887  16.125   3.122  22.534 -0.1444  0.0916 -0.0304
 2016DPPC   C4B45888  16.402   3.412  22.674 -0.1770  0.3104  0.1584
 2017DPPC   NC345889  19.059  10.572  26.343  0.0023  0.1222  0.0527
 2017DPPC   PO445890  19.065  10.753  25.870  0.1191 -0.0355 -0.4257
 2017DPPC   GL145891  18.689  10.909  25.965 -0.2468  0.3669  0.1593
 2017DPPC   GL245892  18.767  11.095  25.640 -0.0753 -0.1698 -0.0006
 2017DPPC   C1A45893  18.309  11.069  25.929  0.2677 -0.0502  0.1501
 2017DPPC   C2A45894  18.051  11.397  26.128 -0.0110  0.3371 -0.3418
 2017DPPC   C3A45895  17.855  11.454  26.559 -0.4123  0.1115 -0.1262
 2017DPPC   C4A45896  17.757  11.685  26.807  0.0326  0.2532  0.0943
 2017DPPC   C1B45897  18.475  11.356  25.491 -0.0570  0.0963 -0.2935
 2017DPPC   C2B45898  18.057  11.546  25.637 -0.2909 -0.0448 -0.2152
 2017DPPC   C3B45899  17.836  11.830  25.898  0.1512 -0.1504 -0.0706
 2017DPPC   C4B45900  18.146  11.959  26.191 -0.0265 -0.1019 -0.0243
 2018DPPC   NC345901  20.509   9.338  37.725 -0.2244 -0.2547 -0.2522
 2018DPPC   PO445902  20.163   9.432  37.997  0.1003  0.1825 -0.1360
 2018DPPC   GL145903  20.356   9.169  38.353  0.1082 -0.1373  0.1025
 2018DPPC   GL245904  20.376   8.817  38.408  0.0455  0.1670 -0.0157
 2018DPPC   C1A45905  20.312   9.214  38.701 -0.1678 -0.0252 -0.1307
 2018DPPC   C2A45906  20.628   9.243  39.039 -0.2043 -0.3999 -0.0781
 2018DPPC   C3A45907  20.825   9.262  39.432  0.3034  0.0488 -0.2511
 2018DPPC   C4A45908  20.893   9.255  39.845  0.0950  0.0447 -0.1167
 2018DPPC   C1B45909  20.592   8.687  38.830 -0.0834 -0.0694  0.0962
 2018DPPC   C2B45910  20.449   8.190  39.092  0.1389  0.2725 -0.0774
 2018DPPC   C3B45911  20.350   7.974  39.433 -0.0447  0.0862  0.2727
 2018DPPC   C4B45912  20.300   7.653  39.762  0.2409  0.2108 -0.2110
 2019DPPC   NC345913   4.404   7.779  28.769  0.1921 -0.1545 -0.0633
 2019DPPC   PO445914   4.327   8.237  28.723  0.0703 -0.1338  0.1813
 2019DPPC   GL145915   4.694   8.256  28.983  0.2451  0.0810 -0.0563
 2019DPPC   GL245916   4.862   7.923  29.001 -0.0536  0.1103 -0.1319
 2019DPPC   C1A45917   5.056   8.624  28.962 -0.0278 -0.1091 -0.2695
 2019DPPC   C2A45918   5.268   8.905  29.105 -0.2198  0.2144 -0.4749
 2019DPPC   C3A45919   5.577   9.140  29.227  0.0758  0.2819  0.1959
 2019DPPC   C4A45920   5.587   9.585  29.247  0.1561  0.1266 -0.0784
 2019DPPC   C1B45921   5.267   7.725  28.787  0.0913  0.2594 -0.0914
 2019DPPC   C2B45922   5.628   7.637  28.576  0.0613  0.1404 -0.4396
 2019DPPC   C3B45923   6.053   7.680  28.467  0.1570 -0.0006 -0.1178
 2019DPPC   C4B45924   6.391   7.996  28.556 -0.0063 -0.0666  0.0687
 2020DPPC   NC345925  15.471  12.334  40.020 -0.2175 -0.1035  0.0669
 2020DPPC   PO445926  15.863  12.447  39.882  0.2209  0.2149  0.0305
 2020DPPC   GL145927  15.881  12.431  40.400 -0.1716  0.2589  0.0292
 2020DPPC   GL245928  16.112  12.207  40.630  0.0585  0.0234 -0.0816
 2020DPPC   C1A45929  15.655  12.559  40.871 -0.2749  0.0091 -0.0487
 2020DPPC   C2A45930  15.707  12.585  41.273  0.6273  0.1812  0.2076
 2020DPPC   C3A45931  15.549  12.463  41.713 -0.0842  0.2791 -0.4513
 2020DPPC   C4A45932  15.237  12.268  41.982 -0.2221 -0.0466 -0.0092
 2020DPPC   C1B45933  16.408  12.235  40.979  0.2293  0.2656  0.1501
 2020DPPC   C2B45934  16.587  12.348  41.398  0.1018  0.0349 -0.0659
 2020DPPC   C3B45935  16.718  12.581  41.710  0.0153 -0.0437  0.0060
 2020DPPC   C4B45936  16.411  12.657  42.062 -0.0740 -0.1069  0.0057
 2021DPPC   NC345937  15.521   4.850  31.911  0.2999  0.0810 -0.1869
 2021DPPC   PO445938  15.450   4.585  32.365  0.0023 -0.1228 -0.2440
 2021DPPC   GL145939  15.409   4.351  32.716 -0.0939 -0.0485  0.0396
 2021DPPC   GL245940  15.315   4.409  33.112  0.2205  0.1662  0.3700
 2021DPPC   C1A45941  15.368   3.864  32.757 -0.1706 -0.1980 -0.2664
 2021DPPC   C2A45942  15.548   3.672  33.038  0.0941 -0.1809 -0.0027
 2021DPPC   C3A45943  15.659   3.291  33.144 -0.1729  0.1275 -0.2555
 2021DPPC   C4A45944  15.665   2.881  33.377 -0.2784  0.4327 -0.0878
 2021DPPC   C1B45945  15.055   4.010  33.050  0.0615 -0.0018  0.0336
 2021DPPC   C2B45946  15.026   3.523  33.258  0.0390  0.0189 -0.1127
 2021DPPC   C3B45947  15.175   3.109  33.457  0.1670  0.0785  0.2841
 2021DPPC   C4B45948  15.145   2.680  33.241  0.3435 -0.2727 -0.2405
 2022DPPC   NC345949  18.204  24.419  35.655  0.0404  0.1861  0.1535
 2022DPPC   PO445950  18.285  23.947  35.730  0.3255  0.1491 -0.0650
 2022DPPC   GL145951  18.407  23.430  35.693  0.1749  0.1664 -0.1320
 2022DPPC   GL245952  18.678  23.361  35.500  0.0879 -0.1189 -0.0505
 2022DPPC   C1A45953  18.027  23.033  35.604  0.2172 -0.1661  0.2506
 2022DPPC   C2A45954  17.804  22.691  35.489 -0.0990  0.0552  0.5531
 2022DPPC   C3A45955  17.336  22.414  35.347  0.2899 -0.1549 -0.3274
 2022DPPC   C4A45956  17.065  22.147  35.032  0.2189  0.2403 -0.0039
 2022DPPC   C1B45957  18.467  23.116  35.129  0.1950 -0.0802 -0.1098
 2022DPPC   C2B45958  18.251  22.809  35.202 -0.1278 -0.1727  0.2091
 2022DPPC   C3B45959  18.131  22.400  35.294 -0.0215  0.1904  0.0936
 2022DPPC   C4B45960  18.061  21.951  35.378  0.1587 -0.0990  0.3366
 2023DPPC   NC345961  10.799  19.859  31.949  0.3207 -0.1101  0.1926
 2023DPPC   PO445962  10.395  20.188  32.033 -0.0840 -0.0129 -0.0591
 2023DPPC   GL145963  10.202  20.586  31.890  0.1534 -0.0486  0.0556
 2023DPPC   GL245964  10.373  20.610  31.569  0.0936 -0.0262 -0.1268
 2023DPPC   C1A45965  10.028  20.916  31.906 -0.1869  0.0240 -0.1022
 2023DPPC   C2A45966   9.936  21.370  31.713 -0.1458 -0.4537 -0.0958
 2023DPPC   C3A45967   9.927  21.794  31.618  0.2451 -0.1973  0.3426
 2023DPPC   C4A45968   9.872  22.197  31.384 -0.0644 -0.2412 -0.0049
 2023DPPC   C1B45969  10.283  20.988  31.488 -0.1778  0.0501  0.0812
 2023DPPC   C2B45970  10.318  21.447  31.408 -0.5452 -0.2052  0.0727
 2023DPPC   C3B45971  10.347  21.922  31.308 -0.0672  0.1506 -0.2299
 2023DPPC   C4B45972  10.746  22.166  31.301 -0.0594  0.1217  0.3681
 2024DPPC   NC345973  24.567  19.849  31.181  0.0423 -0.1347  0.2020
 2024DPPC   PO445974  24.903  19.663  31.455  0.1154  0.2266 -0.3200
 2024DPPC   GL145975  24.632  19.394  31.525  0.1468  0.0979 -0.0475
 2024DPPC   GL245976  24.291  19.620  31.525  0.2531  0.0530 -0.0134
 2024DPPC   C1A45977  24.334  19.104  31.767  0.0868  0.0369 -0.1861
 2024DPPC   C2A45978  24.028  18.971  31.962 -0.1015 -0.3082  0.0941
 2024DPPC   C3A45979  23.738  18.645  31.998  0.1851  0.1176  0.0871
 2024DPPC   C4A45980  23.454  18.543  32.072 -0.0402 -0.0555 -0.1655
 2024DPPC   C1B45981  23.898  19.442  31.520 -0.1926  0.1689  0.0753
 2024DPPC   C2B45982  23.627  19.303  31.209 -0.1369 -0.2253 -0.2947
 2024DPPC   C3B45983  23.199  19.236  31.255 -0.0776 -0.3415 -0.0217
 2024DPPC   C4B45984  22.899  19.268  31.547 -0.3129 -0.3569  0.1631
 2025DPPC   NC345985  19.094  12.739  14.641  0.2490 -0.1888 -0.0198
 2025DPPC   PO445986  19.538  12.905  14.710  0.0679  0.0920  0.1434
 2025DPPC   GL145987  19.215  12.889  15.081 -0.1978  0.2585  0.2642
 2025DPPC   GL245988  19.289  13.046  15.372  0.2980  0.1771 -0.0825
 2025DPPC   C1A45989  18.788  12.820  15.371  0.1957  0.0361 -0.0249
 2025DPPC   C2A45990  18.388  12.615  15.470  0.0362 -0.0820 -0.1620
 2025DPPC   C3A45991  18.028  12.425  15.396  0.3096  0.0550 -0.4604
 2025DPPC   C4A45992  17.575  12.291  15.463  0.1468  0.2497 -0.2931
 2025DPPC   C1B45993  19.199  13.017  15.772 -0.2637  0.1894 -0.2379
 2025DPPC   C2B45994  19.210  12.939  16.227  0.2651  0.3276 -0.0294
 2025DPPC   C3B45995  19.078  12.736  16.647 -0.0704 -0.0547  0.1756
 2025DPPC   C4B45996  18.813  12.852  17.036 -0.0124  0.2582 -0.0693
 2026DPPC   NC345997  13.848  20.763  33.052 -0.0767  0.1371  0.3146
 2026DPPC   PO445998  13.832  20.815  32.597 -0.0234  0.0807 -0.1437
 2026DPPC   GL145999  14.047  21.213  32.580 -0.1079 -0.2378  0.1161
 2026DPPC   GL246000  14.090  21.403  32.377  0.2506 -0.3406 -0.1033
 2026DPPC   C1A46001  14.086  21.535  32.868 -0.0327 -0.0815  0.0252
 2026DPPC   C2A46002  14.211  21.907  32.938  0.2357  0.0168 -0.2157
 2026DPPC   C3A46003  14.231  22.261  32.785  0.2368 -0.3138 -0.0803
 2026DPPC   C4A46004  14.627  22.537  32.903 -0.2366 -0.3060 -0.2456
 2026DPPC   C1B46005  14.081  21.868  32.415 -0.1744  0.0427 -0.3261
 2026DPPC   C2B46006  14.211  22.207  32.295 -0.1482 -0.1316 -0.0915
 2026DPPC   C3B46007  14.116  22.532  31.890  0.1424 -0.3205 -0.1880
 2026DPPC   C4B46008  14.003  22.916  31.683  0.0827 -0.0722 -0.1185
 2027DPPC   NC346009  26.806  10.943  36.800  0.0576  0.6442  0.2425
 2027DPPC   PO446010  26.779  10.991  36.462 -0.4362 -0.0214 -0.1139
 2027DPPC   GL146011  26.533  10.794  36.276  0.1075 -0.1424  0.0648
 2027DPPC   GL246012  26.486  10.613  36.027 -0.2845 -0.1436  0.1792
 2027DPPC   C1A46013  26.052  10.834  36.111  0.0902  0.2431  0.1913
 2027DPPC   C2A46014  25.750  11.019  35.816  0.2142  0.1630 -0.1986
 2027DPPC   C3A46015  25.314  11.105  35.795  0.1058 -0.3123  0.1012
 2027DPPC   C4A46016  24.981  11.037  35.878 -0.0468  0.0139 -0.0429
 2027DPPC   C1B46017  26.218  10.767  35.625 -0.2398 -0.0547  0.3144
 2027DPPC   C2B46018  25.838  10.652  35.497 -0.1741  0.0451 -0.2417
 2027DPPC   C3B46019  25.528  10.565  35.288  0.2446  0.0462  0.4667
 2027DPPC   C4B46020  25.342  10.583  34.928 -0.0876 -0.0713 -0.1642
 2028DPPC   NC346021  10.546  15.799  24.132 -0.2517 -0.2285 -0.2549
 2028DPPC   PO446022  10.242  15.677  23.783 -0.2587  0.2228 -0.0193
 2028DPPC   GL146023   9.807  15.732  23.630  0.2790 -0.0634 -0.2586
 2028DPPC   GL246024   9.642  15.613  23.335 -0.1649 -0.1082  0.0800
 2028DPPC   C1A46025   9.487  16.076  23.401  0.3253 -0.1943  0.3426
 2028DPPC   C2A46026   9.179  16.092  23.083  0.1017 -0.0671  0.1259
 2028DPPC   C3A46027   8.933  15.932  22.711 -0.1475 -0.0963 -0.2242
 2028DPPC   C4A46028   8.675  16.326  22.430 -0.2019  0.3090 -0.3992
 2028DPPC   C1B46029   9.180  15.615  23.262 -0.1422  0.2020 -0.2391
 2028DPPC   C2B46030   8.787  15.481  23.056 -0.1647 -0.1728  0.2224
 2028DPPC   C3B46031   8.392  15.512  22.811  0.3216 -0.1807 -0.2421
 2028DPPC   C4B46032   8.349  15.898  22.515 -0.1488  0.1038 -0.0076
 2029DPPC   NC346033  16.119  13.383  27.834  0.1439  0.2521 -0.4102
 2029DPPC   PO446034  16.115  12.901  27.856  0.0635  0.1756 -0.1428
 2029DPPC   GL146035  16.202  12.821  27.472 -0.2628 -0.0996  0.0166
 2029DPPC   GL246036  15.936  12.653  27.403  0.0663  0.2415  0.1458
 2029DPPC   C1A46037  16.340  13.017  27.039 -0.1612 -0.1277 -0.0046
 2029DPPC   C2A46038  16.397  13.259  26.606  0.4047 -0.3370 -0.0009
 2029DPPC   C3A46039  16.185  13.226  26.196  0.1536 -0.1202  0.2477
 2029DPPC   C4A46040  16.125  13.082  25.765 -0.2799 -0.2135 -0.2333
 2029DPPC   C1B46041  15.971  12.698  26.971  0.0716 -0.2806 -0.0172
 2029DPPC   C2B46042  16.013  12.896  26.569 -0.0781  0.1878 -0.0967
 2029DPPC   C3B46043  15.995  12.717  26.135 -0.0567 -0.0150 -0.2064
 2029DPPC   C4B46044  15.843  12.540  25.742 -0.0277 -0.2505  0.4250
 2030DPPC   NC346045  18.597  15.068  38.785 -0.1588  0.1052  0.3449
 2030DPPC   PO446046  18.986  14.953  38.689  0.0963  0.0556  0.1887
 2030DPPC   GL146047  19.276  15.175  38.792 -0.1538  0.0004 -0.1092
 2030DPPC   GL246048  19.438  15.044  39.013  0.0490  0.0494  0.1499
 2030DPPC   C1A46049  19.485  15.473  39.106  0.2323 -0.1922 -0.1212
 2030DPPC   C2A46050  19.737  15.484  39.525  0.0076 -0.3285  0.0493
 2030DPPC   C3A46051  19.872  15.685  39.880  0.1754  0.0634  0.0000
 2030DPPC   C4A46052  20.147  15.895  40.217  0.0982 -0.2652  0.2228
 2030DPPC   C1B46053  19.465  15.060  39.454 -0.0381  0.0331 -0.2247
 2030DPPC   C2B46054  19.410  15.186  39.795  0.3238 -0.0968 -0.0354
 2030DPPC   C3B46055  19.528  15.311  40.174 -0.2938  0.1912  0.0521
 2030DPPC   C4B46056  19.937  15.196  40.318 -0.2398 -0.2308 -0.0670
 2031DPPC   NC346057  20.679  20.697  20.043  0.1835  0.0911  0.0728
 2031DPPC   PO446058  20.465  21.094  20.141 -0.4077  0.0399  0.1551
 2031DPPC   GL146059  20.247  20.917  20.432 -0.0095  0.0043 -0.0444
 2031DPPC   GL246060  20.178  20.986  20.811 -0.0288 -0.0141  0.1053
 2031DPPC   C1A46061  19.786  20.693  20.614  0.4657  0.1429 -0.0093
 2031DPPC   C2A46062  19.411  20.625  20.664  0.3405 -0.1593 -0.0976
 2031DPPC   C3A46063  19.047  20.636  20.791  0.2469  0.1491  0.1127
 2031DPPC   C4A46064  18.754  20.460  20.962  0.1492 -0.2223  0.0533
 2031DPPC   C1B46065  19.816  20.824  21.074 -0.3541  0.3321  0.1707
 2031DPPC   C2B46066  19.549  20.796  21.514 -0.5372 -0.0041  0.0884
 2031DPPC   C3B46067  19.332  20.566  21.695  0.1341  0.0205  0.1956
 2031DPPC   C4B46068  19.101  20.554  22.119 -0.1262 -0.0438 -0.0253
 2032DPPC   NC346069  17.376   0.924  35.191 -0.2283 -0.3222 -0.0764
 2032DPPC   PO446070  17.268   0.944  34.806 -0.0476 -0.1521 -0.0389
 2032DPPC   GL146071  17.558   1.309  34.969  0.0388  0.1870 -0.1025
 2032DPPC   GL246072  17.671   1.348  35.257  0.1224 -0.3105  0.0395
 2032DPPC   C1A46073  17.396   1.760  35.004 -0.3665 -0.1061 -0.0389
 2032DPPC   C2A46074  17.296   2.129  34.825 -0.2379  0.1008 -0.3486
 2032DPPC   C3A46075  16.977   2.525  34.713 -0.0283 -0.0982 -0.0825
 2032DPPC   C4A46076  16.843   2.588  34.359  0.3049 -0.0261 -0.1293
 2032DPPC   C1B46077  17.754   1.856  35.316  0.0695  0.0542  0.1038
 2032DPPC   C2B46078  17.710   2.301  35.155  0.1364 -0.1082  0.1652
 2032DPPC   C3B46079  17.574   2.620  34.819 -0.1382 -0.5859 -0.1634
 2032DPPC   C4B46080  17.355   2.878  34.613 -0.1665 -0.1341 -0.1400
 2033DPPC   NC346081   5.044   6.071  31.293 -0.3077  0.1368  0.2477
 2033DPPC   PO446082   5.384   5.948  31.394 -0.0576  0.0580 -0.2337
 2033DPPC   GL146083   5.462   6.322  31.314  0.1593 -0.0526 -0.0818
 2033DPPC   GL246084   5.251   6.562  31.554  0.1455  0.1429 -0.2343
 2033DPPC   C1A46085   5.785   6.470  31.177 -0.0912  0.1767  0.2636
 2033DPPC   C2A46086   6.139   6.520  30.888 -0.0611  0.0356 -0.0428
 2033DPPC   C3A46087   6.443   6.311  30.908 -0.2157  0.0200 -0.0760
 2033DPPC   C4A46088   6.852   6.449  31.126 -0.2305 -0.1479  0.3974
 2033DPPC   C1B46089   5.472   6.841  31.315 -0.1519 -0.1754 -0.0038
 2033DPPC   C2B46090   5.771   6.973  31.082 -0.1121 -0.1110 -0.3788
 2033DPPC   C3B46091   6.056   7.033  31.090 -0.3474  0.0877  0.1039
 2033DPPC   C4B46092   6.421   7.367  31.214 -0.3280  0.2504  0.0171
 2034DPPC   NC346093  15.902  17.386  21.276 -0.0014  0.0112 -0.0335
 2034DPPC   PO446094  15.695  17.604  20.966 -0.2629  0.1560  0.1729
 2034DPPC   GL146095  15.437  17.837  20.652 -0.0641 -0.4079  0.0506
 2034DPPC   GL246096  15.475  17.721  20.380  0.0053  0.0489 -0.0812
 2034DPPC   C1A46097  15.338  18.183  20.421 -0.4073 -0.0281 -0.3240
 2034DPPC   C2A46098  15.050  18.578  20.497 -0.0847 -0.1760  0.1432
 2034DPPC   C3A46099  14.908  18.941  20.217 -0.0146  0.0732  0.2233
 2034DPPC   C4A46100  15.162  18.909  19.910  0.1537 -0.2334  0.1164
 2034DPPC   C1B46101  15.754  18.017  20.138 -0.0053 -0.2848  0.1970
 2034DPPC   C2B46102  15.974  18.362  19.982 -0.0997 -0.1056 -0.1714
 2034DPPC   C3B46103  16.248  18.594  19.654  0.0151  0.0846  0.0967
 2034DPPC   C4B46104  16.283  18.594  19.223  0.2088  0.0900  0.2729
 2035DPPC   NC346105  23.601  12.864  34.367 -0.1658 -0.0401  0.3274
 2035DPPC   PO446106  23.617  12.624  34.799  0.0103 -0.0587 -0.0306
 2035DPPC   GL146107  23.916  12.758  34.811  0.1134  0.0680  0.1656
 2035DPPC   GL246108  23.916  13.143  34.708 -0.2089 -0.1152 -0.1010
 2035DPPC   C1A46109  24.253  12.893  35.000 -0.3078 -0.0050  0.1032
 2035DPPC   C2A46110  24.703  12.837  35.222  0.0602  0.1894  0.0086
 2035DPPC   C3A46111  25.025  13.138  35.317 -0.0139 -0.4458  0.0392
 2035DPPC   C4A46112  25.510  13.135  35.271 -0.1304  0.4644 -0.2585
 2035DPPC   C1B46113  24.224  12.958  34.483 -0.6264 -0.0122  0.0840
 2035DPPC   C2B46114  24.662  13.010  34.384 -0.2127 -0.0318 -0.0123
 2035DPPC   C3B46115  24.986  12.990  34.317  0.0822  0.0799  0.2147
 2035DPPC   C4B46116  25.410  12.739  34.250  0.1740  0.2831 -0.0231
 2036DPPC   NC346117  14.451  13.863  39.807 -0.2259  0.0342  0.1803
 2036DPPC   PO446118  14.374  14.276  39.621  0.1584  0.0877 -0.3078
 2036DPPC   GL146119  14.163  14.149  40.011  0.0944 -0.0613  0.1109
 2036DPPC   GL246120  14.273  13.799  40.309  0.1921 -0.0726 -0.1362
 2036DPPC   C1A46121  13.844  14.353  40.250 -0.2690 -0.3120  0.0658
 2036DPPC   C2A46122  13.877  14.484  40.621  0.0531  0.0058 -0.1327
 2036DPPC   C3A46123  13.530  14.576  40.926 -0.2578 -0.0474 -0.0734
 2036DPPC   C4A46124  13.179  14.433  41.164  0.1876 -0.3808  0.2262
 2036DPPC   C1B46125  14.237  14.036  40.617 -0.3121  0.1743  0.0811
 2036DPPC   C2B46126  14.326  14.280  40.939 -0.0111 -0.0189 -0.1716
 2036DPPC   C3B46127  14.631  14.539  41.045  0.1211 -0.0928  0.3012
 2036DPPC   C4B46128  14.845  14.875  41.247 -0.0932  0.0177 -0.1778
 2037DPPC   NC346129  14.933  25.516  29.304 -0.0126  0.0368  0.1608
 2037DPPC   PO446130  14.802  25.212  29.006  0.1075  0.0598 -0.4416
 2037DPPC   GL146131  14.833  24.741  28.767 -0.1774 -0.1379  0.1521
 2037DPPC   GL246132  14.510  24.630  28.702  0.0081  0.0981  0.1074
 2037DPPC   C1A46133  14.877  24.433  28.443 -0.2299  0.0725 -0.1469
 2037DPPC   C2A46134  14.912  24.134  28.107 -0.0297  0.2999  0.0244
 2037DPPC   C3A46135  15.242  23.850  28.116 -0.0550  0.1648 -0.2067
 2037DPPC   C4A46136  15.494  23.544  28.302  0.0423 -0.0114 -0.1262
 2037DPPC   C1B46137  14.636  24.204  28.840 -0.2639 -0.2803 -0.1869
 2037DPPC   C2B46138  14.581  23.668  28.909  0.0121 -0.0739 -0.2444
 2037DPPC   C3B46139  14.773  23.310  28.968  0.0021 -0.3001 -0.1079
 2037DPPC   C4B46140  15.012  23.058  28.775  0.0502 -0.2079 -0.0206
 2038DPPC   NC346141  26.260   9.894  20.918  0.0913 -0.2243  0.4411
 2038DPPC   PO446142  26.160  10.181  21.173 -0.2259  0.1986  0.2113
 2038DPPC   GL146143  25.802  10.280  21.323 -0.1298  0.0994 -0.1647
 2038DPPC   GL246144  25.858  10.236  21.604  0.1420 -0.0356  0.0008
 2038DPPC   C1A46145  25.317  10.400  21.523 -0.2757  0.0528 -0.2122
 2038DPPC   C2A46146  24.965  10.482  21.803  0.1420  0.0111  0.2161
 2038DPPC   C3A46147  24.517  10.620  21.841 -0.2618  0.1566 -0.0828
 2038DPPC   C4A46148  24.276  10.820  21.936 -0.0454 -0.2063 -0.0195
 2038DPPC   C1B46149  25.725  10.616  21.773  0.0767 -0.0817 -0.1073
 2038DPPC   C2B46150  25.336  10.766  21.948 -0.0065 -0.5042  0.0128
 2038DPPC   C3B46151  24.866  10.954  22.073  0.1141  0.5026 -0.3754
 2038DPPC   C4B46152  24.449  11.253  22.132 -0.1660  0.0614  0.1628
 2039DPPC   NC346153  11.339  10.515  38.136 -0.2258  0.0259 -0.0730
 2039DPPC   PO446154  11.795  10.458  38.109 -0.0536  0.2235  0.1294
 2039DPPC   GL146155  11.626  10.263  38.552 -0.0912  0.0758  0.2350
 2039DPPC   GL246156  11.287  10.313  38.631 -0.1922 -0.0380  0.3630
 2039DPPC   C1A46157  11.621  10.076  38.935 -0.1922 -0.1821  0.1535
 2039DPPC   C2A46158  11.546   9.831  39.291  0.3792 -0.0852  0.1102
 2039DPPC   C3A46159  11.491   9.585  39.620 -0.1515  0.1050  0.3432
 2039DPPC   C4A46160  11.323   9.205  39.522  0.2129  0.1889  0.3967
 2039DPPC   C1B46161  10.985   9.961  38.785 -0.0143  0.1100  0.2831
 2039DPPC   C2B46162  10.705   9.816  39.065  0.0512  0.0247  0.0345
 2039DPPC   C3B46163  10.559   9.558  39.393 -0.1289 -0.0124 -0.1741
 2039DPPC   C4B46164  10.351   9.584  39.774  0.1753 -0.1557  0.3810
 2040DPPC   NC346165   0.241  10.603  25.416  0.3287  0.1187  0.1225
 2040DPPC   PO446166   0.111  11.036  25.558 -0.3063  0.2341 -0.1063
 2040DPPC   GL146167  26.755  11.149  25.815 -0.0569  0.0834 -0.2106
 2040DPPC   GL246168  26.740  11.319  26.188 -0.0394 -0.3090  0.0571
 2040DPPC   C1A46169  26.381  10.961  26.079  0.1340 -0.1317 -0.0265
 2040DPPC   C2A46170  26.054  10.818  26.081  0.1261  0.0292  0.1469
 2040DPPC   C3A46171  25.743  10.994  26.246  0.2390  0.0038 -0.0403
 2040DPPC   C4A46172  25.538  10.659  26.516 -0.2320  0.0071 -0.2350
 2040DPPC   C1B46173  26.664  10.923  26.527 -0.2028 -0.3446 -0.0988
 2040DPPC   C2B46174  26.496  10.540  26.393  0.0097 -0.0440 -0.0231
 2040DPPC   C3B46175  26.027  10.343  26.404 -0.0506 -0.3769  0.3267
 2040DPPC   C4B46176  25.721  10.187  26.477 -0.0792  0.1575  0.0814
 2041DPPC   NC346177  15.922  11.499  40.185  0.2538 -0.0414 -0.3312
 2041DPPC   PO446178  15.616  11.266  39.994  0.0710  0.1189 -0.2749
 2041DPPC   GL146179  15.443  11.363  40.404 -0.1232 -0.0173 -0.1348
 2041DPPC   GL246180  15.239  11.126  40.450 -0.1339 -0.2150 -0.0388
 2041DPPC   C1A46181  15.407  11.482  40.830  0.1237 -0.0796 -0.1697
 2041DPPC   C2A46182  15.638  11.679  41.197 -0.2104  0.0208  0.0219
 2041DPPC   C3A46183  15.458  11.807  41.618  0.1113 -0.3570 -0.0348
 2041DPPC   C4A46184  15.315  11.651  41.988  0.1012  0.0875  0.0640
 2041DPPC   C1B46185  15.247  11.025  40.908  0.1808 -0.0809 -0.0119
 2041DPPC   C2B46186  15.375  11.249  41.278 -0.0748  0.2872 -0.1129
 2041DPPC   C3B46187  15.622  11.302  41.623 -0.0033 -0.3972  0.0561
 2041DPPC   C4B46188  15.828  11.609  41.922  0.1266  0.0480  0.0028
 2042DPPC   NC346189  26.633   9.107  22.655 -0.1005 -0.1478  0.0956
 2042DPPC   PO446190  26.620   9.128  22.304 -0.5139 -0.0968  0.2093
 2042DPPC   GL146191  26.180   9.057  22.234 -0.1090 -0.0642  0.1175
 2042DPPC   GL246192  26.040   9.122  22.519 -0.1364 -0.2621  0.1658
 2042DPPC   C1A46193  25.767   9.050  22.031 -0.1177  0.2282  0.0221
 2042DPPC   C2A46194  25.425   8.941  21.864  0.1685 -0.1361  0.0970
 2042DPPC   C3A46195  25.049   9.159  21.808 -0.2499  0.1536  0.0492
 2042DPPC   C4A46196  24.692   9.023  22.075  0.0267 -0.0661 -0.4319
 2042DPPC   C1B46197  25.637   9.247  22.514 -0.1032  0.1448 -0.1537
 2042DPPC   C2B46198  25.270   9.039  22.503  0.0233  0.1452  0.0890
 2042DPPC   C3B46199  25.048   8.734  22.185 -0.1353 -0.0632 -0.2903
 2042DPPC   C4B46200  24.893   8.686  21.761 -0.2492  0.0238 -0.1544
 2043DPPC   NC346201  10.004  11.540  18.178 -0.1207 -0.0343 -0.0138
 2043DPPC   PO446202   9.730  11.830  18.063  0.1569  0.0189 -0.2877
 2043DPPC   GL146203   9.927  12.023  18.473  0.0005  0.2667 -0.2066
 2043DPPC   GL246204   9.645  11.834  18.651  0.0691 -0.0877  0.2620
 2043DPPC   C1A46205   9.992  12.241  18.842  0.0280 -0.0758  0.2677
 2043DPPC   C2A46206   9.956  12.366  19.292 -0.0754  0.0143 -0.1019
 2043DPPC   C3A46207  10.351  12.379  19.674  0.2510  0.2802  0.1843
 2043DPPC   C4A46208  10.559  12.683  19.929 -0.1316 -0.0369  0.4875
 2043DPPC   C1B46209  10.115  11.672  18.798  0.1549  0.1025  0.3757
 2043DPPC   C2B46210  10.594  11.574  18.866 -0.2590 -0.0432 -0.2209
 2043DPPC   C3B46211  11.007  11.720  19.165 -0.2313 -0.2582  0.0679
 2043DPPC   C4B46212  11.231  11.785  19.612 -0.2518  0.1959 -0.1512
 2044DPPC   NC346213  23.357   9.746  17.127  0.3273 -0.2512  0.0126
 2044DPPC   PO446214  23.803   9.756  17.243 -0.0490  0.4483 -0.1906
 2044DPPC   GL146215  23.571   9.629  17.645 -0.0139 -0.1689  0.0178
 2044DPPC   GL246216  23.519   9.176  17.759 -0.3599 -0.0443 -0.1206
 2044DPPC   C1A46217  23.426   9.650  17.929  0.1083  0.0831  0.1447
 2044DPPC   C2A46218  23.221   9.907  18.066 -0.0382 -0.0579  0.1252
 2044DPPC   C3A46219  23.210  10.173  18.536  0.0086 -0.1050  0.3796
 2044DPPC   C4A46220  23.010  10.507  18.665 -0.0424  0.1312  0.1029
 2044DPPC   C1B46221  23.178   9.221  18.029  0.3616  0.1584 -0.0191
 2044DPPC   C2B46222  22.948   9.388  18.219  0.2916  0.0538 -0.0692
 2044DPPC   C3B46223  22.849   9.829  18.390  0.1373 -0.1545  0.2916
 2044DPPC   C4B46224  22.651  10.195  18.544  0.2268 -0.0460 -0.5120
 2045DPPC   NC346225  15.047   7.114  17.113 -0.1192 -0.0169 -0.0576
 2045DPPC   PO446226  14.778   6.898  17.370 -0.0193 -0.1097  0.0439
 2045DPPC   GL146227  14.660   7.241  17.661 -0.1263  0.1698  0.0606
 2045DPPC   GL246228  14.834   7.464  17.467 -0.0959  0.1365  0.2297
 2045DPPC   C1A46229  14.821   7.356  18.017 -0.0634  0.0997  0.0775
 2045DPPC   C2A46230  14.910   7.647  18.279 -0.0418  0.2489 -0.0909
 2045DPPC   C3A46231  15.362   7.765  18.461  0.3244  0.1301 -0.0549
 2045DPPC   C4A46232  15.630   7.803  18.727 -0.4325 -0.0114 -0.1491
 2045DPPC   C1B46233  15.182   7.671  17.786  0.0374  0.1642  0.0160
 2045DPPC   C2B46234  15.245   8.000  18.067 -0.0383 -0.1198  0.0693
 2045DPPC   C3B46235  15.485   8.278  18.295  0.3296 -0.4007 -0.4971
 2045DPPC   C4B46236  15.538   8.393  18.700 -0.2600 -0.1331  0.0540
 2046DPPC   NC346237  23.351  14.015  33.482 -0.0361  0.0092  0.0579
 2046DPPC   PO446238  23.171  14.206  33.766 -0.2373  0.0726  0.0568
 2046DPPC   GL146239  23.438  14.244  34.154  0.0386 -0.2170  0.2613
 2046DPPC   GL246240  23.364  14.383  34.293 -0.2648  0.1233 -0.3719
 2046DPPC   C1A46241  23.752  14.100  34.443  0.3217  0.0234 -0.0660
 2046DPPC   C2A46242  24.133  14.055  34.632  0.4171  0.0020  0.1603
 2046DPPC   C3A46243  24.480  14.218  34.908  0.2058  0.0299 -0.1304
 2046DPPC   C4A46244  24.799  13.978  35.015  0.3757 -0.0688 -0.2141
 2046DPPC   C1B46245  23.760  14.588  34.276 -0.4144  0.0331 -0.1654
 2046DPPC   C2B46246  24.076  14.431  34.144 -0.2300  0.0173 -0.0875
 2046DPPC   C3B46247  24.562  14.534  34.012 -0.1297  0.0147  0.0241
 2046DPPC   C4B46248  25.005  14.369  34.181  0.0181 -0.1248 -0.2539
 2047DPPC   NC346249  16.988  21.060  40.159 -0.2128  0.1715 -0.2247
 2047DPPC   PO446250  17.137  21.069  39.748 -0.0628  0.0710 -0.0093
 2047DPPC   GL146251  16.963  20.859  39.408 -0.2920 -0.0479  0.0503
 2047DPPC   GL246252  17.029  21.103  39.113  0.3847  0.2074 -0.0631
 2047DPPC   C1A46253  16.770  20.420  39.240 -0.1183  0.0833 -0.3636
 2047DPPC   C2A46254  16.679  20.249  38.877  0.0629 -0.0729 -0.4079
 2047DPPC   C3A46255  16.533  20.031  38.423  0.0665 -0.2348  0.0726
 2047DPPC   C4A46256  16.627  19.861  38.036 -0.1270 -0.0578  0.0665
 2047DPPC   C1B46257  16.943  20.840  38.659  0.2872 -0.3841 -0.2079
 2047DPPC   C2B46258  16.775  20.492  38.419  0.1345 -0.3082 -0.0320
 2047DPPC   C3B46259  16.973  20.333  38.089 -0.2845 -0.2108  0.0435
 2047DPPC   C4B46260  17.048  20.027  37.808 -0.0275 -0.1255  0.0778
 2048DPPC   NC346261   8.023  19.579  21.617 -0.1780  0.3321 -0.1212
 2048DPPC   PO446262   8.175  19.703  22.096  0.0355  0.2471 -0.4223
 2048DPPC   GL146263   8.629  19.603  22.305  0.2415  0.1717  0.1341
 2048DPPC   GL246264   8.928  19.690  22.497  0.1454 -0.2443 -0.1982
 2048DPPC   C1A46265   8.947  19.501  22.051  0.1767  0.3024 -0.1451
 2048DPPC   C2A46266   9.302  19.244  22.101 -0.0599 -0.1001 -0.0001
 2048DPPC   C3A46267   9.589  18.955  21.967 -0.0231  0.2022 -0.0071
 2048DPPC   C4A46268   9.971  18.726  21.993 -0.0542 -0.0239  0.0940
 2048DPPC   C1B46269   9.311  19.349  22.578  0.3570 -0.1348  0.2070
 2048DPPC   C2B46270   9.211  18.880  22.451  0.0952 -0.1380 -0.1180
 2048DPPC   C3B46271   9.034  18.501  22.741  0.0245  0.1120 -0.0560
 2048DPPC   C4B46272   9.164  18.031  22.791  0.3621 -0.0448  0.0755
 2049DPPC   NC346273  24.539  20.329  32.043 -0.0307 -0.3560 -0.0901
 2049DPPC   PO446274  24.122  20.359  32.115 -0.2253 -0.0990  0.2589
 2049DPPC   GL146275  23.835  20.121  32.287  0.1782 -0.1239 -0.1326
 2049DPPC   GL246276  23.499  20.151  32.088  0.3469 -0.0765  0.0698
 2049DPPC   C1A46277  23.732  19.747  32.477 -0.1979 -0.1473 -0.0879
 2049DPPC   C2A46278  23.501  19.298  32.555  0.3451  0.1006 -0.1345
 2049DPPC   C3A46279  23.420  19.029  32.248  0.2049 -0.0290  0.4128
 2049DPPC   C4A46280  23.112  18.934  31.945 -0.0072  0.2274 -0.0503
 2049DPPC   C1B46281  23.044  19.897  32.032 -0.2465 -0.1894  0.0168
 2049DPPC   C2B46282  22.720  19.743  32.165 -0.0223 -0.0771 -0.2191
 2049DPPC   C3B46283  22.346  19.539  32.081  0.0766 -0.0075  0.0970
 2049DPPC   C4B46284  22.103  19.151  32.039 -0.0006 -0.1434 -0.1915
 2050DPPC   NC346285  19.042   6.817  35.991  0.1125 -0.0225  0.1619
 2050DPPC   PO446286  19.254   6.427  35.918  0.1805 -0.0441 -0.4711
 2050DPPC   GL146287  19.471   6.152  36.110 -0.0126 -0.1234  0.2521
 2050DPPC   GL246288  19.318   6.182  36.456  0.2770 -0.0463 -0.0417
 2050DPPC   C1A46289  19.709   5.914  36.322  0.1412  0.0258  0.0360
 2050DPPC   C2A46290  20.056   5.636  36.456  0.0138  0.0059 -0.3492
 2050DPPC   C3A46291  20.457   5.502  36.457 -0.2515 -0.0877 -0.0301
 2050DPPC   C4A46292  20.656   5.226  36.427  0.2559  0.3769 -0.4954
 2050DPPC   C1B46293  19.453   5.867  36.698 -0.2469  0.1970 -0.0168
 2050DPPC   C2B46294  19.443   5.439  36.622 -0.3313 -0.0834 -0.0479
 2050DPPC   C3B46295  19.533   5.060  36.521  0.0935  0.1636 -0.5035
 2050DPPC   C4B46296  19.729   4.607  36.544 -0.1804  0.1634 -0.0820
 2051DPPC   NC346297  11.809   3.660  21.698  0.1483  0.0821 -0.1487
 2051DPPC   PO446298  11.894   4.075  21.459 -0.0981 -0.1099 -0.2527
 2051DPPC   GL146299  12.062   4.315  21.143  0.2244  0.0714  0.1585
 2051DPPC   GL246300  11.814   4.567  21.117 -0.0895  0.0819  0.0710
 2051DPPC   C1A46301  12.267   4.688  21.036  0.0807 -0.1251 -0.0439
 2051DPPC   C2A46302  12.697   4.680  20.806 -0.0783 -0.0164 -0.1737
 2051DPPC   C3A46303  12.956   5.041  20.722 -0.0497  0.0975  0.0167
 2051DPPC   C4A46304  13.280   5.087  20.338  0.2018 -0.1621 -0.0982
 2051DPPC   C1B46305  11.887   4.893  21.411 -0.3642  0.0371 -0.0182
 2051DPPC   C2B46306  11.925   5.310  21.614  0.0358  0.1238 -0.1819
 2051DPPC   C3B46307  12.250   5.503  21.479 -0.0962  0.0680  0.0775
 2051DPPC   C4B46308  12.613   5.738  21.782 -0.1778  0.3567  0.1827
 2052DPPC   NC346309  22.175  11.425  15.661  0.2033 -0.1735 -0.2119
 2052DPPC   PO446310  22.527  11.392  16.036  0.0246 -0.2249  0.0507
 2052DPPC   GL146311  22.166  11.330  16.164 -0.0374 -0.0584  0.2602
 2052DPPC   GL246312  22.113  11.117  16.423 -0.2605 -0.2241 -0.0582
 2052DPPC   C1A46313  21.732  11.513  16.446 -0.2554  0.0330 -0.0088
 2052DPPC   C2A46314  21.487  11.580  16.760  0.5468 -0.2356 -0.0763
 2052DPPC   C3A46315  21.160  11.767  17.162 -0.2031 -0.0311 -0.1003
 2052DPPC   C4A46316  20.793  11.895  17.436  0.0826 -0.1488 -0.2913
 2052DPPC   C1B46317  21.727  11.015  16.407 -0.1685  0.1693  0.4549
 2052DPPC   C2B46318  21.281  11.154  16.524 -0.0226 -0.0613  0.1862
 2052DPPC   C3B46319  20.974  11.285  16.735  0.1763  0.0839 -0.0545
 2052DPPC   C4B46320  20.810  11.061  17.038 -0.1219 -0.0392  0.2085
 2053DPPC   NC346321   0.935  11.973  34.224 -0.1723 -0.1874  0.1266
 2053DPPC   PO446322   0.532  12.223  34.172 -0.0757 -0.1609  0.1304
 2053DPPC   GL146323   0.103  12.134  34.159  0.0592 -0.3246  0.0952
 2053DPPC   GL246324  26.967  11.994  34.404  0.0182  0.0303 -0.2266
 2053DPPC   C1A46325  26.804  12.189  33.828 -0.1920  0.0250  0.1423
 2053DPPC   C2A46326  26.699  11.957  33.458  0.2181  0.1531 -0.0284
 2053DPPC   C3A46327  26.549  11.626  33.225 -0.0145 -0.1110  0.0697
 2053DPPC   C4A46328  26.273  11.356  33.052  0.1444  0.2256  0.5106
 2053DPPC   C1B46329  26.612  12.009  34.267 -0.0074  0.1119 -0.0395
 2053DPPC   C2B46330  26.254  12.219  34.329  0.0476  0.0489 -0.0121
 2053DPPC   C3B46331  25.798  12.378  34.521  0.1688  0.2405 -0.0954
 2053DPPC   C4B46332  25.614  12.660  34.688 -0.1356  0.2286 -0.1277
 2054DPPC   NC346333  11.864   6.216  33.559 -0.3017 -0.0520  0.0656
 2054DPPC   PO446334  12.132   5.935  33.767  0.1494 -0.3148  0.1845
 2054DPPC   GL146335  11.790   5.715  33.849 -0.0994 -0.1294 -0.0508
 2054DPPC   GL246336  11.777   5.548  34.128 -0.0798 -0.1921  0.0451
 2054DPPC   C1A46337  11.510   5.338  33.734 -0.0834  0.2908  0.2631
 2054DPPC   C2A46338  11.549   4.892  33.670 -0.1228  0.1651  0.4088
 2054DPPC   C3A46339  11.499   4.442  33.488  0.0311  0.1789  0.2804
 2054DPPC   C4A46340  11.453   3.948  33.637 -0.1489 -0.1148 -0.0035
 2054DPPC   C1B46341  11.466   5.314  34.248 -0.3535  0.0149  0.1437
 2054DPPC   C2B46342  11.259   5.021  34.146  0.2920  0.2348 -0.0977
 2054DPPC   C3B46343  11.179   4.687  33.946 -0.0956  0.4613 -0.0985
 2054DPPC   C4B46344  11.059   4.312  33.733 -0.0169  0.2046  0.1568
 2055DPPC   NC346345  22.234  22.002  31.467  0.2540  0.0629  0.1120
 2055DPPC   PO446346  22.197  22.328  31.798 -0.2680 -0.2741 -0.0363
 2055DPPC   GL146347  21.927  21.962  31.859 -0.0770 -0.0841  0.0948
 2055DPPC   GL246348  21.990  21.696  31.777 -0.0963  0.2297 -0.1064
 2055DPPC   C1A46349  21.637  21.661  32.175  0.2296 -0.0033  0.1419
 2055DPPC   C2A46350  21.618  21.837  32.657 -0.0059 -0.0704  0.2656
 2055DPPC   C3A46351  21.384  21.534  32.948  0.0620  0.1152 -0.3460
 2055DPPC   C4A46352  21.408  21.055  33.069 -0.1064  0.0545  0.0129
 2055DPPC   C1B46353  22.088  21.388  31.469  0.1121  0.2527 -0.3929
 2055DPPC   C2B46354  22.121  21.062  31.377  0.0747  0.0656  0.0854
 2055DPPC   C3B46355  22.324  20.717  31.207 -0.0066 -0.1415  0.2477
 2055DPPC   C4B46356  22.682  20.424  31.239  0.0233  0.0630  0.1889
 2056DPPC   NC346357   9.049   4.108  24.378 -0.4710  0.1406  0.2846
 2056DPPC   PO446358   8.647   4.050  24.353  0.2033 -0.1781 -0.1387
 2056DPPC   GL146359   8.732   4.571  24.411  0.3361  0.1732 -0.2039
 2056DPPC   GL246360   8.490   4.650  24.443 -0.0385  0.1689 -0.0418
 2056DPPC   C1A46361   8.916   4.895  24.519  0.1565 -0.0607  0.2133
 2056DPPC   C2A46362   9.099   5.216  24.263  0.3164 -0.4401 -0.0486
 2056DPPC   C3A46363   9.513   5.381  24.323  0.0444 -0.0034 -0.1748
 2056DPPC   C4A46364   9.694   5.721  24.365 -0.1219  0.0918  0.1505
 2056DPPC   C1B46365   8.588   4.968  24.161 -0.2124 -0.0151 -0.2241
 2056DPPC   C2B46366   8.870   5.162  23.823  0.3521  0.1723 -0.0005
 2056DPPC   C3B46367   9.036   5.370  23.489  0.2010 -0.2212 -0.2840
 2056DPPC   C4B46368   9.247   5.198  23.277 -0.0361  0.2713 -0.1586
 2057DPPC   NC346369  11.037  10.706  17.490  0.0628  0.3125  0.2124
 2057DPPC   PO446370  10.805  10.484  17.793  0.1704  0.0738  0.1702
 2057DPPC   GL146371  10.957  10.675  18.245 -0.0004  0.3186  0.1661
 2057DPPC   GL246372  10.690  10.729  18.504 -0.1536 -0.1201  0.1334
 2057DPPC   C1A46373  11.227  10.451  18.468  0.0438 -0.2239 -0.0355
 2057DPPC   C2A46374  11.452  10.313  18.798  0.0520 -0.2477 -0.0087
 2057DPPC   C3A46375  11.792  10.224  18.971 -0.3151 -0.0887  0.2338
 2057DPPC   C4A46376  12.028   9.953  19.240  0.1295 -0.0209 -0.3790
 2057DPPC   C1B46377  10.986  10.828  18.844  0.5480 -0.2606  0.3899
 2057DPPC   C2B46378  11.165  10.884  19.269  0.1611  0.2346 -0.1624
 2057DPPC   C3B46379  11.346  10.902  19.582  0.2677  0.0301  0.1361
 2057DPPC   C4B46380  11.701  10.876  19.727 -0.2042 -0.1103 -0.0793
 2058DPPC   NC346381  24.780  15.855  21.544 -0.1401 -0.0927 -0.1617
 2058DPPC   PO446382  24.644  16.027  21.976 -0.0284 -0.0458  0.0305
 2058DPPC   GL146383  24.480  15.545  21.854  0.0623  0.2035  0.1348
 2058DPPC   GL246384  24.612  15.274  21.886 -0.2374  0.0678  0.1307
 2058DPPC   C1A46385  24.188  15.604  21.610 -0.1318 -0.1862 -0.2560
 2058DPPC   C2A46386  23.870  15.429  21.480  0.0392 -0.0478 -0.2965
 2058DPPC   C3A46387  23.450  15.442  21.404  0.0246  0.2430 -0.0743
 2058DPPC   C4A46388  23.218  15.068  21.140  0.1533  0.0632  0.0718
 2058DPPC   C1B46389  24.517  14.828  21.870 -0.2048 -0.1124 -0.1077
 2058DPPC   C2B46390  24.731  14.493  21.770 -0.3017 -0.0645  0.1772
 2058DPPC   C3B46391  24.709  14.065  21.514  0.1437 -0.1962 -0.1632
 2058DPPC   C4B46392  24.705  13.611  21.709  0.0448  0.0330  0.0236
 2059DPPC   NC346393  23.150  14.034  29.323 -0.2265  0.1277  0.0088
 2059DPPC   PO446394  23.394  13.728  28.925 -0.0614 -0.0529 -0.1357
 2059DPPC   GL146395  23.848  13.693  28.906 -0.2732 -0.2592 -0.0345
 2059DPPC   GL246396  24.017  13.354  28.871  0.0199 -0.1440  0.2921
 2059DPPC   C1A46397  24.251  13.775  28.753 -0.0790  0.1489  0.2676
 2059DPPC   C2A46398  24.710  13.930  28.955 -0.0475 -0.3412  0.2626
 2059DPPC   C3A46399  24.854  13.885  29.370  0.0529 -0.0273 -0.3323
 2059DPPC   C4A46400  25.321  13.776  29.315  0.1971 -0.2718  0.0659
 2059DPPC   C1B46401  24.495  13.469  29.017  0.1769  0.2313  0.0562
 2059DPPC   C2B46402  24.912  13.510  29.079  0.0256  0.1707  0.0279
 2059DPPC   C3B46403  25.242  13.700  28.850 -0.2315 -0.0383 -0.0590
 2059DPPC   C4B46404  25.119  14.125  28.721 -0.0102 -0.0255 -0.3106
 2060DPPC   NC346405  14.906  18.089  16.315 -0.1624  0.0433  0.1249
 2060DPPC   PO446406  14.966  18.227  16.705 -0.3481 -0.0516  0.1436
 2060DPPC   GL146407  15.062  17.911  16.957  0.2550 -0.0762  0.1867
 2060DPPC   GL246408  14.845  17.648  17.011  0.1789 -0.4565  0.0516
 2060DPPC   C1A46409  15.291  17.678  17.240 -0.0891 -0.4883  0.1609
 2060DPPC   C2A46410  15.303  17.310  17.458  0.1163  0.2677  0.1519
 2060DPPC   C3A46411  15.202  17.016  17.669 -0.2465 -0.0218  0.1387
 2060DPPC   C4A46412  14.932  16.964  18.091  0.4443  0.0642 -0.0491
 2060DPPC   C1B46413  14.554  17.709  17.352 -0.3463 -0.0151  0.1691
 2060DPPC   C2B46414  14.315  17.449  17.620  0.0131 -0.0115 -0.0890
 2060DPPC   C3B46415  14.143  17.290  17.999 -0.0305 -0.0817  0.0333
 2060DPPC   C4B46416  14.375  17.162  18.359  0.1579 -0.0393  0.0419
 2061DPPC   NC346417  14.123   1.733  22.372  0.1199 -0.2299  0.0933
 2061DPPC   PO446418  13.871   2.017  22.083 -0.0028 -0.1351  0.0911
 2061DPPC   GL146419  14.133   2.272  22.278  0.0585  0.0645 -0.0727
 2061DPPC   GL246420  14.249   2.235  22.574  0.1397 -0.1080  0.0210
 2061DPPC   C1A46421  14.163   2.751  22.489  0.0197 -0.0457 -0.0931
 2061DPPC   C2A46422  14.517   2.949  22.680  0.1741 -0.0651 -0.0332
 2061DPPC   C3A46423  14.659   3.161  22.972  0.1034  0.0881 -0.1516
 2061DPPC   C4A46424  14.766   3.489  23.342 -0.1055  0.3387 -0.0442
 2061DPPC   C1B46425  14.170   2.511  22.911 -0.0682  0.0913  0.2488
 2061DPPC   C2B46426  14.127   2.892  23.123  0.1802 -0.1607  0.2910
 2061DPPC   C3B46427  13.770   2.942  23.309 -0.0919 -0.2355  0.0382
 2061DPPC   C4B46428  13.315   3.125  23.262  0.0383 -0.0119 -0.0441
 2062DPPC   NC346429  17.268  12.630  39.766  0.0796 -0.1295 -0.3210
 2062DPPC   PO446430  17.640  12.442  39.584  0.1142  0.1164 -0.1644
 2062DPPC   GL146431  17.798  12.744  39.853 -0.2038  0.0058  0.1411
 2062DPPC   GL246432  17.595  13.031  39.829  0.1142  0.2744 -0.3486
 2062DPPC   C1A46433  17.933  12.838  40.252 -0.1738  0.1435  0.2610
 2062DPPC   C2A46434  18.266  12.766  40.515  0.1207 -0.0990  0.0194
 2062DPPC   C3A46435  18.478  12.777  40.895  0.1224 -0.0615 -0.1528
 2062DPPC   C4A46436  18.776  12.722  41.210 -0.2727  0.1890 -0.0934
 2062DPPC   C1B46437  17.556  13.119  40.210  0.1210 -0.1939  0.1899
 2062DPPC   C2B46438  17.382  13.463  40.416 -0.1649  0.0695 -0.1217
 2062DPPC   C3B46439  16.961  13.358  40.669 -0.0658  0.0042  0.2513
 2062DPPC   C4B46440  17.029  12.919  40.831 -0.1101 -0.3570  0.1395
 2063DPPC   NC346441  16.020  24.563  23.856 -0.2057 -0.2047 -0.0936
 2063DPPC   PO446442  16.381  24.320  23.666  0.1654  0.4279  0.1195
 2063DPPC   GL146443  16.353  23.864  23.703  0.0979  0.0815 -0.1436
 2063DPPC   GL246444  16.028  23.701  23.578 -0.0485 -0.0969 -0.2943
 2063DPPC   C1A46445  16.660  23.400  23.774  0.1494 -0.0138  0.1670
 2063DPPC   C2A46446  16.771  22.983  23.733 -0.1838 -0.1605  0.3106
 2063DPPC   C3A46447  16.849  22.534  23.733  0.1847 -0.0115  0.0225
 2063DPPC   C4A46448  16.632  22.176  23.690  0.2901 -0.4617 -0.1082
 2063DPPC   C1B46449  15.788  23.259  23.542  0.4412 -0.2757  0.1053
 2063DPPC   C2B46450  15.508  23.004  23.434  0.2670  0.2470 -0.1262
 2063DPPC   C3B46451  15.245  22.682  23.336 -0.2894 -0.1832 -0.4583
 2063DPPC   C4B46452  15.099  22.294  23.412  0.0715  0.2447  0.1662
 2064DPPC   NC346453  26.586   8.230  22.857  0.1235  0.2681 -0.0685
 2064DPPC   PO446454  26.368   8.634  22.719 -0.0984 -0.3077 -0.2054
 2064DPPC   GL146455  26.032   8.505  22.848 -0.0981 -0.0231 -0.0890
 2064DPPC   GL246456  26.057   8.140  22.668  0.3115  0.1231  0.0842
 2064DPPC   C1A46457  25.625   8.317  22.862  0.2189 -0.0168 -0.0747
 2064DPPC   C2A46458  25.271   8.486  22.663 -0.2492  0.3248 -0.0843
 2064DPPC   C3A46459  24.979   8.787  22.803  0.0468  0.2217  0.0599
 2064DPPC   C4A46460  24.757   9.077  23.105  0.1725 -0.0568  0.2195
 2064DPPC   C1B46461  25.742   7.792  23.066 -0.0548 -0.1161 -0.1653
 2064DPPC   C2B46462  25.394   7.691  23.322 -0.1885  0.0383  0.2084
 2064DPPC   C3B46463  25.037   7.537  23.394  0.0273  0.0526  0.0678
 2064DPPC   C4B46464  24.673   7.758  23.474 -0.0222  0.0828 -0.2516
 2065DPPC   NC346465  25.165  19.160  34.936  0.0885 -0.3339  0.0673
 2065DPPC   PO446466  25.064  19.616  35.095  0.0031 -0.3109 -0.0785
 2065DPPC   GL146467  24.629  19.460  34.911 -0.1105  0.2536 -0.0945
 2065DPPC   GL246468  24.546  19.451  34.570 -0.3058  0.0334 -0.3217
 2065DPPC   C1A46469  24.469  19.044  34.788 -0.2224 -0.1874 -0.1569
 2065DPPC   C2A46470  24.072  18.893  34.802 -0.2455 -0.1276  0.1652
 2065DPPC   C3A46471  23.698  19.052  34.950  0.3533 -0.0149  0.1228
 2065DPPC   C4A46472  23.450  19.202  35.188 -0.1822 -0.4211 -0.0231
 2065DPPC   C1B46473  24.204  19.307  34.422  0.0119 -0.0085  0.2082
 2065DPPC   C2B46474  23.850  19.149  34.456 -0.2088 -0.0106 -0.0727
 2065DPPC   C3B46475  23.617  18.856  34.464  0.1024 -0.0814 -0.3198
 2065DPPC   C4B46476  23.317  18.793  34.824  0.1252  0.1141  0.1837
 2066DPPC   NC346477  22.730  13.387  27.558  0.1104  0.0341 -0.0687
 2066DPPC   PO446478  22.773  13.799  27.742  0.2703 -0.0932  0.0261
 2066DPPC   GL146479  23.133  14.166  27.817  0.1279  0.0953  0.2779
 2066DPPC   GL246480  23.348  14.037  27.714  0.1961 -0.1491  0.1844
 2066DPPC   C1A46481  23.373  14.662  27.839  0.5098  0.1271  0.1501
 2066DPPC   C2A46482  23.777  14.883  27.663 -0.1351 -0.3625 -0.1352
 2066DPPC   C3A46483  23.675  15.241  27.874  0.0803 -0.4076  0.1027
 2066DPPC   C4A46484  23.836  15.707  27.869 -0.2117 -0.1466 -0.0852
 2066DPPC   C1B46485  23.700  13.798  27.593 -0.0396  0.1643 -0.4525
 2066DPPC   C2B46486  24.043  13.802  27.422 -0.0437 -0.2915  0.1216
 2066DPPC   C3B46487  24.371  13.982  27.209 -0.0364  0.1658  0.0927
 2066DPPC   C4B46488  24.607  14.003  26.663 -0.2104 -0.2063 -0.1332
 2067DPPC   NC346489  11.633  10.692  22.207  0.0648  0.2496 -0.0188
 2067DPPC   PO446490  11.411  10.889  22.634  0.1933 -0.2458  0.1502
 2067DPPC   GL146491  10.958  10.650  22.554  0.0356 -0.1229 -0.1238
 2067DPPC   GL246492  10.928  10.353  22.623  0.2152 -0.0866  0.1075
 2067DPPC   C1A46493  10.716  10.567  22.238  0.2637 -0.0173 -0.0799
 2067DPPC   C2A46494  10.442  10.484  22.013  0.0370 -0.2670  0.1409
 2067DPPC   C3A46495  10.208  10.286  21.739 -0.0379 -0.2958 -0.0263
 2067DPPC   C4A46496  10.179   9.942  21.494 -0.1297  0.0188  0.1655
 2067DPPC   C1B46497  10.729  10.093  22.294 -0.3380 -0.3386 -0.2532
 2067DPPC   C2B46498  10.448   9.925  22.082  0.0440  0.3396 -0.0110
 2067DPPC   C3B46499  10.006  10.005  22.082 -0.1484  0.3704  0.4052
 2067DPPC   C4B46500   9.598   9.861  22.032  0.4815 -0.1262  0.0303
 2068DPPC   NC346501  19.914  20.385  19.601 -0.0009 -0.1678 -0.1596
 2068DPPC   PO446502  20.211  20.096  19.605  0.0481 -0.1055  0.3527
 2068DPPC   GL146503  20.154  19.842  19.926 -0.0714  0.2356 -0.0517
 2068DPPC   GL246504  20.311  19.907  20.218 -0.3285 -0.0727  0.0382
 2068DPPC   C1A46505  19.934  19.407  20.022  0.1995  0.1443  0.0736
 2068DPPC   C2A46506  19.797  19.015  20.187 -0.1254  0.0866  0.1804
 2068DPPC   C3A46507  19.868  18.682  19.975  0.0426  0.3482  0.0605
 2068DPPC   C4A46508  19.665  18.551  19.570 -0.3105  0.1308  0.0705
 2068DPPC   C1B46509  19.914  19.832  20.390  0.1464  0.1691  0.0536
 2068DPPC   C2B46510  19.584  19.623  20.701 -0.1853 -0.0633  0.1324
 2068DPPC   C3B46511  19.298  19.795  20.858  0.0074  0.0383 -0.4747
 2068DPPC   C4B46512  19.252  19.727  21.309  0.1066 -0.0883  0.0613
 2069DPPC   NC346513  12.915   2.671  21.716 -0.1471  0.0139 -0.0223
 2069DPPC   PO446514  12.738   3.108  21.865 -0.2542 -0.1504 -0.0321
 2069DPPC   GL146515  12.666   3.478  22.006  0.1044 -0.0900 -0.0144
 2069DPPC   GL246516  12.794   3.767  21.931  0.0893  0.2450 -0.2462
 2069DPPC   C1A46517  12.285   3.787  22.239  0.1354  0.2431 -0.0965
 2069DPPC   C2A46518  12.009   4.157  22.528  0.1354 -0.1400 -0.0943
 2069DPPC   C3A46519  12.094   4.149  22.945  0.4892  0.2370  0.4432
 2069DPPC   C4A46520  12.159   4.436  23.232 -0.0940  0.1345 -0.0980
 2069DPPC   C1B46521  13.093   4.174  21.836  0.0989  0.1468 -0.5130
 2069DPPC   C2B46522  13.236   4.512  21.534 -0.2395  0.2523 -0.1734
 2069DPPC   C3B46523  13.479   4.789  21.589  0.5081 -0.2428 -0.0630
 2069DPPC   C4B46524  13.701   4.996  21.658  0.0153  0.0202  0.1030
 2070DPPC   NC346525  25.883   4.860  25.917 -0.0523 -0.2134 -0.1362
 2070DPPC   PO446526  25.509   4.880  25.655 -0.2920 -0.2022  0.2195
 2070DPPC   GL146527  25.600   5.270  25.804  0.1362  0.0031  0.1228
 2070DPPC   GL246528  25.485   5.195  26.094 -0.1115 -0.0915  0.3558
 2070DPPC   C1A46529  25.221   5.603  26.042 -0.1056 -0.0896 -0.0290
 2070DPPC   C2A46530  25.209   6.032  26.206  0.1458  0.2273  0.0961
 2070DPPC   C3A46531  25.182   6.234  26.538  0.2637 -0.0146 -0.1598
 2070DPPC   C4A46532  24.738   6.136  26.756 -0.2739 -0.2335 -0.1143
 2070DPPC   C1B46533  25.254   5.374  26.456  0.0078 -0.1011 -0.2902
 2070DPPC   C2B46534  24.834   5.653  26.573  0.3300  0.2142  0.0498
 2070DPPC   C3B46535  24.396   5.793  26.632  0.3846  0.0959 -0.1950
 2070DPPC   C4B46536  24.013   6.027  26.536  0.0322  0.1685 -0.0724
 2071DPPC   NC346537  21.939  13.884  27.223  0.0027  0.2081 -0.1726
 2071DPPC   PO446538  22.123  14.162  27.063 -0.4378 -0.0106  0.2855
 2071DPPC   GL146539  22.488  14.367  27.014 -0.2957  0.1326 -0.0188
 2071DPPC   GL246540  22.568  14.126  26.843  0.0268 -0.1508  0.1713
 2071DPPC   C1A46541  22.940  14.565  27.023 -0.2771 -0.1425 -0.0435
 2071DPPC   C2A46542  23.257  14.651  26.772 -0.0188 -0.0841 -0.2719
 2071DPPC   C3A46543  23.492  14.905  26.391 -0.0994  0.3638  0.2522
 2071DPPC   C4A46544  23.684  15.239  26.154 -0.0588 -0.2676 -0.0144
 2071DPPC   C1B46545  23.050  14.183  26.681  0.0448  0.0407 -0.0042
 2071DPPC   C2B46546  23.504  14.255  26.731  0.2965  0.3923 -0.1753
 2071DPPC   C3B46547  23.784  13.957  26.664  0.3668  0.0600  0.2560
 2071DPPC   C4B46548  24.171  13.858  26.440  0.4163 -0.2037 -0.0861
 2072DPPC   NC346549  17.434  12.057  39.798 -0.3817  0.0755 -0.2259
 2072DPPC   PO446550  17.185  12.211  40.146  0.0396  0.2287  0.0146
 2072DPPC   GL146551  17.064  12.165  40.606  0.2812 -0.1743 -0.2175
 2072DPPC   GL246552  16.739  12.442  40.704  0.2723  0.2509  0.0913
 2072DPPC   C1A46553  17.059  12.267  41.090  0.2103 -0.0708 -0.3451
 2072DPPC   C2A46554  17.076  12.670  41.271 -0.0267 -0.2901 -0.2850
 2072DPPC   C3A46555  16.976  13.134  41.267  0.2086 -0.1880  0.0012
 2072DPPC   C4A46556  16.905  13.558  41.329  0.2246 -0.1181  0.0676
 2072DPPC   C1B46557  16.637  12.751  41.087  0.0338 -0.0141 -0.0493
 2072DPPC   C2B46558  16.545  13.075  41.556 -0.1929 -0.2272 -0.1741
 2072DPPC   C3B46559  16.169  13.244  41.722  0.0935  0.2276 -0.1465
 2072DPPC   C4B46560  16.076  12.966  42.148  0.0052 -0.0638  0.0009
 2073DPPC   NC346561  15.732  25.599  31.397  0.2206  0.1038 -0.1709
 2073DPPC   PO446562  15.787  25.328  30.993  0.1702  0.0398  0.1567
 2073DPPC   GL146563  15.462  24.929  30.952  0.2231  0.2167  0.1390
 2073DPPC   GL246564  15.501  24.952  30.610  0.2654 -0.0913  0.2060
 2073DPPC   C1A46565  15.368  24.700  31.377  0.1101  0.2574 -0.1103
 2073DPPC   C2A46566  15.383  24.697  31.830  0.0894 -0.0486 -0.1657
 2073DPPC   C3A46567  15.262  24.470  32.263  0.4640 -0.1403  0.0537
 2073DPPC   C4A46568  14.948  24.197  32.376 -0.0977  0.0992  0.1752
 2073DPPC   C1B46569  15.193  24.880  30.227  0.3736 -0.0568  0.0334
 2073DPPC   C2B46570  14.779  24.722  30.120 -0.0367  0.1183 -0.1116
 2073DPPC   C3B46571  14.507  24.409  30.226  0.0873  0.0456 -0.1162
 2073DPPC   C4B46572  14.127  24.268  30.214 -0.1043  0.0764 -0.1325
 2074DPPC   NC346573  15.421  24.943  33.884 -0.2555 -0.1836 -0.0144
 2074DPPC   PO446574  15.821  24.900  33.941  0.4360  0.4280 -0.0013
 2074DPPC   GL146575  15.707  24.519  33.539  0.1911 -0.1546  0.0116
 2074DPPC   GL246576  15.381  24.509  33.611  0.2411 -0.1200  0.4089
 2074DPPC   C1A46577  15.689  24.188  33.396  0.0510  0.1453 -0.1488
 2074DPPC   C2A46578  15.651  23.967  32.937 -0.1328 -0.0005  0.3881
 2074DPPC   C3A46579  15.408  23.521  32.901  0.0241  0.0380  0.0892
 2074DPPC   C4A46580  15.126  23.239  32.743 -0.1807  0.1016  0.1202
 2074DPPC   C1B46581  15.395  24.120  33.839  0.2627 -0.3251 -0.1998
 2074DPPC   C2B46582  15.387  24.100  34.157 -0.1658 -0.1162 -0.0068
 2074DPPC   C3B46583  14.965  23.938  34.261 -0.0360  0.4336 -0.4250
 2074DPPC   C4B46584  14.725  23.596  34.155 -0.0339  0.3786 -0.1886
 2075DPPC   NC346585  10.009  20.134  30.296 -0.2703  0.1415 -0.3820
 2075DPPC   PO446586   9.979  20.111  29.862  0.0472 -0.1108 -0.2647
 2075DPPC   GL146587   9.700  20.458  30.007  0.0945  0.3995 -0.1616
 2075DPPC   GL246588   9.636  20.483  30.322  0.0894 -0.0738  0.0103
 2075DPPC   C1A46589   9.279  20.573  29.960  0.0201  0.2276  0.3200
 2075DPPC   C2A46590   9.023  20.937  29.988 -0.1636 -0.0389 -0.3372
 2075DPPC   C3A46591   8.856  21.222  30.290  0.4547 -0.0297 -0.2115
 2075DPPC   C4A46592   8.449  21.458  30.361  0.0729  0.3692 -0.2108
 2075DPPC   C1B46593   9.419  20.802  30.390 -0.0902 -0.1159 -0.0090
 2075DPPC   C2B46594   9.141  21.004  30.636  0.4226  0.1243  0.1888
 2075DPPC   C3B46595   8.835  21.156  30.816  0.0461  0.2786  0.0156
 2075DPPC   C4B46596   8.568  21.213  31.106 -0.3525  0.0553 -0.1239
 2076DPPC   NC346597   5.333  18.595  35.508 -0.4852 -0.0359 -0.1344
 2076DPPC   PO446598   4.971  18.506  35.248  0.1765 -0.2432  0.0184
 2076DPPC   GL146599   5.290  18.475  35.015  0.1931 -0.5436  0.0493
 2076DPPC   GL246600   5.396  18.730  34.633  0.2171 -0.2575 -0.2640
 2076DPPC   C1A46601   5.715  18.287  34.983 -0.0383  0.3941 -0.0480
 2076DPPC   C2A46602   6.092  18.449  34.855 -0.2468 -0.0982 -0.1609
 2076DPPC   C3A46603   6.387  18.406  34.646  0.0930 -0.0419  0.1540
 2076DPPC   C4A46604   6.647  18.301  34.223 -0.1810 -0.2549 -0.1841
 2076DPPC   C1B46605   5.732  18.751  34.338 -0.0760  0.3319 -0.3106
 2076DPPC   C2B46606   6.141  18.463  34.206  0.1736  0.1884  0.3767
 2076DPPC   C3B46607   6.285  18.207  33.845 -0.1180 -0.1386 -0.0476
 2076DPPC   C4B46608   6.564  17.891  33.714  0.2339  0.1234 -0.1942
 2077DPPC   NC346609  19.078  22.896  22.149 -0.4271  0.0874  0.1215
 2077DPPC   PO446610  19.380  22.452  22.076  0.3535 -0.0368  0.1405
 2077DPPC   GL146611  19.254  22.093  22.201 -0.1152 -0.2951  0.1415
 2077DPPC   GL246612  19.468  21.938  22.492  0.1249  0.2907  0.3012
 2077DPPC   C1A46613  18.899  21.894  22.158  0.0805  0.0465  0.0687
 2077DPPC   C2A46614  18.540  21.480  22.289 -0.0009 -0.4181  0.0873
 2077DPPC   C3A46615  18.395  21.141  22.513 -0.0972  0.1236  0.0114
 2077DPPC   C4A46616  18.030  21.030  22.692 -0.1383 -0.1942 -0.1587
 2077DPPC   C1B46617  19.220  21.808  22.909 -0.1166  0.1195  0.2036
 2077DPPC   C2B46618  18.931  21.884  23.258  0.0060 -0.0982  0.0569
 2077DPPC   C3B46619  18.750  21.724  23.646 -0.1059  0.1478  0.2214
 2077DPPC   C4B46620  18.788  21.707  24.035  0.0753 -0.1023  0.0500
 2078DPPC   NC346621  19.298  27.011  30.331  0.0002  0.1020  0.0031
 2078DPPC   PO446622  19.408  27.055  29.858 -0.0148  0.0748  0.1804
 2078DPPC   GL146623  19.276   0.388  30.083 -0.0409  0.0880 -0.3658
 2078DPPC   GL246624  19.308   0.531  30.279  0.2159  0.2872  0.0543
 2078DPPC   C1A46625  18.987   0.766  29.906  0.1287  0.2275  0.0513
 2078DPPC   C2A46626  18.894   1.066  29.891  0.1890 -0.2911 -0.2857
 2078DPPC   C3A46627  19.114   1.442  30.200  0.4143 -0.3467  0.1194
 2078DPPC   C4A46628  19.457   1.492  30.446 -0.1492 -0.1754 -0.1764
 2078DPPC   C1B46629  19.516   0.939  30.308 -0.0125  0.1107  0.0440
 2078DPPC   C2B46630  19.839   1.251  30.286  0.0578  0.0680  0.1092
 2078DPPC   C3B46631  20.116   1.632  30.265 -0.0554 -0.1149 -0.0554
 2078DPPC   C4B46632  20.040   1.987  30.407 -0.1002 -0.0454  0.4004
 2079DPPC   NC346633   9.206   4.818  21.838 -0.0730 -0.0468  0.2377
 2079DPPC   PO446634   9.596   5.003  21.642  0.1648  0.0203 -0.0229
 2079DPPC   GL146635   9.917   5.137  21.884  0.1511  0.0404 -0.0563
 2079DPPC   GL246636  10.191   5.255  21.672  0.2599 -0.2704 -0.0348
 2079DPPC   C1A46637   9.954   5.514  22.031 -0.0447 -0.0218  0.1647
 2079DPPC   C2A46638  10.138   5.819  22.305 -0.4787 -0.0075  0.1491
 2079DPPC   C3A46639  10.346   6.007  22.657 -0.0175 -0.0908  0.5695
 2079DPPC   C4A46640  10.576   6.165  22.947 -0.4899 -0.4079 -0.0816
 2079DPPC   C1B46641  10.400   5.591  21.912  0.0733  0.1878  0.3981
 2079DPPC   C2B46642  10.698   5.975  22.097 -0.0092  0.0630  0.0965
 2079DPPC   C3B46643  10.819   6.217  22.467 -0.0357 -0.1065  0.2892
 2079DPPC   C4B46644  11.044   6.574  22.489 -0.1419  0.0299 -0.0100
 2080DPPC   NC346645  10.253  20.190  19.768  0.0334  0.1834 -0.1296
 2080DPPC   PO446646  10.703  20.258  19.586  0.1254  0.0768 -0.2022
 2080DPPC   GL146647  10.954  20.156  19.981 -0.0509 -0.5083  0.0237
 2080DPPC   GL246648  11.111  20.338  20.235  0.1934 -0.2354  0.1239
 2080DPPC   C1A46649  10.914  19.849  20.375  0.1452  0.1941 -0.0380
 2080DPPC   C2A46650  11.151  19.595  20.747 -0.2691  0.0143 -0.1911
 2080DPPC   C3A46651  11.535  19.339  20.845 -0.1011 -0.2631 -0.0786
 2080DPPC   C4A46652  11.793  19.327  21.254  0.1556  0.1629 -0.2146
 2080DPPC   C1B46653  11.358  20.048  20.380  0.0875 -0.0246 -0.4459
 2080DPPC   C2B46654  11.534  19.938  20.809  0.0666 -0.1708 -0.2584
 2080DPPC   C3B46655  11.848  19.707  20.951 -0.0793 -0.1132  0.0750
 2080DPPC   C4B46656  12.234  19.327  21.041 -0.1478  0.3127  0.0314
 2081DPPC   NC346657   4.352  10.244  26.342  0.2140  0.0621 -0.1560
 2081DPPC   PO446658   4.677  10.402  26.094 -0.1211 -0.0772 -0.0642
 2081DPPC   GL146659   5.037  10.326  26.077 -0.0463 -0.2059 -0.0794
 2081DPPC   GL246660   5.024   9.887  25.892 -0.2547  0.0610 -0.1899
 2081DPPC   C1A46661   5.373  10.359  26.131 -0.0264 -0.0146  0.2349
 2081DPPC   C2A46662   5.896  10.368  26.088  0.4624 -0.0295  0.1081
 2081DPPC   C3A46663   6.233  10.018  26.228  0.0840  0.0772 -0.3084
 2081DPPC   C4A46664   6.512   9.650  26.022 -0.2085  0.1252  0.3466
 2081DPPC   C1B46665   5.247   9.900  26.278 -0.1742 -0.0307  0.0108
 2081DPPC   C2B46666   5.396  10.156  26.620  0.0355 -0.3267  0.1968
 2081DPPC   C3B46667   5.506  10.338  27.005 -0.3735 -0.1518  0.0676
 2081DPPC   C4B46668   5.427  10.523  27.458 -0.0444  0.1132 -0.1466
 2082DPPC   NC346669  10.552  23.747  34.935 -0.0220 -0.1380  0.0758
 2082DPPC   PO446670  10.710  23.847  34.635  0.0271  0.0941 -0.3459
 2082DPPC   GL146671  10.929  23.481  34.432  0.0042 -0.1771  0.0185
 2082DPPC   GL246672  10.890  23.127  34.466  0.1804  0.4979  0.2977
 2082DPPC   C1A46673  11.158  23.248  34.114 -0.2801  0.2423 -0.0490
 2082DPPC   C2A46674  11.392  22.906  33.979 -0.1122 -0.1124 -0.3108
 2082DPPC   C3A46675  11.540  22.621  33.811  0.1765 -0.0419  0.0629
 2082DPPC   C4A46676  11.439  22.145  33.705 -0.0331 -0.2547  0.4491
 2082DPPC   C1B46677  10.930  22.650  34.199  0.0661 -0.1345  0.1361
 2082DPPC   C2B46678  10.589  22.387  33.991 -0.2272  0.2849  0.2724
 2082DPPC   C3B46679  10.282  22.057  34.068  0.1785  0.1189 -0.0745
 2082DPPC   C4B46680  10.103  21.566  33.952 -0.0099 -0.1169 -0.2636
 2083DPPC   NC346681  18.274  19.702  31.209 -0.0646  0.0155  0.1114
 2083DPPC   PO446682  17.925  19.488  31.017 -0.1610 -0.2273  0.3404
 2083DPPC   GL146683  18.047  19.983  30.821  0.0649 -0.2896  0.1056
 2083DPPC   GL246684  18.229  20.008  30.583  0.0254  0.1146 -0.0873
 2083DPPC   C1A46685  18.325  20.379  30.946  0.0554 -0.2387 -0.0069
 2083DPPC   C2A46686  18.330  20.841  30.975  0.2147  0.2121 -0.0836
 2083DPPC   C3A46687  18.072  21.144  30.869 -0.1510 -0.1097  0.1899
 2083DPPC   C4A46688  18.237  21.595  30.967 -0.0929  0.1409  0.3601
 2083DPPC   C1B46689  18.652  20.259  30.552 -0.2428  0.0327 -0.3444
 2083DPPC   C2B46690  18.931  20.476  30.410  0.0948 -0.0090  0.0997
 2083DPPC   C3B46691  19.096  20.697  30.132  0.2604 -0.0661  0.2922
 2083DPPC   C4B46692  19.346  20.672  29.756 -0.1208 -0.0209  0.2367
 2084DPPC   NC346693  13.545   0.765  30.476 -0.0084 -0.1324 -0.1111
 2084DPPC   PO446694  13.237   0.979  30.176  0.1556 -0.3252 -0.2258
 2084DPPC   GL146695  13.008   1.317  29.951 -0.1015 -0.0562  0.1991
 2084DPPC   GL246696  13.219   1.494  30.183  0.5971  0.1695  0.0966
 2084DPPC   C1A46697  12.942   1.730  29.709 -0.1825  0.0289  0.2510
 2084DPPC   C2A46698  13.017   2.140  29.689  0.0500 -0.1431 -0.2340
 2084DPPC   C3A46699  13.424   2.355  29.702  0.0411  0.0145 -0.1745
 2084DPPC   C4A46700  13.737   2.476  30.029 -0.0041  0.3437  0.2655
 2084DPPC   C1B46701  13.059   1.935  30.162  0.1576 -0.0961 -0.1398
 2084DPPC   C2B46702  12.842   2.254  30.500  0.2289  0.1642 -0.0398
 2084DPPC   C3B46703  13.019   2.663  30.565  0.2468 -0.0413 -0.1921
 2084DPPC   C4B46704  12.966   2.965  30.846  0.0291 -0.1418 -0.0233
 2085DPPC   NC346705  12.677   6.292  36.099  0.2377  0.2210  0.0131
 2085DPPC   PO446706  13.057   6.236  35.979  0.0249 -0.1120  0.1206
 2085DPPC   GL146707  13.071   6.028  36.317  0.1947 -0.0112 -0.1526
 2085DPPC   GL246708  13.447   5.976  36.298  0.0616  0.1746 -0.3916
 2085DPPC   C1A46709  12.835   5.778  36.473  0.1226  0.1008  0.1034
 2085DPPC   C2A46710  12.820   5.505  36.803 -0.2201  0.4699 -0.0505
 2085DPPC   C3A46711  13.083   5.176  36.912  0.1223  0.1618 -0.1645
 2085DPPC   C4A46712  13.520   5.035  36.954 -0.0892  0.0170  0.0470
 2085DPPC   C1B46713  13.259   5.564  36.534  0.0642 -0.1170  0.2589
 2085DPPC   C2B46714  13.146   5.160  36.436  0.4357  0.2257 -0.2580
 2085DPPC   C3B46715  13.100   4.806  36.495 -0.1201  0.0428  0.3601
 2085DPPC   C4B46716  12.967   4.470  36.350  0.0297 -0.2699 -0.2312
 2086DPPC   NC346717  20.591   0.532  29.781  0.1027  0.1170 -0.2318
 2086DPPC   PO446718  20.538   0.866  29.487 -0.1259 -0.4567 -0.0027
 2086DPPC   GL146719  20.498   1.251  29.336  0.1645 -0.1182 -0.1657
 2086DPPC   GL246720  20.775   1.391  29.421 -0.1112 -0.1114 -0.0659
 2086DPPC   C1A46721  20.260   1.574  29.241 -0.0625  0.1407 -0.0928
 2086DPPC   C2A46722  20.320   2.061  29.323  0.0816  0.0470 -0.3245
 2086DPPC   C3A46723  20.222   2.459  29.064  0.2463  0.1130 -0.0221
 2086DPPC   C4A46724  20.319   2.912  29.053 -0.2371  0.1518  0.0681
 2086DPPC   C1B46725  20.771   1.811  29.300  0.0954  0.1741  0.0636
 2086DPPC   C2B46726  20.709   2.011  28.902 -0.4181  0.1493  0.3214
 2086DPPC   C3B46727  20.469   2.234  28.534  0.0774  0.2836 -0.2311
 2086DPPC   C4B46728  20.139   2.535  28.492  0.0074 -0.1403  0.1013
 2087DPPC   NC346729  20.362  11.344  43.554 -0.2660  0.1716 -0.0141
 2087DPPC   PO446730  20.083  11.677  43.464  0.0010  0.0942  0.1930
 2087DPPC   GL146731  19.868  11.960  43.092 -0.2546 -0.1288 -0.1966
 2087DPPC   GL246732  19.900  12.271  43.071  0.2706  0.0250  0.0053
 2087DPPC   C1A46733  19.825  11.628  42.725 -0.0192  0.2138 -0.0568
 2087DPPC   C2A46734  20.061  11.487  42.477 -0.3437 -0.1190 -0.3070
 2087DPPC   C3A46735  20.238  11.735  42.066 -0.1206 -0.0976 -0.0641
 2087DPPC   C4A46736  20.303  12.064  41.731  0.4572 -0.2714 -0.0178
 2087DPPC   C1B46737  19.830  12.550  42.791 -0.0619 -0.0376 -0.1437
 2087DPPC   C2B46738  19.626  12.497  42.364 -0.0391 -0.0864  0.2718
 2087DPPC   C3B46739  19.412  12.651  41.966  0.1800 -0.0307  0.0255
 2087DPPC   C4B46740  19.410  12.802  41.465 -0.4014 -0.3380 -0.0960
 2088DPPC   NC346741   9.594  18.754  32.403 -0.1242 -0.0175 -0.0576
 2088DPPC   PO446742   9.142  18.673  32.472  0.1173 -0.1663  0.0464
 2088DPPC   GL146743   8.877  19.151  32.455 -0.3232 -0.0022 -0.0327
 2088DPPC   GL246744   8.970  19.442  32.720  0.4597  0.2637 -0.1716
 2088DPPC   C1A46745   8.428  19.291  32.607  0.0679  0.0355 -0.1539
 2088DPPC   C2A46746   8.370  19.236  33.011  0.2068 -0.3691 -0.0432
 2088DPPC   C3A46747   8.329  19.352  33.346  0.0594 -0.0441  0.2471
 2088DPPC   C4A46748   8.038  19.582  33.498 -0.2003  0.6568 -0.0151
 2088DPPC   C1B46749   8.595  19.739  32.724  0.0501 -0.0173 -0.0509
 2088DPPC   C2B46750   8.163  19.979  32.552  0.1759 -0.3700  0.0741
 2088DPPC   C3B46751   7.793  20.232  32.714 -0.1906  0.1249 -0.0828
 2088DPPC   C4B46752   7.663  20.434  33.120 -0.1518 -0.0621  0.5023
 2089DPPC   NC346753  12.676   1.255  25.345 -0.1775 -0.1519 -0.0542
 2089DPPC   PO446754  12.602   1.209  25.767  0.1529 -0.0631  0.0636
 2089DPPC   GL146755  12.928   1.401  25.956  0.0879  0.3388 -0.2562
 2089DPPC   GL246756  12.865   1.694  25.938  0.0635  0.2015  0.0817
 2089DPPC   C1A46757  12.960   1.504  26.445  0.3210 -0.2994  0.0107
 2089DPPC   C2A46758  12.776   1.954  26.631 -0.3604 -0.0622  0.1214
 2089DPPC   C3A46759  12.581   2.020  26.985  0.0445 -0.0683  0.3598
 2089DPPC   C4A46760  12.321   1.961  27.279  0.1801 -0.0282  0.1701
 2089DPPC   C1B46761  12.662   1.983  26.075  0.3272 -0.0650 -0.2192
 2089DPPC   C2B46762  12.752   2.337  26.128 -0.0075  0.3924  0.0655
 2089DPPC   C3B46763  12.860   2.487  26.486 -0.0069  0.1416  0.2686
 2089DPPC   C4B46764  13.017   2.368  26.847 -0.0474 -0.3613 -0.1834
 2090DPPC   NC346765  13.711   5.031  18.428  0.1453  0.0183 -0.0781
 2090DPPC   PO446766  13.996   4.990  18.722  0.0426  0.0205 -0.0130
 2090DPPC   GL146767  14.153   5.322  19.074 -0.0261 -0.0746 -0.1368
 2090DPPC   GL246768  14.426   5.268  19.250  0.0482  0.1302  0.4435
 2090DPPC   C1A46769  14.177   5.805  19.300 -0.1007 -0.0925 -0.0536
 2090DPPC   C2A46770  14.444   5.962  19.517 -0.0779  0.0038 -0.0693
 2090DPPC   C3A46771  14.676   5.777  19.832 -0.1647 -0.0095 -0.0657
 2090DPPC   C4A46772  15.042   5.668  20.149  0.3104 -0.0140  0.2237
 2090DPPC   C1B46773  14.659   5.581  19.142 -0.4131 -0.0506  0.1249
 2090DPPC   C2B46774  14.718   6.059  19.098 -0.1280  0.1190 -0.1990
 2090DPPC   C3B46775  14.836   6.523  19.242 -0.0073 -0.1668  0.0680
 2090DPPC   C4B46776  14.751   6.713  19.665 -0.3816  0.2443  0.0475
 2091DPPC   NC346777   4.795   7.314  31.762  0.0778  0.0290  0.2273
 2091DPPC   PO446778   5.082   6.963  31.914 -0.2160  0.2473 -0.2110
 2091DPPC   GL146779   5.504   7.037  31.910  0.0822  0.0210 -0.0419
 2091DPPC   GL246780   5.632   7.030  32.239 -0.0039 -0.2932  0.7189
 2091DPPC   C1A46781   5.714   7.329  31.866 -0.2069 -0.3459  0.3000
 2091DPPC   C2A46782   6.044   7.679  31.976 -0.2234 -0.0588  0.0738
 2091DPPC   C3A46783   6.427   7.970  31.985 -0.3106 -0.2446  0.1848
 2091DPPC   C4A46784   6.490   8.461  32.014 -0.1080  0.2237  0.2977
 2091DPPC   C1B46785   6.076   7.003  32.119  0.1672  0.1114  0.2565
 2091DPPC   C2B46786   6.639   6.980  32.089  0.2780  0.0401 -0.0212
 2091DPPC   C3B46787   7.052   7.068  32.067 -0.2437  0.0009  0.0108
 2091DPPC   C4B46788   7.275   7.399  32.240 -0.0436 -0.1408 -0.2937
 2092DPPC   NC346789  24.610  13.453  17.735 -0.1532  0.3107  0.4684
 2092DPPC   PO446790  24.804  13.568  18.141 -0.2320 -0.3143  0.1057
 2092DPPC   GL146791  24.476  13.795  18.189 -0.0531 -0.2148  0.0425
 2092DPPC   GL246792  24.206  13.795  17.934  0.0362 -0.0777  0.0575
 2092DPPC   C1A46793  24.168  13.967  18.527  0.0146  0.0906 -0.2397
 2092DPPC   C2A46794  24.071  14.063  18.994 -0.1570  0.4308 -0.2621
 2092DPPC   C3A46795  23.787  13.884  19.270 -0.0023  0.1223 -0.3321
 2092DPPC   C4A46796  23.498  13.695  19.483  0.0407  0.2280 -0.2857
 2092DPPC   C1B46797  23.854  13.743  18.085  0.0919 -0.0106  0.0761
 2092DPPC   C2B46798  23.707  13.357  18.378 -0.0205 -0.4553 -0.2637
 2092DPPC   C3B46799  23.400  13.095  18.289 -0.0681 -0.2384  0.0730
 2092DPPC   C4B46800  23.360  12.682  18.300 -0.0622  0.1463  0.3867
 2093DPPC   NC346801  24.740   4.423  35.036  0.2874  0.0585  0.1485
 2093DPPC   PO446802  24.683   4.107  35.321  0.0469 -0.2488 -0.0016
 2093DPPC   GL146803  24.250   4.278  35.132  0.2552 -0.0313  0.1163
 2093DPPC   GL246804  24.238   4.396  35.367 -0.2434  0.0201  0.2794
 2093DPPC   C1A46805  24.194   4.680  34.873 -0.1413 -0.0131 -0.2096
 2093DPPC   C2A46806  23.874   4.916  34.891  0.0976  0.0791  0.1736
 2093DPPC   C3A46807  23.528   5.130  34.640  0.0667  0.1071 -0.1321
 2093DPPC   C4A46808  23.230   5.290  34.421 -0.0780 -0.3018  0.0941
 2093DPPC   C1B46809  24.032   4.841  35.449  0.0867  0.2171 -0.2788
 2093DPPC   C2B46810  23.675   5.098  35.359  0.1067 -0.0919  0.0239
 2093DPPC   C3B46811  23.402   5.369  35.334  0.1326 -0.0155  0.1763
 2093DPPC   C4B46812  23.023   5.561  35.289 -0.0689  0.3220  0.0315
 2094DPPC   NC346813   7.710  14.722  27.886 -0.0237  0.0392  0.0168
 2094DPPC   PO446814   7.862  14.907  28.263  0.2668 -0.0852 -0.0823
 2094DPPC   GL146815   7.392  14.885  28.308  0.2127 -0.2949 -0.1059
 2094DPPC   GL246816   7.266  14.614  28.572  0.1255  0.2717 -0.1335
 2094DPPC   C1A46817   6.937  15.029  28.422 -0.3731  0.0440 -0.2149
 2094DPPC   C2A46818   6.526  14.804  28.485  0.1714  0.1935 -0.2482
 2094DPPC   C3A46819   6.176  14.890  28.140 -0.3016  0.2248  0.2345
 2094DPPC   C4A46820   5.992  14.698  27.710  0.0677  0.2811 -0.2517
 2094DPPC   C1B46821   6.983  14.492  28.403 -0.1120 -0.0053  0.0354
 2094DPPC   C2B46822   6.587  14.463  28.144  0.1800 -0.2411  0.0687
 2094DPPC   C3B46823   6.328  14.239  27.800  0.5204 -0.2130  0.1536
 2094DPPC   C4B46824   6.092  13.995  27.461  0.2823  0.2750 -0.0924
 2095DPPC   NC346825  19.099   4.906  25.996 -0.0056  0.0144 -0.2609
 2095DPPC   PO446826  18.739   4.845  26.204 -0.0551 -0.0335 -0.1338
 2095DPPC   GL146827  18.548   4.346  26.170 -0.1357  0.1861  0.0855
 2095DPPC   GL246828  18.927   4.411  25.978 -0.1194 -0.1516  0.1058
 2095DPPC   C1A46829  18.407   3.906  26.103  0.2919 -0.1908 -0.1156
 2095DPPC   C2A46830  18.549   3.433  25.911 -0.1637  0.0130  0.2550
 2095DPPC   C3A46831  18.245   3.174  25.520 -0.0879 -0.0839  0.0281
 2095DPPC   C4A46832  17.766   3.134  25.455 -0.0324  0.0026  0.0055
 2095DPPC   C1B46833  18.698   4.153  25.707  0.2544 -0.3943 -0.0212
 2095DPPC   C2B46834  18.735   3.719  25.543 -0.2035 -0.2120 -0.2254
 2095DPPC   C3B46835  18.714   3.272  25.461 -0.3768  0.0962  0.0709
 2095DPPC   C4B46836  18.594   2.827  25.355  0.0939 -0.0779  0.0080
 2096DPPC   NC346837  13.196   6.412  18.238  0.0608 -0.0893  0.1046
 2096DPPC   PO446838  13.010   6.162  18.622 -0.2968 -0.1729 -0.1653
 2096DPPC   GL146839  13.436   6.334  18.779  0.0052  0.0143  0.0460
 2096DPPC   GL246840  13.765   6.174  18.707 -0.2461  0.0669  0.1806
 2096DPPC   C1A46841  13.460   6.436  19.227  0.0575 -0.0677  0.0303
 2096DPPC   C2A46842  13.533   6.580  19.730  0.3597 -0.1685  0.2314
 2096DPPC   C3A46843  13.732   6.296  20.000  0.2242 -0.3858 -0.1168
 2096DPPC   C4A46844  14.131   6.000  20.084  0.0124  0.0423 -0.1055
 2096DPPC   C1B46845  13.851   6.605  18.790  0.2605  0.0656 -0.1303
 2096DPPC   C2B46846  13.836   6.655  19.311 -0.1339  0.0404 -0.1196
 2096DPPC   C3B46847  13.949   6.978  19.601  0.0652 -0.1088 -0.1202
 2096DPPC   C4B46848  14.037   7.301  19.769  0.1205  0.1807 -0.3371
 2097DPPC   NC346849   1.014  11.923  31.981 -0.0157 -0.1821 -0.2570
 2097DPPC   PO446850   1.082  11.880  32.526 -0.1810  0.1086 -0.3220
 2097DPPC   GL146851   0.768  12.175  32.357 -0.0739 -0.0035 -0.0561
 2097DPPC   GL246852   0.540  12.236  32.136 -0.2984 -0.1872 -0.0405
 2097DPPC   C1A46853   0.328  12.204  32.613  0.0682 -0.0254  0.0566
 2097DPPC   C2A46854  26.940  12.215  32.818 -0.1056  0.1277 -0.0935
 2097DPPC   C3A46855  26.561  12.155  32.911 -0.0281  0.1037 -0.0872
 2097DPPC   C4A46856  26.332  12.084  32.515  0.3720 -0.1308  0.0280
 2097DPPC   C1B46857   0.011  12.371  32.231 -0.0500  0.0191 -0.0764
 2097DPPC   C2B46858  26.786  12.219  32.307  0.0893 -0.1068  0.0045
 2097DPPC   C3B46859  26.622  11.840  32.240 -0.1126 -0.0632  0.2764
 2097DPPC   C4B46860  26.671  11.405  32.378 -0.3069 -0.1123  0.0754
 2098DPPC   NC346861  12.506  14.834  21.732 -0.2161  0.0109 -0.1399
 2098DPPC   PO446862  12.439  15.305  21.607 -0.0313 -0.3943 -0.1403
 2098DPPC   GL146863  12.208  15.179  21.190 -0.1400  0.1116 -0.1786
 2098DPPC   GL246864  12.431  15.131  20.838  0.0253 -0.2126 -0.0165
 2098DPPC   C1A46865  11.886  15.271  20.934  0.1453  0.2272 -0.0029
 2098DPPC   C2A46866  11.726  15.365  20.646  0.0865  0.4180  0.2810
 2098DPPC   C3A46867  11.714  15.465  20.314 -0.0753  0.5102  0.3325
 2098DPPC   C4A46868  11.476  15.437  19.961  0.2929  0.4043  0.3343
 2098DPPC   C1B46869  12.370  15.385  20.624 -0.1186  0.1539  0.1696
 2098DPPC   C2B46870  12.190  15.610  20.340  0.0824  0.1354  0.0454
 2098DPPC   C3B46871  11.959  15.892  20.125 -0.1403 -0.3512  0.2737
 2098DPPC   C4B46872  11.636  15.945  19.815  0.1285  0.4136  0.0551
 2099DPPC   NC346873   3.591  16.317  30.401  0.1204 -0.2242 -0.1872
 2099DPPC   PO446874   3.321  16.033  30.113  0.0826  0.0293  0.0595
 2099DPPC   GL146875   3.759  15.864  29.967  0.0973  0.1766 -0.0428
 2099DPPC   GL246876   3.812  15.719  29.705 -0.0797 -0.0859 -0.1856
 2099DPPC   C1A46877   4.094  15.603  30.086 -0.1452 -0.0514  0.1645
 2099DPPC   C2A46878   4.464  15.499  30.355  0.1195 -0.1848 -0.1390
 2099DPPC   C3A46879   4.536  15.425  30.757  0.2853  0.0474 -0.4111
 2099DPPC   C4A46880   4.230  15.552  31.128  0.2886  0.4156  0.0443
 2099DPPC   C1B46881   4.236  15.830  29.654 -0.0626  0.0025 -0.0522
 2099DPPC   C2B46882   4.665  15.850  29.642 -0.1452 -0.0207 -0.1418
 2099DPPC   C3B46883   5.116  15.991  29.596 -0.2530 -0.0826 -0.1552
 2099DPPC   C4B46884   5.459  15.871  29.300 -0.0878 -0.1003  0.2325
 2100DPPC   NC346885   7.674  13.916  29.812  0.0248  0.1839 -0.2356
 2100DPPC   PO446886   7.528  14.182  30.184  0.1763 -0.3244  0.0504
 2100DPPC   GL146887   7.143  14.134  30.357  0.1648 -0.0973  0.2758
 2100DPPC   GL246888   6.949  14.431  30.538 -0.2189 -0.0527 -0.1545
 2100DPPC   C1A46889   6.645  14.186  30.256  0.2903  0.0734  0.0574
 2100DPPC   C2A46890   6.300  14.485  30.307 -0.1649 -0.0632 -0.0305
 2100DPPC   C3A46891   5.876  14.487  30.471 -0.1193 -0.1691 -0.0721
 2100DPPC   C4A46892   5.495  14.513  30.478 -0.3120 -0.2760  0.1401
 2100DPPC   C1B46893   6.771  14.809  30.397 -0.2653 -0.1876 -0.0525
 2100DPPC   C2B46894   6.610  14.818  30.100 -0.2986 -0.2886 -0.3726
 2100DPPC   C3B46895   6.319  14.790  29.830 -0.1350 -0.1658  0.1116
 2100DPPC   C4B46896   6.363  14.617  29.387 -0.0172  0.1645 -0.2564
 2101DPPC   NC346897  16.628  24.021  35.979  0.1155 -0.0834  0.2582
 2101DPPC   PO446898  16.571  24.231  35.608  0.0846  0.0992 -0.1723
 2101DPPC   GL146899  16.588  23.779  35.447 -0.2118 -0.0109 -0.1301
 2101DPPC   GL246900  16.411  23.704  35.316  0.1887  0.1024  0.2221
 2101DPPC   C1A46901  16.743  23.324  35.452  0.1688 -0.2403 -0.0164
 2101DPPC   C2A46902  16.488  23.030  35.342 -0.2028 -0.2470  0.2261
 2101DPPC   C3A46903  16.400  22.806  34.897 -0.0857  0.0400 -0.1696
 2101DPPC   C4A46904  16.304  22.502  34.558 -0.1381 -0.1594  0.1883
 2101DPPC   C1B46905  16.543  23.441  34.958  0.0757  0.2922  0.3922
 2101DPPC   C2B46906  16.629  23.188  34.542 -0.0937  0.4164 -0.0538
 2101DPPC   C3B46907  16.498  22.887  34.263 -0.1275  0.1494 -0.3408
 2101DPPC   C4B46908  16.206  22.682  34.078 -0.0241 -0.1072 -0.3342
 2102DPPC   NC346909  26.563  15.365  35.318  0.0742 -0.0848  0.1928
 2102DPPC   PO446910  26.539  15.687  35.614 -0.0100  0.4387  0.0078
 2102DPPC   GL146911  26.166  15.697  35.538  0.1924 -0.2140 -0.0784
 2102DPPC   GL246912  26.034  15.873  35.266  0.0275 -0.3311  0.2543
 2102DPPC   C1A46913  25.804  15.444  35.260  0.0495  0.0642 -0.0311
 2102DPPC   C2A46914  25.561  15.245  34.916  0.3824 -0.0535 -0.5079
 2102DPPC   C3A46915  25.344  15.028  34.612 -0.0156  0.1746 -0.4294
 2102DPPC   C4A46916  24.969  14.842  34.508  0.0351 -0.3444  0.1574
 2102DPPC   C1B46917  25.630  15.792  34.945  0.1637 -0.0085  0.0255
 2102DPPC   C2B46918  25.234  15.682  34.773  0.1002 -0.3777  0.1971
 2102DPPC   C3B46919  24.815  15.794  34.710  0.1305  0.1610 -0.1487
 2102DPPC   C4B46920  24.378  15.708  34.886 -0.0970  0.1046  0.2762
 2103DPPC   NC346921  23.563  17.176  21.836  0.0690  0.2140  0.0350
 2103DPPC   PO446922  23.589  17.201  22.307  0.0158  0.0365  0.0379
 2103DPPC   GL146923  23.257  17.124  22.476  0.0444  0.0470 -0.0479
 2103DPPC   GL246924  23.244  17.208  22.760  0.1009 -0.0642  0.0311
 2103DPPC   C1A46925  22.877  16.908  22.153  0.1244 -0.0613  0.1051
 2103DPPC   C2A46926  22.473  16.842  21.961 -0.0442 -0.0321  0.0680
 2103DPPC   C3A46927  22.190  16.465  21.958  0.0309 -0.1350  0.1883
 2103DPPC   C4A46928  22.336  16.143  22.062 -0.1947 -0.1944 -0.0405
 2103DPPC   C1B46929  22.825  17.092  22.965  0.2131  0.3264  0.0561
 2103DPPC   C2B46930  22.582  16.753  23.245  0.1249  0.2689  0.0039
 2103DPPC   C3B46931  22.644  16.403  23.544 -0.2323  0.0671  0.1589
 2103DPPC   C4B46932  22.606  16.053  23.766  0.0470 -0.1302 -0.1094
 2104DPPC   NC346933  19.500   9.360  38.031 -0.3202  0.0258 -0.0706
 2104DPPC   PO446934  19.718   9.348  38.461 -0.3104  0.3297 -0.1696
 2104DPPC   GL146935  19.781   9.215  38.806  0.0497  0.2151  0.3343
 2104DPPC   GL246936  19.935   8.867  38.714  0.0784  0.2003  0.2615
 2104DPPC   C1A46937  20.102   9.209  39.170 -0.2973 -0.3042  0.1096
 2104DPPC   C2A46938  20.300   9.380  39.453 -0.3361  0.2883 -0.2479
 2104DPPC   C3A46939  20.318   9.653  39.844  0.1633 -0.1765  0.4199
 2104DPPC   C4A46940  20.236   9.763  40.265  0.1456 -0.0109 -0.2354
 2104DPPC   C1B46941  20.150   8.679  39.095  0.4048 -0.0088  0.0062
 2104DPPC   C2B46942  20.438   8.912  39.356 -0.1731  0.5497 -0.0780
 2104DPPC   C3B46943  20.449   9.028  39.833  0.0430  0.0259  0.0825
 2104DPPC   C4B46944  20.522   9.334  40.161 -0.2891  0.0404  0.1333
 2105DPPC   NC346945   0.789  14.930  32.216  0.0980 -0.0758  0.1623
 2105DPPC   PO446946   0.448  14.693  32.314 -0.0701 -0.1379  0.0545
 2105DPPC   GL146947   0.120  14.420  32.097 -0.0375  0.1118  0.0769
 2105DPPC   GL246948   0.117  14.373  31.752  0.1608 -0.2756 -0.1798
 2105DPPC   C1A46949  26.680  14.348  32.096  0.1177 -0.0252 -0.2781
 2105DPPC   C2A46950  26.415  14.119  31.917  0.1915 -0.3014 -0.1503
 2105DPPC   C3A46951  26.029  13.959  31.912  0.1971  0.1315  0.0755
 2105DPPC   C4A46952  25.642  13.747  31.842  0.2780  0.2620  0.0396
 2105DPPC   C1B46953  26.832  14.419  31.653 -0.3091  0.0376  0.1351
 2105DPPC   C2B46954  26.580  14.323  31.386 -0.0181 -0.2827  0.2885
 2105DPPC   C3B46955  26.115  14.206  31.530 -0.0973 -0.1171  0.0428
 2105DPPC   C4B46956  25.779  14.024  31.413  0.0703 -0.2870  0.1763
 2106DPPC   NC346957  10.282  19.410  27.110 -0.4645  0.0601 -0.1940
 2106DPPC   PO446958  10.158  19.565  26.734  0.0083 -0.0563 -0.2447
 2106DPPC   GL146959   9.718  19.743  26.575 -0.3012 -0.2848  0.2950
 2106DPPC   GL246960   9.760  20.103  26.684 -0.1309  0.1430  0.1630
 2106DPPC   C1A46961   9.361  19.874  26.306  0.2829  0.2078  0.0027
 2106DPPC   C2A46962   9.006  20.178  26.325  0.0233  0.2453 -0.4207
 2106DPPC   C3A46963   8.629  20.071  26.524 -0.1341  0.3183 -0.1889
 2106DPPC   C4A46964   8.395  19.905  26.982 -0.5626  0.0411 -0.0031
 2106DPPC   C1B46965   9.380  20.306  26.629  0.0965  0.1401 -0.2197
 2106DPPC   C2B46966   9.015  20.591  26.748 -0.1730  0.1223  0.0589
 2106DPPC   C3B46967   8.625  20.770  26.836  0.3531 -0.1756  0.2874
 2106DPPC   C4B46968   8.248  20.606  26.571  0.0556  0.0601 -0.1437
 2107DPPC   NC346969   6.239  15.262  39.685  0.3601 -0.2671  0.1237
 2107DPPC   PO446970   6.567  15.155  39.511  0.1399 -0.0105  0.5046
 2107DPPC   GL146971   7.022  14.926  39.444  0.1076  0.1178  0.0208
 2107DPPC   GL246972   7.211  15.192  39.375 -0.3303 -0.1835 -0.2424
 2107DPPC   C1A46973   7.178  14.559  39.108  0.5129  0.2579 -0.0150
 2107DPPC   C2A46974   7.562  14.422  39.091  0.2794 -0.2513 -0.1389
 2107DPPC   C3A46975   7.938  14.354  38.955 -0.1492  0.0002 -0.0578
 2107DPPC   C4A46976   8.234  14.106  38.708 -0.0531 -0.1919 -0.1030
 2107DPPC   C1B46977   7.389  15.003  38.982  0.5381  0.2231 -0.3839
 2107DPPC   C2B46978   7.723  14.861  38.816 -0.1487  0.1947 -0.0824
 2107DPPC   C3B46979   7.976  14.838  38.494 -0.1029  0.0442  0.2434
 2107DPPC   C4B46980   8.195  14.447  38.306  0.1147  0.0961 -0.3235
 2108DPPC   NC346981  20.349  16.746  28.928 -0.0455 -0.0974 -0.1639
 2108DPPC   PO446982  20.660  16.707  28.536  0.0488  0.0017  0.0996
 2108DPPC   GL146983  20.907  16.937  28.362  0.0473  0.0814  0.1970
 2108DPPC   GL246984  21.102  16.885  28.062  0.2159  0.3474 -0.0549
 2108DPPC   C1A46985  21.239  17.210  28.518 -0.2209 -0.3445  0.1942
 2108DPPC   C2A46986  21.698  17.414  28.415  0.2582 -0.1294 -0.1539
 2108DPPC   C3A46987  22.195  17.595  28.200 -0.1603  0.4182  0.3710
 2108DPPC   C4A46988  22.549  17.645  27.887 -0.1606  0.0843  0.2751
 2108DPPC   C1B46989  21.493  16.996  28.048 -0.2163  0.0155 -0.4437
 2108DPPC   C2B46990  21.804  16.968  27.757 -0.0558 -0.1331 -0.0453
 2108DPPC   C3B46991  22.192  16.980  27.369  0.2461 -0.2362 -0.1906
 2108DPPC   C4B46992  22.393  17.211  27.064  0.3167 -0.2475 -0.0964
 2109DPPC   NC346993   6.293   9.421  22.261 -0.0188 -0.2265  0.1983
 2109DPPC   PO446994   6.535   9.377  22.529 -0.1370  0.1422  0.0296
 2109DPPC   GL146995   6.867   9.300  22.769 -0.2901  0.0277  0.0646
 2109DPPC   GL246996   7.209   9.340  22.640 -0.2435  0.2382 -0.2442
 2109DPPC   C1A46997   7.139   9.167  23.088  0.1161  0.1170 -0.0842
 2109DPPC   C2A46998   7.321   9.348  23.464 -0.3863  0.1631  0.3043
 2109DPPC   C3A46999   7.734   9.463  23.584 -0.2319  0.2610  0.2394
 2109DPPC   C4A47000   8.118   9.465  23.303 -0.0051  0.2534  0.0112
 2109DPPC   C1B47001   7.629   9.318  22.531  0.1709 -0.1188 -0.0923
 2109DPPC   C2B47002   7.897   9.753  22.383  0.0666  0.2268  0.2614
 2109DPPC   C3B47003   8.168  10.011  22.147 -0.1179 -0.1114  0.0377
 2109DPPC   C4B47004   8.156  10.368  21.784  0.1776  0.1157 -0.1238
 2110DPPC   NC347005  11.361  22.668  21.448 -0.0228  0.0871 -0.3060
 2110DPPC   PO447006  11.687  22.829  21.362 -0.1161 -0.1133  0.1972
 2110DPPC   GL147007  11.842  22.518  21.647 -0.1254 -0.0135 -0.0030
 2110DPPC   GL247008  12.060  22.679  21.710 -0.2166 -0.2564 -0.2291
 2110DPPC   C1A47009  12.006  22.131  21.690  0.0914  0.2056  0.3380
 2110DPPC   C2A47010  12.246  21.851  22.097 -0.0800 -0.1918 -0.0865
 2110DPPC   C3A47011  12.160  21.429  22.362  0.0501  0.1091 -0.3031
 2110DPPC   C4A47012  12.319  21.409  22.758  0.1271 -0.2969 -0.1113
 2110DPPC   C1B47013  11.961  22.442  22.094 -0.1472 -0.2627  0.2925
 2110DPPC   C2B47014  11.690  22.152  22.228 -0.0423  0.2394 -0.0304
 2110DPPC   C3B47015  11.379  21.979  22.520  0.1176 -0.0054 -0.0682
 2110DPPC   C4B47016  11.541  21.813  22.874 -0.2210 -0.0869  0.2530
 2111DPPC   NC347017   4.868   7.292  27.385  0.0571 -0.0945 -0.0611
 2111DPPC   PO447018   4.641   7.618  27.441 -0.1490  0.1877 -0.0100
 2111DPPC   GL147019   5.041   7.728  27.565 -0.1257  0.1538 -0.2436
 2111DPPC   GL247020   5.150   7.682  27.267  0.1623 -0.1088 -0.2279
 2111DPPC   C1A47021   5.480   7.642  27.655  0.1019  0.0731  0.3517
 2111DPPC   C2A47022   5.864   7.821  27.540  0.1294  0.1330  0.2354
 2111DPPC   C3A47023   6.148   8.198  27.645  0.0351 -0.1233  0.2017
 2111DPPC   C4A47024   6.343   8.606  27.773 -0.1414 -0.1064  0.1080
 2111DPPC   C1B47025   5.419   8.009  27.337 -0.0326 -0.2791  0.1050
 2111DPPC   C2B47026   5.715   8.319  27.259 -0.2742  0.0394 -0.1053
 2111DPPC   C3B47027   6.023   8.634  27.355  0.2090  0.1645  0.1434
 2111DPPC   C4B47028   6.062   9.058  27.211  0.3217  0.1795 -0.0260
 2112DPPC   NC347029   3.536  14.821  32.191 -0.1285  0.1331  0.3889
 2112DPPC   PO447030   3.412  14.350  32.054 -0.1864 -0.1005  0.2565
 2112DPPC   GL147031   3.669  14.373  32.366  0.2122  0.3772  0.0624
 2112DPPC   GL247032   3.608  14.258  32.646  0.1277  0.2244  0.1134
 2112DPPC   C1A47033   4.056  14.479  32.586 -0.1267 -0.2816 -0.2011
 2112DPPC   C2A47034   4.464  14.615  32.551 -0.0438  0.2993 -0.3313
 2112DPPC   C3A47035   4.908  14.623  32.737  0.1505  0.1081  0.1946
 2112DPPC   C4A47036   5.135  14.757  33.112  0.0340 -0.0178 -0.0677
 2112DPPC   C1B47037   4.039  14.083  32.833  0.1137  0.0365  0.0241
 2112DPPC   C2B47038   4.419  14.200  33.007 -0.1965  0.0841  0.0225
 2112DPPC   C3B47039   4.519  14.632  33.089 -0.0912  0.3354  0.0505
 2112DPPC   C4B47040   4.712  15.021  33.092 -0.1234  0.2221  0.1130
 2113DPPC   NC347041   3.776  16.492  35.029 -0.1155 -0.0531  0.2946
 2113DPPC   PO447042   4.014  16.507  34.554  0.2324  0.0683 -0.0731
 2113DPPC   GL147043   4.295  16.150  34.390  0.3583  0.0878  0.0983
 2113DPPC   GL247044   4.228  15.878  34.403  0.0049  0.0417  0.2702
 2113DPPC   C1A47045   4.669  16.047  34.538  0.0092  0.1221  0.0755
 2113DPPC   C2A47046   5.108  16.027  34.555 -0.0435 -0.2788  0.1136
 2113DPPC   C3A47047   5.476  16.111  34.482  0.2339 -0.0603 -0.2581
 2113DPPC   C4A47048   5.925  15.978  34.582  0.0464 -0.0219  0.4112
 2113DPPC   C1B47049   4.520  15.708  34.250  0.4161  0.0339 -0.0305
 2113DPPC   C2B47050   4.805  15.729  34.175  0.3516 -0.1508 -0.1226
 2113DPPC   C3B47051   5.268  15.923  34.101  0.2450 -0.2203 -0.1460
 2113DPPC   C4B47052   5.720  15.752  34.070  0.0923 -0.1026  0.0812
 2114DPPC   NC347053  19.083   5.911  34.478 -0.1016  0.3311  0.1958
 2114DPPC   PO447054  18.726   5.732  34.340  0.5291  0.1397  0.3123
 2114DPPC   GL147055  19.074   5.500  34.162 -0.2299  0.3554 -0.0768
 2114DPPC   GL247056  19.339   5.460  34.367 -0.2469  0.0937 -0.2068
 2114DPPC   C1A47057  19.113   5.028  34.335 -0.0041  0.0082 -0.0079
 2114DPPC   C2A47058  19.345   4.726  34.583  0.1425  0.1643 -0.3487
 2114DPPC   C3A47059  19.699   4.677  34.901 -0.0900 -0.0062  0.1558
 2114DPPC   C4A47060  19.920   4.914  35.169 -0.3107  0.0397 -0.4001
 2114DPPC   C1B47061  19.642   5.133  34.264 -0.0669 -0.0101 -0.0604
 2114DPPC   C2B47062  19.822   4.746  34.419  0.0090  0.0769  0.0907
 2114DPPC   C3B47063  20.018   4.400  34.732 -0.0560 -0.2890  0.1074
 2114DPPC   C4B47064  20.127   4.085  34.994  0.2476 -0.0323  0.0779
 2115DPPC   NC347065  15.688  24.501  35.020  0.0752 -0.2585 -0.1512
 2115DPPC   PO447066  15.303  24.617  34.800 -0.0097  0.0325 -0.0487
 2115DPPC   GL147067  15.205  24.157  34.625  0.0445 -0.1950 -0.1164
 2115DPPC   GL247068  15.509  23.905  34.768  0.2332 -0.2227  0.1599
 2115DPPC   C1A47069  14.957  23.900  34.812  0.0811 -0.2530 -0.1717
 2115DPPC   C2A47070  14.794  23.551  34.673  0.0179  0.2844  0.1795
 2115DPPC   C3A47071  14.692  23.119  34.366  0.1438 -0.0497  0.1028
 2115DPPC   C4A47072  14.783  23.123  33.830  0.0721  0.0058  0.3128
 2115DPPC   C1B47073  15.378  23.720  34.465  0.0071  0.1665 -0.3706
 2115DPPC   C2B47074  15.226  23.481  34.097 -0.0568 -0.3039 -0.2875
 2115DPPC   C3B47075  15.221  22.950  33.894  0.0636  0.2056  0.2045
 2115DPPC   C4B47076  15.021  22.519  33.768 -0.1328  0.2456  0.0162
 2116DPPC   NC347077   3.797  11.434  26.446 -0.3616  0.1724  0.2685
 2116DPPC   PO447078   4.085  11.131  26.553 -0.2680  0.0554 -0.1766
 2116DPPC   GL147079   4.507  11.290  26.434  0.0488  0.1120 -0.1457
 2116DPPC   GL247080   4.757  11.021  26.272 -0.2407  0.0998  0.0854
 2116DPPC   C1A47081   4.828  11.566  26.692  0.1646 -0.2164 -0.2251
 2116DPPC   C2A47082   5.317  11.713  26.824  0.1705  0.0085  0.2691
 2116DPPC   C3A47083   5.720  11.885  26.806 -0.5616  0.1453  0.1478
 2116DPPC   C4A47084   5.799  12.233  26.821 -0.1686 -0.3763 -0.0316
 2116DPPC   C1B47085   5.139  11.179  26.439 -0.0470  0.1195 -0.3411
 2116DPPC   C2B47086   5.598  11.388  26.392 -0.0802  0.3208 -0.2829
 2116DPPC   C3B47087   6.040  11.660  26.531 -0.1997 -0.2091  0.0485
 2116DPPC   C4B47088   6.493  11.501  26.636 -0.3952 -0.0992 -0.0221
 2117DPPC   NC347089  24.977   6.019  22.496  0.2065  0.2108 -0.0118
 2117DPPC   PO447090  25.387   5.994  22.516 -0.1323 -0.0214  0.0824
 2117DPPC   GL147091  25.086   6.411  22.802  0.3158 -0.1351 -0.0008
 2117DPPC   GL247092  24.907   6.610  22.626  0.1786 -0.1135 -0.2306
 2117DPPC   C1A47093  24.962   6.394  23.221  0.2484  0.2036 -0.1355
 2117DPPC   C2A47094  24.695   6.758  23.482  0.3051 -0.0412  0.0912
 2117DPPC   C3A47095  24.307   6.859  23.609  0.0675  0.1990 -0.2835
 2117DPPC   C4A47096  23.926   6.978  23.920  0.0952 -0.1909 -0.4134
 2117DPPC   C1B47097  24.590   6.802  22.856  0.0727 -0.0815  0.1730
 2117DPPC   C2B47098  24.214   6.970  23.077  0.0116  0.2680 -0.1197
 2117DPPC   C3B47099  23.927   7.226  23.250  0.2869  0.4989  0.1609
 2117DPPC   C4B47100  23.779   7.473  23.589  0.1391  0.3249 -0.1188
 2118DPPC   NC347101   8.622  20.431  22.109 -0.1550 -0.1326  0.0336
 2118DPPC   PO447102   8.898  20.752  22.374  0.0670  0.0824  0.5641
 2118DPPC   GL147103   9.073  20.935  22.566 -0.3300 -0.1347 -0.2355
 2118DPPC   GL247104   9.247  21.195  22.542 -0.0636  0.0533 -0.1956
 2118DPPC   C1A47105   9.335  20.762  22.874  0.0953  0.1058  0.0253
 2118DPPC   C2A47106   9.738  20.523  23.067 -0.1625 -0.1117  0.1965
 2118DPPC   C3A47107   9.753  20.332  23.482  0.0842 -0.2322 -0.1812
 2118DPPC   C4A47108   9.860  19.951  23.624 -0.0613 -0.2422  0.1394
 2118DPPC   C1B47109   9.718  21.163  22.701  0.1294  0.1231  0.0050
 2118DPPC   C2B47110  10.048  21.001  23.000 -0.5272  0.0425 -0.2598
 2118DPPC   C3B47111  10.198  20.788  23.312  0.3658 -0.0342  0.1765
 2118DPPC   C4B47112  10.368  20.464  23.517  0.0276  0.2631  0.1619
 2119DPPC   NC347113  16.807   0.525  33.715  0.0203 -0.1782  0.1459
 2119DPPC   PO447114  16.697   0.689  34.098  0.2072 -0.0037  0.1264
 2119DPPC   GL147115  16.659   1.143  34.199  0.0797  0.1911 -0.2060
 2119DPPC   GL247116  16.491   1.216  33.893  0.0752 -0.2013  0.0760
 2119DPPC   C1A47117  16.541   1.568  34.365  0.1445  0.1845 -0.1076
 2119DPPC   C2A47118  16.417   1.993  34.220 -0.0076  0.1852 -0.2592
 2119DPPC   C3A47119  16.468   2.311  33.855 -0.0839 -0.0397  0.2568
 2119DPPC   C4A47120  16.475   2.567  33.529  0.3226 -0.0253 -0.1809
 2119DPPC   C1B47121  16.450   1.718  33.770 -0.0304  0.2287  0.1660
 2119DPPC   C2B47122  16.467   1.986  33.469  0.1047  0.1199 -0.1009
 2119DPPC   C3B47123  16.520   2.134  33.099 -0.1064  0.0797 -0.0876
 2119DPPC   C4B47124  16.873   2.226  32.789 -0.1140 -0.0034  0.1178
 2120DPPC   NC347125   9.453  13.948  24.503 -0.0873 -0.3686 -0.1870
 2120DPPC   PO447126   9.615  14.292  24.656 -0.0068  0.1359 -0.3964
 2120DPPC   GL147127   9.169  14.466  24.598 -0.2618  0.2754 -0.0796
 2120DPPC   GL247128   9.173  14.630  24.287  0.1816 -0.0340 -0.2715
 2120DPPC   C1A47129   8.745  14.309  24.530 -0.0208 -0.1134 -0.1087
 2120DPPC   C2A47130   8.241  14.350  24.310 -0.3235 -0.1186  0.1055
 2120DPPC   C3A47131   7.815  14.353  24.295  0.2075  0.1336 -0.1636
 2120DPPC   C4A47132   7.460  14.617  24.359 -0.1944 -0.0270  0.3648
 2120DPPC   C1B47133   8.875  14.464  24.019 -0.0327 -0.0680 -0.2305
 2120DPPC   C2B47134   8.537  14.304  23.825 -0.0280 -0.1546  0.2167
 2120DPPC   C3B47135   8.488  14.252  23.390 -0.1811 -0.0240  0.1059
 2120DPPC   C4B47136   8.477  13.848  23.211  0.4884  0.0146  0.2129
 2121DPPC   NC347137  14.583  24.579  24.130  0.2204 -0.0586  0.1352
 2121DPPC   PO447138  14.078  24.423  24.187 -0.3441  0.1340  0.3148
 2121DPPC   GL147139  13.798  24.171  24.252 -0.0738  0.1509 -0.1618
 2121DPPC   GL247140  13.923  23.892  24.138 -0.4138  0.0073  0.1455
 2121DPPC   C1A47141  13.556  24.126  24.593 -0.0917  0.2997  0.0007
 2121DPPC   C2A47142  13.139  24.054  24.797  0.0723  0.0391 -0.2246
 2121DPPC   C3A47143  12.872  24.076  25.177  0.0689  0.2789  0.2564
 2121DPPC   C4A47144  12.532  24.045  25.428 -0.0078  0.1726  0.3459
 2121DPPC   C1B47145  14.193  23.559  23.801 -0.0134 -0.2689 -0.2261
 2121DPPC   C2B47146  14.531  23.255  23.634 -0.0619  0.0979 -0.1227
 2121DPPC   C3B47147  14.458  22.879  23.514 -0.3848 -0.0990  0.3450
 2121DPPC   C4B47148  14.351  22.586  23.850 -0.0589  0.2438  0.1897
 2122DPPC   NC347149  26.250  18.344  33.218 -0.0646  0.2021  0.5085
 2122DPPC   PO447150  26.118  18.538  33.609 -0.2194  0.1064 -0.1842
 2122DPPC   GL147151  25.712  18.450  33.392 -0.3970  0.0061 -0.3460
 2122DPPC   GL247152  25.487  18.634  33.302  0.2433  0.0527  0.0910
 2122DPPC   C1A47153  25.242  18.211  33.256 -0.0840 -0.0015 -0.0010
 2122DPPC   C2A47154  24.830  18.099  33.124  0.1776  0.4041  0.0573
 2122DPPC   C3A47155  24.596  17.852  32.760 -0.3080 -0.1871 -0.0560
 2122DPPC   C4A47156  24.336  17.760  32.415  0.0797 -0.4014 -0.1876
 2122DPPC   C1B47157  25.212  18.510  33.592  0.2018 -0.1955  0.0165
 2122DPPC   C2B47158  24.827  18.299  33.582  0.0421 -0.0615  0.2706
 2122DPPC   C3B47159  24.462  18.032  33.585 -0.1880 -0.3971 -0.0416
 2122DPPC   C4B47160  23.977  18.104  33.421  0.1232  0.2791 -0.1382
 2123DPPC   NC347161  12.900  12.784  26.546  0.0369  0.0815 -0.1284
 2123DPPC   PO447162  13.248  12.714  26.703 -0.0518  0.5168  0.2107
 2123DPPC   GL147163  13.541  12.867  26.475 -0.2086 -0.1118  0.1260
 2123DPPC   GL247164  13.883  12.715  26.285 -0.2978 -0.1405  0.3428
 2123DPPC   C1A47165  13.625  13.179  26.223  0.0202 -0.0959  0.2733
 2123DPPC   C2A47166  13.953  13.461  26.048  0.0566 -0.0864 -0.0898
 2123DPPC   C3A47167  14.349  13.444  25.921 -0.0776  0.1631  0.0944
 2123DPPC   C4A47168  14.764  13.650  25.720 -0.0402  0.0062 -0.0685
 2123DPPC   C1B47169  14.052  12.937  25.925  0.0055  0.1572 -0.1247
 2123DPPC   C2B47170  14.373  12.985  25.599  0.0573 -0.0246 -0.1664
 2123DPPC   C3B47171  14.527  12.788  25.161  0.0371 -0.2244 -0.4200
 2123DPPC   C4B47172  14.994  12.836  24.965  0.0940 -0.0473 -0.0280
 2124DPPC   NC347173  21.275  19.170  39.538  0.1598 -0.0517 -0.3254
 2124DPPC   PO447174  21.142  19.619  39.408 -0.2799  0.1682 -0.0320
 2124DPPC   GL147175  20.823  19.453  39.267 -0.1895  0.0095 -0.2270
 2124DPPC   GL247176  20.662  19.506  39.560  0.1839  0.0756 -0.2220
 2124DPPC   C1A47177  20.658  19.199  38.973  0.2121  0.1306 -0.1074
 2124DPPC   C2A47178  20.481  18.782  38.848  0.1558  0.0461 -0.0810
 2124DPPC   C3A47179  20.155  18.461  38.766  0.1661 -0.0029  0.0270
 2124DPPC   C4A47180  20.079  18.110  38.509  0.1137 -0.3092 -0.3456
 2124DPPC   C1B47181  20.363  19.191  39.508  0.0831  0.1618  0.4116
 2124DPPC   C2B47182  20.265  18.751  39.324 -0.1336 -0.0987  0.3702
 2124DPPC   C3B47183  20.261  18.297  39.241  0.0520 -0.1864 -0.0395
 2124DPPC   C4B47184  20.496  18.101  38.924  0.0380 -0.0732  0.3627
 2125DPPC   NC347185  18.130  15.756  39.087  0.2275  0.1691  0.0864
 2125DPPC   PO447186  18.308  15.488  38.736 -0.2674  0.1990  0.4880
 2125DPPC   GL147187  18.564  15.455  39.108 -0.2149  0.0988 -0.3427
 2125DPPC   GL247188  18.833  15.246  39.177 -0.0873  0.0101 -0.1801
 2125DPPC   C1A47189  18.478  15.670  39.571 -0.1353  0.1609  0.1119
 2125DPPC   C2A47190  18.849  15.773  39.805 -0.1830 -0.4851  0.0832
 2125DPPC   C3A47191  18.980  16.147  40.052 -0.1372  0.4181 -0.1812
 2125DPPC   C4A47192  19.028  16.450  40.504  0.0671  0.2587 -0.1603
 2125DPPC   C1B47193  18.804  15.180  39.558  0.0091  0.0102  0.5357
 2125DPPC   C2B47194  18.910  15.341  39.947 -0.1669 -0.1209  0.2431
 2125DPPC   C3B47195  18.719  15.546  40.292  0.2560  0.1230  0.0756
 2125DPPC   C4B47196  18.409  15.401  40.498  0.1060 -0.0289  0.1576
 2126DPPC   NC347197  22.075  15.613  35.270  0.0925  0.0833 -0.0520
 2126DPPC   PO447198  21.842  15.429  35.615 -0.2626  0.1622 -0.1554
 2126DPPC   GL147199  22.287  15.460  35.844 -0.2208  0.1577 -0.0860
 2126DPPC   GL247200  22.643  15.363  35.773 -0.3367  0.2346  0.2322
 2126DPPC   C1A47201  22.528  15.618  36.186  0.1297 -0.3816 -0.3374
 2126DPPC   C2A47202  22.662  15.954  36.370 -0.0250 -0.2176  0.2855
 2126DPPC   C3A47203  22.896  16.208  36.737 -0.0513  0.0048  0.3117
 2126DPPC   C4A47204  23.051  16.216  37.188  0.1453 -0.1701  0.2851
 2126DPPC   C1B47205  23.180  15.477  35.958 -0.0482 -0.1410  0.3142
 2126DPPC   C2B47206  23.688  15.208  36.002  0.0621 -0.0076 -0.0269
 2126DPPC   C3B47207  24.072  15.104  35.678 -0.0025  0.0298  0.3791
 2126DPPC   C4B47208  24.460  14.997  35.633 -0.0424  0.2304 -0.6013
 2127DPPC   NC347209  15.305  15.625  19.907  0.2513 -0.2575 -0.1185
 2127DPPC   PO447210  15.711  15.472  19.686  0.0104  0.1560  0.5315
 2127DPPC   GL147211  15.548  15.362  19.336 -0.0592  0.1111  0.2458
 2127DPPC   GL247212  15.285  15.576  19.328 -0.0798  0.2479 -0.0434
 2127DPPC   C1A47213  15.256  15.217  19.033  0.2813  0.0520  0.1176
 2127DPPC   C2A47214  14.995  15.368  18.670 -0.1663 -0.2920 -0.0142
 2127DPPC   C3A47215  14.971  15.622  18.275  0.0526 -0.0849  0.2449
 2127DPPC   C4A47216  15.153  15.655  17.916 -0.2895 -0.2460 -0.0966
 2127DPPC   C1B47217  15.470  15.680  18.970 -0.0662  0.1026 -0.1652
 2127DPPC   C2B47218  15.187  15.945  18.670  0.1104 -0.2443  0.2784
 2127DPPC   C3B47219  15.216  16.063  18.290 -0.0722  0.3808 -0.3147
 2127DPPC   C4B47220  15.380  16.163  17.934  0.1433  0.0827 -0.0100
 2128DPPC   NC347221  21.539   7.894  36.417 -0.2354 -0.1564  0.2060
 2128DPPC   PO447222  21.235   7.571  36.746  0.2227 -0.0260  0.0197
 2128DPPC   GL147223  21.622   7.509  36.711 -0.0865  0.1457  0.2694
 2128DPPC   GL247224  21.627   7.187  36.748 -0.1876  0.0204  0.2436
 2128DPPC   C1A47225  22.074   7.630  36.887 -0.0448  0.2720 -0.0084
 2128DPPC   C2A47226  22.527   7.769  36.953 -0.2056 -0.2983 -0.0832
 2128DPPC   C3A47227  22.671   7.737  37.425 -0.4485  0.1649  0.0833
 2128DPPC   C4A47228  22.593   7.625  37.825 -0.2633 -0.1751 -0.0724
 2128DPPC   C1B47229  22.021   7.096  37.037 -0.1163  0.0651 -0.0453
 2128DPPC   C2B47230  22.432   7.249  36.869 -0.4304 -0.2593 -0.2389
 2128DPPC   C3B47231  22.847   6.984  36.800  0.1805  0.0177  0.1079
 2128DPPC   C4B47232  23.190   6.709  36.696  0.2670 -0.3208  0.4122
 2129DPPC   NC347233  22.483  10.212  21.908  0.0192  0.1050  0.0592
 2129DPPC   PO447234  22.623  10.022  22.340 -0.0998 -0.0298 -0.1012
 2129DPPC   GL147235  22.972   9.850  22.187  0.0204 -0.0636 -0.0531
 2129DPPC   GL247236  23.296   9.965  22.237 -0.0851  0.2218 -0.2925
 2129DPPC   C1A47237  23.420   9.597  21.882  0.2521  0.0765  0.1442
 2129DPPC   C2A47238  23.416   9.160  21.602  0.3297 -0.1378 -0.0436
 2129DPPC   C3A47239  23.594   8.884  21.239  0.2218  0.5889  0.0658
 2129DPPC   C4A47240  23.610   8.418  21.067  0.0526 -0.0384  0.3794
 2129DPPC   C1B47241  23.741  10.045  22.001 -0.3268  0.0388  0.0603
 2129DPPC   C2B47242  24.147  10.093  22.232  0.1523  0.0856 -0.0556
 2129DPPC   C3B47243  24.475  10.409  22.243  0.3626 -0.0077  0.0996
 2129DPPC   C4B47244  24.957  10.511  22.289 -0.0626 -0.2084  0.0031
 2130DPPC   NC347245  21.885   8.381  22.713 -0.3414 -0.0044  0.0658
 2130DPPC   PO447246  21.559   8.123  22.925  0.0253 -0.2958 -0.0826
 2130DPPC   GL147247  21.805   7.835  22.647 -0.1622 -0.0675 -0.0493
 2130DPPC   GL247248  21.506   7.741  22.442 -0.1101 -0.2804  0.0164
 2130DPPC   C1A47249  22.244   7.676  22.355 -0.0804 -0.0455  0.1388
 2130DPPC   C2A47250  22.622   7.456  22.250 -0.0641  0.0515  0.0980
 2130DPPC   C3A47251  22.898   7.192  22.271  0.1178 -0.1899 -0.1093
 2130DPPC   C4A47252  23.259   7.105  21.994  0.2985 -0.0389  0.1875
 2130DPPC   C1B47253  21.825   7.654  22.117  0.0547 -0.0624 -0.2987
 2130DPPC   C2B47254  22.141   7.543  21.864  0.1483  0.2425  0.2680
 2130DPPC   C3B47255  22.441   7.435  21.636 -0.1714  0.0848  0.1993
 2130DPPC   C4B47256  22.778   7.235  21.704  0.0537 -0.1149  0.1455
 2131DPPC   NC347257  13.772   5.103  26.912  0.1153 -0.2884  0.1653
 2131DPPC   PO447258  13.800   4.826  27.349  0.0333  0.0051 -0.2607
 2131DPPC   GL147259  13.653   4.450  27.211  0.0223  0.3906  0.1393
 2131DPPC   GL247260  13.678   4.599  26.818  0.1057  0.1945 -0.0418
 2131DPPC   C1A47261  13.284   4.172  27.053  0.1980 -0.0793  0.5355
 2131DPPC   C2A47262  13.218   3.811  27.060 -0.2297 -0.1052 -0.0937
 2131DPPC   C3A47263  12.933   3.441  27.047  0.0166 -0.2607  0.0292
 2131DPPC   C4A47264  12.883   2.964  26.815 -0.2516  0.3933 -0.1694
 2131DPPC   C1B47265  13.613   4.210  26.700  0.3753 -0.3190  0.3571
 2131DPPC   C2B47266  13.429   3.840  26.574 -0.4179  0.1959 -0.0048
 2131DPPC   C3B47267  13.616   3.475  26.358 -0.1459  0.0008  0.0366
 2131DPPC   C4B47268  13.573   3.030  26.646 -0.2097 -0.1934  0.1407
 2132DPPC   NC347269   8.308  10.312  19.693  0.0455  0.2994 -0.1812
 2132DPPC   PO447270   7.969  10.635  19.556 -0.0559 -0.0276 -0.0318
 2132DPPC   GL147271   8.229  10.931  19.916  0.1624  0.3347  0.1121
 2132DPPC   GL247272   8.412  10.704  19.979  0.3122 -0.0980  0.0506
 2132DPPC   C1A47273   8.371  11.147  20.253 -0.3691 -0.2024 -0.0316
 2132DPPC   C2A47274   8.876  11.272  20.454 -0.2072 -0.2808 -0.0531
 2132DPPC   C3A47275   9.029  11.603  20.639  0.0039  0.3718  0.1706
 2132DPPC   C4A47276   9.093  11.661  21.079 -0.0826 -0.0961 -0.1899
 2132DPPC   C1B47277   8.801  10.833  20.297  0.2281 -0.3705  0.0667
 2132DPPC   C2B47278   8.912  10.831  20.778 -0.0933 -0.3871  0.1411
 2132DPPC   C3B47279   9.014  10.497  21.136  0.0291  0.0113 -0.0680
 2132DPPC   C4B47280   9.257  10.617  21.571 -0.1864 -0.5113 -0.2299
 2133DPPC   NC347281  14.671  21.924  18.855  0.2416  0.3337 -0.2846
 2133DPPC   PO447282  14.309  21.842  19.180  0.1551 -0.3578  0.3423
 2133DPPC   GL147283  14.239  21.672  19.518  0.0961 -0.0039 -0.2374
 2133DPPC   GL247284  14.501  21.551  19.631  0.1100 -0.3637  0.0849
 2133DPPC   C1A47285  14.086  21.297  19.711 -0.0676  0.2434 -0.0023
 2133DPPC   C2A47286  14.064  21.061  20.003  0.1292 -0.0128 -0.0984
 2133DPPC   C3A47287  14.116  20.770  20.357 -0.1601 -0.1419 -0.1799
 2133DPPC   C4A47288  14.443  20.573  20.657  0.0562 -0.0551 -0.0532
 2133DPPC   C1B47289  14.619  21.114  19.706 -0.0983 -0.1958  0.0412
 2133DPPC   C2B47290  14.858  20.773  19.701  0.0748 -0.1309 -0.0531
 2133DPPC   C3B47291  15.070  20.446  19.932 -0.1901 -0.1379 -0.1816
 2133DPPC   C4B47292  14.947  20.176  20.390  0.1523  0.1458  0.4877
 2134DPPC   NC347293   9.295   2.468  32.726  0.0466  0.1552 -0.0484
 2134DPPC   PO447294   9.516   2.126  32.548 -0.3618 -0.3289  0.1306
 2134DPPC   GL147295   9.758   2.456  32.357  0.0280 -0.1034 -0.2406
 2134DPPC   GL247296  10.041   2.403  32.537  0.0443 -0.1244  0.1119
 2134DPPC   C1A47297   9.925   2.857  32.442  0.0010 -0.0243  0.2982
 2134DPPC   C2A47298  10.331   3.011  32.625  0.0118 -0.2614 -0.2429
 2134DPPC   C3A47299  10.789   3.115  32.620 -0.0660 -0.0975  0.0035
 2134DPPC   C4A47300  11.230   2.947  32.521  0.0580  0.0240  0.1978
 2134DPPC   C1B47301  10.336   2.569  32.815  0.2234 -0.0152  0.2831
 2134DPPC   C2B47302  10.558   2.906  33.149 -0.4590 -0.2232  0.3748
 2134DPPC   C3B47303  10.915   3.200  33.102 -0.4070 -0.0342 -0.0610
 2134DPPC   C4B47304  11.158   3.419  32.859  0.1936 -0.0474  0.2596
 2135DPPC   NC347305  10.537   3.513  38.004  0.1609  0.2516 -0.3528
 2135DPPC   PO447306  10.482   3.730  38.305 -0.0232  0.2292 -0.2058
 2135DPPC   GL147307  10.672   4.100  38.159 -0.2715 -0.3165 -0.0186
 2135DPPC   GL247308  10.395   4.213  38.164 -0.3156 -0.0703  0.0395
 2135DPPC   C1A47309  11.049   4.269  37.911 -0.0815  0.0682 -0.1436
 2135DPPC   C2A47310  11.249   4.530  37.600 -0.3102  0.2344  0.4999
 2135DPPC   C3A47311  11.209   4.915  37.352 -0.1102  0.1340 -0.0760
 2135DPPC   C4A47312  11.521   5.203  37.208  0.2679  0.1574 -0.3157
 2135DPPC   C1B47313  10.663   4.558  37.980 -0.1397  0.0823 -0.0382
 2135DPPC   C2B47314  10.895   4.860  37.747 -0.1771  0.2588 -0.2162
 2135DPPC   C3B47315  10.828   5.347  37.627 -0.1130 -0.0797  0.0107
 2135DPPC   C4B47316  11.036   5.735  37.817 -0.1192 -0.1319 -0.0542
 2136DPPC   NC347317  16.049  20.267  27.650 -0.2537 -0.1599 -0.0964
 2136DPPC   PO447318  16.241  20.513  27.325 -0.3069  0.0905 -0.4355
 2136DPPC   GL147319  16.285  20.851  27.377 -0.1265  0.3480 -0.0879
 2136DPPC   GL247320  16.461  20.934  27.524 -0.0773  0.0641 -0.3219
 2136DPPC   C1A47321  16.310  21.209  27.108  0.2334  0.1396 -0.0793
 2136DPPC   C2A47322  16.579  21.633  27.044 -0.2161 -0.0055  0.0933
 2136DPPC   C3A47323  16.881  21.945  26.990 -0.1464  0.0892  0.0970
 2136DPPC   C4A47324  17.057  22.409  27.016  0.2818 -0.1284  0.0549
 2136DPPC   C1B47325  16.678  21.347  27.426 -0.1307 -0.0308  0.1689
 2136DPPC   C2B47326  17.067  21.539  27.139  0.4064  0.2418 -0.2353
 2136DPPC   C3B47327  17.382  21.859  26.960 -0.3844  0.0348 -0.2158
 2136DPPC   C4B47328  17.558  22.172  27.016  0.2309 -0.0096  0.2161
 2137DPPC   NC347329  26.476  16.878  32.572 -0.0909  0.0317  0.3155
 2137DPPC   PO447330  26.348  17.376  32.546 -0.2668 -0.1250  0.1667
 2137DPPC   GL147331  26.045  17.114  32.643 -0.0867 -0.1597 -0.0880
 2137DPPC   GL247332  26.089  16.665  32.755 -0.1622  0.2175 -0.3658
 2137DPPC   C1A47333  25.617  17.027  32.760  0.2018  0.0738 -0.0672
 2137DPPC   C2A47334  25.178  17.047  32.727 -0.2562 -0.0925 -0.1728
 2137DPPC   C3A47335  24.876  17.003  32.391  0.0048  0.0196  0.0044
 2137DPPC   C4A47336  24.540  17.337  32.475 -0.1061  0.0935 -0.0178
 2137DPPC   C1B47337  25.981  16.299  33.001 -0.0989 -0.1150  0.2313
 2137DPPC   C2B47338  25.631  16.258  33.163 -0.3725  0.0538 -0.0148
 2137DPPC   C3B47339  25.275  16.049  33.089  0.2583 -0.1884 -0.0671
 2137DPPC   C4B47340  25.033  15.734  33.003 -0.2080 -0.2527 -0.3294
 2138DPPC   NC347341  21.815   4.446  19.657 -0.0578  0.1894 -0.0736
 2138DPPC   PO447342  21.460   4.186  19.577  0.0699  0.0689 -0.2554
 2138DPPC   GL147343  21.279   4.601  19.728 -0.1477 -0.0786  0.0348
 2138DPPC   GL247344  21.271   4.585  20.086 -0.0254  0.1402  0.0606
 2138DPPC   C1A47345  21.269   5.051  19.938  0.1980 -0.3965  0.0375
 2138DPPC   C2A47346  21.495   5.423  20.073  0.3394  0.0354 -0.3088
 2138DPPC   C3A47347  21.385   5.663  20.387  0.2937 -0.2844  0.1010
 2138DPPC   C4A47348  21.345   5.618  20.807 -0.3692  0.2143  0.1963
 2138DPPC   C1B47349  21.112   4.588  20.511 -0.0920  0.0651  0.0543
 2138DPPC   C2B47350  20.997   4.911  20.924  0.0239  0.2284 -0.2500
 2138DPPC   C3B47351  21.072   5.334  21.076 -0.0016 -0.0308 -0.1175
 2138DPPC   C4B47352  21.087   5.650  21.386  0.1075 -0.0577  0.1281
 2139DPPC   NC347353   0.562  15.130  31.275  0.1160 -0.3247  0.2318
 2139DPPC   PO447354   0.201  15.370  31.203 -0.1764  0.1352  0.4166
 2139DPPC   GL147355  26.850  15.426  31.219 -0.1379  0.1611 -0.3174
 2139DPPC   GL247356  26.648  15.684  31.202 -0.0382  0.0447 -0.1638
 2139DPPC   C1A47357  26.482  15.242  31.172  0.1498  0.2613 -0.1936
 2139DPPC   C2A47358  26.043  15.251  31.329  0.1885  0.1159 -0.1388
 2139DPPC   C3A47359  25.611  15.330  31.378 -0.2791  0.0309 -0.0383
 2139DPPC   C4A47360  25.162  15.307  31.152 -0.0054 -0.0961  0.0484
 2139DPPC   C1B47361  26.168  15.805  31.208  0.3213  0.0456 -0.0854
 2139DPPC   C2B47362  25.769  15.908  31.389 -0.0974  0.1414  0.5042
 2139DPPC   C3B47363  25.354  15.840  31.306 -0.0019 -0.1280 -0.3470
 2139DPPC   C4B47364  24.946  15.577  31.559  0.2895 -0.1455 -0.0216
 2140DPPC   NC347365  12.918  23.840  36.268  0.4109 -0.1226  0.0051
 2140DPPC   PO447366  12.683  24.055  35.930 -0.1018 -0.0062  0.0511
 2140DPPC   GL147367  12.911  23.753  35.650  0.1043 -0.1481  0.0614
 2140DPPC   GL247368  13.160  23.856  35.547  0.2454  0.2780 -0.0757
 2140DPPC   C1A47369  13.061  23.287  35.585  0.2489  0.0848 -0.1476
 2140DPPC   C2A47370  13.404  22.933  35.681 -0.0479 -0.1781 -0.1413
 2140DPPC   C3A47371  13.665  22.481  35.585 -0.1014 -0.2095  0.1625
 2140DPPC   C4A47372  13.684  22.043  35.245  0.0744 -0.0106  0.2237
 2140DPPC   C1B47373  13.411  23.555  35.433 -0.1244 -0.2378 -0.1004
 2140DPPC   C2B47374  13.461  23.177  35.259 -0.0203 -0.0724  0.2346
 2140DPPC   C3B47375  13.442  23.109  34.860 -0.0386 -0.0258  0.0577
 2140DPPC   C4B47376  13.503  22.670  34.664  0.2194  0.2161  0.2421
 2141DPPC   NC347377  17.685  15.421  14.984  0.2598  0.0480 -0.4246
 2141DPPC   PO447378  17.354  15.130  14.808  0.2273 -0.0309  0.1216
 2141DPPC   GL147379  17.352  15.111  15.260  0.0852  0.1447 -0.1523
 2141DPPC   GL247380  17.728  14.992  15.364 -0.0117  0.0867 -0.1766
 2141DPPC   C1A47381  17.455  15.080  15.695  0.1146 -0.0916  0.1971
 2141DPPC   C2A47382  17.305  14.923  16.107 -0.0855 -0.2703 -0.0903
 2141DPPC   C3A47383  17.297  14.611  16.451  0.2867  0.0473  0.1446
 2141DPPC   C4A47384  17.467  14.404  16.835 -0.1119 -0.1409 -0.0903
 2141DPPC   C1B47385  17.949  14.689  15.704 -0.0624 -0.3124 -0.1711
 2141DPPC   C2B47386  18.191  14.416  15.828 -0.1328  0.0314 -0.1604
 2141DPPC   C3B47387  18.280  14.116  16.105 -0.0804  0.2282  0.0415
 2141DPPC   C4B47388  18.613  14.226  16.393 -0.1231  0.2234 -0.1690
 2142DPPC   NC347389   8.585  13.314  26.600  0.0026 -0.0784  0.0668
 2142DPPC   PO447390   8.390  13.459  26.338  0.1459 -0.0159  0.2227
 2142DPPC   GL147391   8.136  13.256  26.084  0.0041 -0.1617  0.0201
 2142DPPC   GL247392   7.914  13.030  26.176  0.2564 -0.0823  0.0984
 2142DPPC   C1A47393   7.808  13.420  25.838  0.0060  0.1681 -0.0584
 2142DPPC   C2A47394   7.456  13.479  25.658  0.1076  0.0563 -0.2897
 2142DPPC   C3A47395   7.055  13.519  25.506 -0.1795 -0.0443 -0.0042
 2142DPPC   C4A47396   6.910  13.357  25.198  0.4695 -0.0661 -0.3034
 2142DPPC   C1B47397   7.518  13.065  25.908 -0.2967 -0.0105 -0.3359
 2142DPPC   C2B47398   7.117  13.210  25.938  0.2274 -0.1890 -0.0806
 2142DPPC   C3B47399   6.701  13.223  25.773 -0.3726  0.1170  0.1719
 2142DPPC   C4B47400   6.319  13.366  25.825 -0.0930  0.1026 -0.1108
 2143DPPC   NC347401  26.381  12.297  23.114  0.1349  0.2663 -0.2952
 2143DPPC   PO447402  26.643  12.132  23.364  0.1432  0.1023  0.1596
 2143DPPC   GL147403  26.412  11.971  23.653 -0.0264  0.0838 -0.1695
 2143DPPC   GL247404  26.475  11.706  23.593  0.1625 -0.0627  0.3043
 2143DPPC   C1A47405  26.305  11.901  24.133 -0.2142  0.3909  0.1093
 2143DPPC   C2A47406  25.929  11.860  24.435 -0.2236 -0.0374  0.0493
 2143DPPC   C3A47407  25.593  11.694  24.561 -0.0123  0.0551 -0.1571
 2143DPPC   C4A47408  25.142  11.669  24.597  0.0594  0.1667 -0.1504
 2143DPPC   C1B47409  26.309  11.399  23.887  0.0385  0.0206 -0.1933
 2143DPPC   C2B47410  26.091  11.070  24.065  0.3038 -0.0460  0.0957
 2143DPPC   C3B47411  25.691  10.910  24.223 -0.1551  0.0429 -0.0448
 2143DPPC   C4B47412  25.407  11.063  24.654  0.0244 -0.0581 -0.0315
 2144DPPC   NC347413  15.321   0.750  34.592  0.0003  0.2022  0.1831
 2144DPPC   PO447414  15.646   0.775  34.870 -0.2360 -0.0716  0.1720
 2144DPPC   GL147415  15.608   1.186  34.591 -0.2960 -0.0797  0.1595
 2144DPPC   GL247416  15.600   1.281  34.317 -0.1108  0.0108  0.1920
 2144DPPC   C1A47417  15.596   1.724  34.479  0.2964  0.3225 -0.0859
 2144DPPC   C2A47418  15.450   2.115  34.516 -0.1424  0.0673 -0.0522
 2144DPPC   C3A47419  14.983   2.244  34.575 -0.0839  0.1350  0.2223
 2144DPPC   C4A47420  14.662   2.563  34.993 -0.0696 -0.1037  0.0344
 2144DPPC   C1B47421  15.242   1.566  34.167  0.0115 -0.3334  0.0664
 2144DPPC   C2B47422  15.145   2.015  34.110  0.0810 -0.5634  0.3404
 2144DPPC   C3B47423  15.104   2.536  34.169  0.2531  0.2913  0.0686
 2144DPPC   C4B47424  15.359   2.967  34.404  0.0023 -0.0065  0.0987
 2145DPPC   NC347425  25.875   6.902  36.542 -0.1648 -0.0808 -0.0085
 2145DPPC   PO447426  25.518   7.168  36.515 -0.0709 -0.0316  0.0980
 2145DPPC   GL147427  25.093   7.285  36.508  0.2453  0.2259 -0.0793
 2145DPPC   GL247428  25.078   7.535  36.697  0.3458  0.1218  0.3115
 2145DPPC   C1A47429  24.659   7.256  36.328 -0.2415  0.3915  0.1214
 2145DPPC   C2A47430  24.206   7.140  36.427  0.1180  0.2441 -0.5145
 2145DPPC   C3A47431  23.780   6.957  36.224 -0.1033 -0.2881  0.0210
 2145DPPC   C4A47432  23.379   7.047  36.158  0.1291  0.0828 -0.2403
 2145DPPC   C1B47433  24.672   7.640  36.624 -0.0306 -0.1639 -0.0258
 2145DPPC   C2B47434  24.257   7.616  36.527 -0.0286  0.1625  0.0115
 2145DPPC   C3B47435  23.839   7.539  36.480  0.2173 -0.1112 -0.0479
 2145DPPC   C4B47436  23.623   7.984  36.452 -0.1061  0.3997 -0.0930
 2146DPPC   NC347437   8.999   8.483  20.291 -0.2060 -0.1596 -0.0609
 2146DPPC   PO447438   8.973   8.563  19.821 -0.2027 -0.2175 -0.1986
 2146DPPC   GL147439   9.473   8.742  20.105  0.0052 -0.1692  0.2674
 2146DPPC   GL247440   9.348   8.825  20.458  0.2414 -0.2215 -0.2299
 2146DPPC   C1A47441   9.924   8.934  20.211  0.3219  0.2413  0.0361
 2146DPPC   C2A47442   9.869   9.038  20.590 -0.1094 -0.0846 -0.1337
 2146DPPC   C3A47443   9.633   9.350  20.854  0.1584 -0.1275 -0.3303
 2146DPPC   C4A47444   9.328   9.543  21.054  0.0459 -0.0183  0.1064
 2146DPPC   C1B47445   9.282   9.346  20.495 -0.2517  0.0622 -0.0171
 2146DPPC   C2B47446   9.446   9.737  20.530 -0.0727  0.1160  0.0286
 2146DPPC   C3B47447   9.673  10.023  20.595  0.1146  0.1167 -0.1325
 2146DPPC   C4B47448  10.146   9.995  20.490  0.1519 -0.2273  0.2229
 2147DPPC   NC347449  21.028  19.711  39.906  0.1443  0.3946 -0.4345
 2147DPPC   PO447450  20.959  19.283  39.940 -0.1371 -0.1209  0.0429
 2147DPPC   GL147451  20.782  19.015  39.752 -0.1975  0.1719  0.3437
 2147DPPC   GL247452  20.596  18.814  40.018  0.0537 -0.1545 -0.4595
 2147DPPC   C1A47453  20.771  18.699  39.363  0.1196 -0.1146 -0.1914
 2147DPPC   C2A47454  20.850  18.492  38.923  0.0528 -0.1189 -0.0687
 2147DPPC   C3A47455  20.919  18.267  38.588  0.2499  0.2296 -0.0535
 2147DPPC   C4A47456  20.902  18.326  38.149 -0.2904 -0.0334  0.0404
 2147DPPC   C1B47457  20.116  18.883  39.848  0.2584  0.0282  0.1068
 2147DPPC   C2B47458  19.781  18.787  39.455 -0.0999 -0.0717  0.0259
 2147DPPC   C3B47459  19.722  18.459  39.106 -0.0201  0.2081 -0.4859
 2147DPPC   C4B47460  19.393  18.374  38.690 -0.1510  0.2478  0.1687
 2148DPPC   NC347461  10.367   8.023  26.602 -0.1034  0.2997  0.0477
 2148DPPC   PO447462   9.954   7.894  26.701 -0.1383 -0.0522  0.0238
 2148DPPC   GL147463   9.660   7.833  26.432 -0.1790  0.1610  0.5288
 2148DPPC   GL247464   9.543   7.426  26.535 -0.2634  0.1160  0.0383
 2148DPPC   C1A47465   9.146   7.649  26.383  0.3032 -0.2556  0.2643
 2148DPPC   C2A47466   8.873   7.440  26.125 -0.0673 -0.1712  0.0678
 2148DPPC   C3A47467   8.565   7.157  25.905  0.0504 -0.0598  0.1393
 2148DPPC   C4A47468   8.265   7.128  25.627 -0.0257 -0.1065 -0.1118
 2148DPPC   C1B47469   9.238   7.101  26.227  0.2085  0.4503 -0.1843
 2148DPPC   C2B47470   8.830   6.838  26.369  0.2542  0.0008 -0.0985
 2148DPPC   C3B47471   8.509   6.514  26.586 -0.1028  0.2613 -0.0960
 2148DPPC   C4B47472   8.095   6.403  26.666 -0.2347  0.3115 -0.2779
 2149DPPC   NC347473  26.076  17.748  29.367 -0.3449 -0.4783 -0.1480
 2149DPPC   PO447474  25.895  18.186  29.508  0.0000 -0.2749 -0.0421
 2149DPPC   GL147475  25.679  17.816  29.731 -0.0630 -0.0343  0.2634
 2149DPPC   GL247476  25.435  17.893  30.011  0.1755 -0.3203  0.0284
 2149DPPC   C1A47477  25.458  17.564  29.581  0.1471  0.2643 -0.0562
 2149DPPC   C2A47478  25.050  17.418  29.410 -0.4522  0.3670 -0.3686
 2149DPPC   C3A47479  24.993  17.066  29.156  0.3138  0.0816  0.0241
 2149DPPC   C4A47480  24.730  16.824  28.841 -0.0367 -0.2261 -0.0880
 2149DPPC   C1B47481  25.199  17.673  30.289  0.1349 -0.2318 -0.3691
 2149DPPC   C2B47482  25.097  17.311  30.462  0.1602 -0.0838  0.0852
 2149DPPC   C3B47483  25.117  16.856  30.541  0.0139 -0.1280  0.2010
 2149DPPC   C4B47484  24.721  16.650  30.508 -0.0150  0.2481 -0.1043
 2150DPPC   NC347485  12.917   1.484  35.443  0.0883  0.3735  0.0209
 2150DPPC   PO447486  13.070   1.864  35.350  0.0956 -0.1546 -0.1010
 2150DPPC   GL147487  13.014   2.261  35.337 -0.1026 -0.0428 -0.1518
 2150DPPC   GL247488  12.703   2.316  35.366 -0.1426  0.2874 -0.0390
 2150DPPC   C1A47489  13.416   2.368  35.074  0.2309  0.0462 -0.3223
 2150DPPC   C2A47490  13.829   2.194  34.970 -0.0601  0.0831  0.0226
 2150DPPC   C3A47491  14.207   1.918  34.755  0.3504 -0.0784 -0.3200
 2150DPPC   C4A47492  14.461   1.569  34.641  0.1196  0.0598 -0.2476
 2150DPPC   C1B47493  12.435   2.508  35.006 -0.1213 -0.4188 -0.2349
 2150DPPC   C2B47494  12.278   2.558  34.686 -0.0329  0.1009  0.0616
 2150DPPC   C3B47495  12.238   2.809  34.361  0.0661 -0.1139  0.0841
 2150DPPC   C4B47496  12.003   3.159  34.260  0.0445  0.0857  0.0720
 2151DPPC   NC347497  19.705   1.955  37.398  0.0332 -0.1844  0.2171
 2151DPPC   PO447498  19.544   2.352  37.476  0.0562 -0.2298 -0.2321
 2151DPPC   GL147499  19.221   2.665  37.272 -0.0981 -0.0402  0.2224
 2151DPPC   GL247500  19.060   2.477  37.069 -0.0311 -0.2323  0.1438
 2151DPPC   C1A47501  18.948   2.993  37.074 -0.0029 -0.0659 -0.0020
 2151DPPC   C2A47502  18.902   3.367  36.915 -0.1776  0.1210  0.2559
 2151DPPC   C3A47503  18.691   3.572  36.778  0.1094 -0.3029  0.2702
 2151DPPC   C4A47504  18.389   3.829  36.558  0.0224  0.0801 -0.2319
 2151DPPC   C1B47505  19.066   2.627  36.615  0.0828  0.0259  0.0717
 2151DPPC   C2B47506  19.295   3.001  36.584  0.2178 -0.3158  0.1016
 2151DPPC   C3B47507  19.414   3.212  36.934 -0.1189 -0.0901  0.0559
 2151DPPC   C4B47508  19.387   3.634  37.106  0.1762  0.0714  0.0269
 2152DPPC   NC347509  21.842  21.354  27.639 -0.1176 -0.1476  0.2163
 2152DPPC   PO447510  21.737  21.251  27.271  0.1299 -0.1316 -0.0778
 2152DPPC   GL147511  21.491  20.969  27.564  0.2460 -0.1175 -0.1289
 2152DPPC   GL247512  21.362  21.215  27.825  0.1794  0.4283 -0.0310
 2152DPPC   C1A47513  21.344  20.622  27.339 -0.2588  0.0031 -0.2133
 2152DPPC   C2A47514  21.235  20.252  27.473 -0.0293  0.0479  0.1188
 2152DPPC   C3A47515  20.972  19.829  27.539  0.0816  0.0369 -0.0648
 2152DPPC   C4A47516  20.765  19.521  27.412  0.0844  0.1528 -0.1771
 2152DPPC   C1B47517  21.031  20.888  27.924 -0.0270 -0.0097  0.2373
 2152DPPC   C2B47518  20.737  20.629  28.260 -0.1116  0.0638  0.2184
 2152DPPC   C3B47519  20.456  20.252  28.181 -0.0338 -0.1169  0.0606
 2152DPPC   C4B47520  20.035  20.016  28.204  0.0520 -0.0437 -0.1485
 2153DPPC   NC347521  15.641   7.223  22.149  0.0174 -0.0538 -0.1550
 2153DPPC   PO447522  15.669   6.766  22.038  0.3469 -0.0916 -0.1522
 2153DPPC   GL147523  15.523   6.567  21.707  0.0167 -0.0084  0.0204
 2153DPPC   GL247524  15.190   6.433  21.831  0.1533 -0.0745 -0.0068
 2153DPPC   C1A47525  15.338   6.459  21.387 -0.1310  0.1636  0.3788
 2153DPPC   C2A47526  15.212   6.290  20.900  0.0892  0.3509  0.1080
 2153DPPC   C3A47527  15.075   6.568  20.511 -0.1502 -0.0803  0.0157
 2153DPPC   C4A47528  15.021   6.520  20.061 -0.0999 -0.2234 -0.0650
 2153DPPC   C1B47529  14.987   6.077  21.756 -0.1030  0.3467 -0.3326
 2153DPPC   C2B47530  15.011   5.822  21.387 -0.1313  0.0792  0.1933
 2153DPPC   C3B47531  15.224   5.629  21.078 -0.1445  0.0033  0.0610
 2153DPPC   C4B47532  15.483   5.290  20.931  0.1384  0.1564 -0.1911
 2154DPPC   NC347533  18.408  19.116  32.402 -0.0063  0.0579  0.0009
 2154DPPC   PO447534  18.636  19.545  32.533 -0.4591 -0.1618  0.0784
 2154DPPC   GL147535  18.894  19.923  32.810 -0.0009  0.0875  0.2202
 2154DPPC   GL247536  18.972  19.968  32.430 -0.0788 -0.1080 -0.2148
 2154DPPC   C1A47537  19.199  20.130  33.004  0.0833  0.0654 -0.1787
 2154DPPC   C2A47538  19.393  20.523  33.077  0.1786  0.1518 -0.0371
 2154DPPC   C3A47539  19.864  20.612  33.078 -0.2877 -0.0224 -0.4178
 2154DPPC   C4A47540  20.259  20.455  33.256 -0.0290  0.3464 -0.0888
 2154DPPC   C1B47541  19.085  20.476  32.518 -0.0816 -0.1710 -0.3268
 2154DPPC   C2B47542  18.894  20.757  32.469 -0.1295 -0.1303 -0.2261
 2154DPPC   C3B47543  18.791  21.108  32.719  0.0395  0.1357 -0.0896
 2154DPPC   C4B47544  18.544  21.313  33.131 -0.0513  0.0941  0.1102
 2155DPPC   NC347545  22.928   9.153  29.311 -0.0731  0.2617  0.0201
 2155DPPC   PO447546  22.969   8.821  29.554  0.2162  0.2524  0.1005
 2155DPPC   GL147547  23.290   8.481  29.673  0.0693  0.0996 -0.0712
 2155DPPC   GL247548  23.323   8.074  29.814 -0.3412 -0.2026  0.0196
 2155DPPC   C1A47549  23.686   8.272  29.583  0.1329  0.0809 -0.1156
 2155DPPC   C2A47550  24.121   8.296  29.450  0.1819  0.0425 -0.2034
 2155DPPC   C3A47551  24.425   8.113  29.789  0.3757 -0.2926  0.2337
 2155DPPC   C4A47552  24.806   7.990  29.759 -0.2020  0.1969  0.3733
 2155DPPC   C1B47553  23.710   7.961  30.000  0.1831 -0.0060 -0.1342
 2155DPPC   C2B47554  24.148   7.888  30.216 -0.2624  0.2174  0.0055
 2155DPPC   C3B47555  24.259   7.557  30.487  0.2838 -0.3720  0.0730
 2155DPPC   C4B47556  24.595   7.532  30.739 -0.0565 -0.1020 -0.0105
 2156DPPC   NC347557   8.650   3.311  33.974  0.0108  0.1505  0.1325
 2156DPPC   PO447558   8.289   3.544  33.778  0.1822 -0.1642  0.0899
 2156DPPC   GL147559   8.635   3.775  33.908  0.0774  0.0845 -0.1965
 2156DPPC   GL247560   8.591   3.871  34.196 -0.1513  0.0510  0.4183
 2156DPPC   C1A47561   9.013   3.976  33.845 -0.2580 -0.1657  0.1025
 2156DPPC   C2A47562   9.424   4.208  33.745 -0.0874 -0.1640 -0.3910
 2156DPPC   C3A47563   9.697   4.621  33.741  0.0325  0.2322 -0.2509
 2156DPPC   C4A47564   9.765   5.075  33.662 -0.2258  0.1546  0.0796
 2156DPPC   C1B47565   8.898   4.300  34.216 -0.1090  0.3351 -0.2259
 2156DPPC   C2B47566   9.243   4.623  34.093 -0.1621  0.0158 -0.1309
 2156DPPC   C3B47567   9.400   5.118  34.046 -0.0345 -0.1188  0.0202
 2156DPPC   C4B47568   9.351   5.382  33.587  0.4333 -0.1056  0.0578
 2157DPPC   NC347569   3.468  12.006  32.621  0.0319  0.3957 -0.2564
 2157DPPC   PO447570   3.929  12.170  32.827 -0.0224 -0.0475  0.0234
 2157DPPC   GL147571   4.326  12.363  32.948 -0.1669  0.1665  0.3724
 2157DPPC   GL247572   4.306  12.506  32.750 -0.1694 -0.0227  0.0261
 2157DPPC   C1A47573   4.753  12.443  33.087  0.1767  0.2050  0.0016
 2157DPPC   C2A47574   5.111  12.695  33.197  0.0027  0.0837  0.3075
 2157DPPC   C3A47575   5.599  12.658  33.234  0.2506 -0.2708  0.0097
 2157DPPC   C4A47576   5.805  12.968  33.277 -0.0273  0.0338 -0.1419
 2157DPPC   C1B47577   4.626  12.843  32.824 -0.0675  0.1361 -0.0188
 2157DPPC   C2B47578   5.023  13.047  32.688 -0.0994 -0.0883 -0.3796
 2157DPPC   C3B47579   5.513  12.943  32.736 -0.1833 -0.2894 -0.0434
 2157DPPC   C4B47580   5.939  12.664  32.729  0.2342 -0.2230  0.1521
 2158DPPC   NC347581   8.160  17.456  32.747  0.0168 -0.3466 -0.0534
 2158DPPC   PO447582   8.131  17.738  32.421  0.0662 -0.4283  0.1573
 2158DPPC   GL147583   7.710  17.914  32.441  0.0533 -0.1012  0.1391
 2158DPPC   GL247584   7.538  17.804  32.640 -0.0053 -0.3027 -0.2695
 2158DPPC   C1A47585   7.167  18.043  32.447  0.0554 -0.0448 -0.1134
 2158DPPC   C2A47586   6.836  18.128  32.743 -0.0296  0.4409 -0.1104
 2158DPPC   C3A47587   6.828  18.527  32.966 -0.4294  0.3257  0.0053
 2158DPPC   C4A47588   6.808  19.032  33.011 -0.0790  0.0220  0.1475
 2158DPPC   C1B47589   7.359  18.043  32.940  0.2133 -0.2240 -0.0531
 2158DPPC   C2B47590   7.339  17.991  33.366 -0.1989 -0.2632 -0.3436
 2158DPPC   C3B47591   7.182  18.052  33.784 -0.0052  0.1144  0.0686
 2158DPPC   C4B47592   7.158  18.372  34.151 -0.1237  0.0320  0.0464
 2159DPPC   NC347593   3.992   8.285  29.548  0.1474 -0.0979 -0.4707
 2159DPPC   PO447594   4.011   7.868  29.703  0.1860 -0.3672 -0.0122
 2159DPPC   GL147595   4.473   7.912  29.694 -0.0314  0.0535 -0.1467
 2159DPPC   GL247596   4.692   7.785  29.506  0.0856 -0.3454  0.0669
 2159DPPC   C1A47597   4.885   8.311  29.438 -0.2043 -0.4707 -0.0353
 2159DPPC   C2A47598   5.288   8.533  29.452 -0.1615 -0.2662 -0.6646
 2159DPPC   C3A47599   5.814   8.738  29.485 -0.0211  0.2251  0.1193
 2159DPPC   C4A47600   6.041   8.888  29.841 -0.0849 -0.0611 -0.0272
 2159DPPC   C1B47601   4.967   7.898  29.816  0.0021  0.2284  0.0904
 2159DPPC   C2B47602   5.071   8.297  29.914 -0.4016 -0.3346 -0.0626
 2159DPPC   C3B47603   5.164   8.652  30.198  0.1829  0.3133 -0.3269
 2159DPPC   C4B47604   5.272   8.856  30.613 -0.4561 -0.1113 -0.1383
 2160DPPC   NC347605  11.042  23.889  36.229  0.1032  0.1364 -0.1485
 2160DPPC   PO447606  10.923  23.363  36.123  0.3407 -0.1316 -0.4590
 2160DPPC   GL147607  11.006  22.929  35.919 -0.3619  0.0009  0.0523
 2160DPPC   GL247608  11.082  23.115  35.673  0.0117  0.1304  0.2662
 2160DPPC   C1A47609  10.854  22.495  36.040 -0.2639 -0.1127 -0.0102
 2160DPPC   C2A47610  10.517  22.260  35.845  0.1114  0.2233 -0.0071
 2160DPPC   C3A47611  10.238  22.546  35.585  0.1832  0.0985 -0.0237
 2160DPPC   C4A47612  10.250  22.828  35.231  0.3523  0.2989  0.3716
 2160DPPC   C1B47613  11.110  22.652  35.515  0.0238  0.5165  0.1525
 2160DPPC   C2B47614  11.172  22.235  35.323  0.1821 -0.0941  0.2629
 2160DPPC   C3B47615  11.321  21.807  35.176  0.2696 -0.1246  0.0361
 2160DPPC   C4B47616  11.321  21.324  35.209  0.2290 -0.0214 -0.2880
 2161DPPC   NC347617  10.692  22.216  38.761 -0.2568 -0.1622  0.2354
 2161DPPC   PO447618  11.117  22.283  38.832  0.4325  0.0814  0.0112
 2161DPPC   GL147619  11.047  21.905  38.627 -0.2216  0.0851  0.2805
 2161DPPC   GL247620  11.245  21.750  38.399  0.1026 -0.2189 -0.2321
 2161DPPC   C1A47621  10.799  21.762  38.216  0.0171  0.2496 -0.2642
 2161DPPC   C2A47622  10.657  21.522  37.782  0.0964 -0.4686 -0.0228
 2161DPPC   C3A47623  10.462  21.322  37.379  0.0153 -0.3977 -0.1690
 2161DPPC   C4A47624  10.318  21.104  36.999  0.0493 -0.2039  0.1573
 2161DPPC   C1B47625  11.503  21.715  37.996 -0.2186  0.1147 -0.1475
 2161DPPC   C2B47626  11.665  21.765  37.637 -0.2220  0.0422  0.0653
 2161DPPC   C3B47627  11.824  21.666  37.243  0.0612  0.1718  0.2758
 2161DPPC   C4B47628  12.018  21.464  36.881  0.0455 -0.1316 -0.1623
 2162DPPC   NC347629  15.504   7.484  38.277  0.2733  0.3817 -0.0104
 2162DPPC   PO447630  15.776   7.778  38.642 -0.0126 -0.0333 -0.1036
 2162DPPC   GL147631  15.666   7.344  38.751  0.0862 -0.0830 -0.0301
 2162DPPC   GL247632  15.283   7.307  38.734  0.1077  0.2059 -0.1669
 2162DPPC   C1A47633  15.591   7.193  39.091  0.2079  0.2219 -0.1768
 2162DPPC   C2A47634  15.809   6.911  39.418  0.1062  0.0156 -0.1271
 2162DPPC   C3A47635  15.604   6.701  39.858 -0.1402 -0.2698 -0.2668
 2162DPPC   C4A47636  15.306   6.360  39.967 -0.1828  0.0518  0.0723
 2162DPPC   C1B47637  15.222   6.852  38.977  0.2278 -0.0204  0.0454
 2162DPPC   C2B47638  15.019   6.421  39.091  0.0388 -0.0379  0.1206
 2162DPPC   C3B47639  14.874   6.163  38.847  0.0854 -0.0321 -0.0050
 2162DPPC   C4B47640  15.072   5.759  38.644  0.1347 -0.1724  0.2796
 2163DPPC   NC347641   5.166  18.104  25.309  0.1313 -0.2188 -0.0562
 2163DPPC   PO447642   4.945  17.732  25.161 -0.4068  0.0830  0.3208
 2163DPPC   GL147643   5.389  17.681  25.213 -0.0130 -0.0324 -0.3293
 2163DPPC   GL247644   5.467  17.371  25.267  0.1373  0.0259 -0.1897
 2163DPPC   C1A47645   5.872  17.705  25.460  0.2785 -0.2903  0.0906
 2163DPPC   C2A47646   6.183  17.901  25.663  0.0155 -0.1387 -0.0797
 2163DPPC   C3A47647   6.341  18.235  25.936  0.0995  0.3176  0.2150
 2163DPPC   C4A47648   6.226  18.689  25.785 -0.1392 -0.1955 -0.1753
 2163DPPC   C1B47649   5.618  17.289  25.612 -0.1080  0.3327 -0.2237
 2163DPPC   C2B47650   6.023  17.381  25.824 -0.3017  0.0985  0.0975
 2163DPPC   C3B47651   6.317  17.602  26.004  0.0418  0.1250  0.2996
 2163DPPC   C4B47652   6.410  17.542  26.412  0.1635 -0.0348  0.0071
 2164DPPC   NC347653   7.252  22.866  31.171 -0.2359 -0.1525  0.0681
 2164DPPC   PO447654   7.255  23.056  31.685  0.1002 -0.1070  0.1223
 2164DPPC   GL147655   7.632  22.738  31.506 -0.1662  0.0336  0.0852
 2164DPPC   GL247656   7.823  22.723  31.172 -0.3549 -0.0236 -0.2695
 2164DPPC   C1A47657   7.974  22.366  31.429 -0.2551 -0.1214  0.2661
 2164DPPC   C2A47658   8.145  21.915  31.461 -0.2044  0.1969 -0.1411
 2164DPPC   C3A47659   8.335  21.500  31.512  0.2069 -0.1525  0.3004
 2164DPPC   C4A47660   8.397  21.044  31.511  0.0602 -0.0050 -0.0455
 2164DPPC   C1B47661   8.271  22.562  31.024 -0.2916  0.3684 -0.0160
 2164DPPC   C2B47662   8.605  22.424  30.877 -0.1541  0.1443 -0.3773
 2164DPPC   C3B47663   8.928  22.116  31.059 -0.0291 -0.0520  0.3417
 2164DPPC   C4B47664   8.997  21.844  31.459  0.1719  0.5010 -0.1631
 2165DPPC   NC347665   5.548   5.415  27.667 -0.0326 -0.0228 -0.0960
 2165DPPC   PO447666   5.414   5.840  27.466 -0.1573 -0.2028 -0.1131
 2165DPPC   GL147667   5.789   6.071  27.733  0.1576  0.0333 -0.2328
 2165DPPC   GL247668   5.749   6.382  27.707  0.2680 -0.1816 -0.1536
 2165DPPC   C1A47669   6.254   6.236  27.882  0.0144  0.1398 -0.2291
 2165DPPC   C2A47670   6.539   6.249  28.212  0.1745 -0.0353 -0.2146
 2165DPPC   C3A47671   6.990   6.299  28.294 -0.0603 -0.1879  0.2788
 2165DPPC   C4A47672   7.389   6.498  28.403  0.2593  0.1807  0.0861
 2165DPPC   C1B47673   6.070   6.667  27.513  0.3507  0.0436  0.1006
 2165DPPC   C2B47674   6.420   6.949  27.592 -0.2470 -0.0996  0.1849
 2165DPPC   C3B47675   6.814   6.952  27.686  0.0955 -0.2978 -0.0959
 2165DPPC   C4B47676   7.188   7.078  27.455  0.2578 -0.0085  0.0843
 2166DPPC   NC347677  22.580  20.030  22.357 -0.2688  0.2824 -0.2499
 2166DPPC   PO447678  22.114  19.854  22.457 -0.0879  0.2197 -0.2953
 2166DPPC   GL147679  21.654  19.747  22.631 -0.2863  0.0076  0.1150
 2166DPPC   GL247680  21.464  20.064  22.583  0.1254 -0.1140  0.0444
 2166DPPC   C1A47681  21.234  19.508  22.529  0.2650 -0.1781  0.0066
 2166DPPC   C2A47682  21.004  19.157  22.526  0.1074  0.2554  0.0288
 2166DPPC   C3A47683  21.048  18.728  22.390 -0.0857 -0.1951  0.2471
 2166DPPC   C4A47684  21.220  18.156  22.394 -0.0619 -0.2271  0.0055
 2166DPPC   C1B47685  21.034  19.928  22.591  0.0086 -0.0875 -0.4535
 2166DPPC   C2B47686  20.804  19.559  22.906 -0.1252 -0.3105 -0.1699
 2166DPPC   C3B47687  20.571  19.755  23.231 -0.0818  0.3185 -0.2319
 2166DPPC   C4B47688  20.273  20.085  23.227 -0.1764 -0.5042 -0.0300
 2167DPPC   NC347689   4.761   9.433  26.165 -0.1099 -0.1927 -0.1834
 2167DPPC   PO447690   4.666   9.018  26.199  0.2310 -0.2401 -0.2654
 2167DPPC   GL147691   5.083   9.075  26.347  0.2448  0.1425 -0.0968
 2167DPPC   GL247692   5.078   8.810  26.629 -0.1115  0.1438  0.0123
 2167DPPC   C1A47693   5.363   9.438  26.427  0.0129 -0.5399  0.1143
 2167DPPC   C2A47694   5.677   9.582  26.698 -0.2754 -0.1425 -0.0739
 2167DPPC   C3A47695   6.064   9.519  26.956  0.0981 -0.0873  0.0894
 2167DPPC   C4A47696   6.526   9.328  26.818  0.1746 -0.0234 -0.1016
 2167DPPC   C1B47697   5.394   8.730  26.953  0.1868 -0.2747  0.3175
 2167DPPC   C2B47698   5.869   8.727  26.912  0.2528  0.0913 -0.2936
 2167DPPC   C3B47699   6.089   8.990  26.635 -0.0488 -0.0155 -0.4990
 2167DPPC   C4B47700   6.364   9.054  26.385 -0.1172  0.0097  0.1966
 2168DPPC   NC347701  15.204  18.234  21.087  0.0245 -0.1081 -0.1932
 2168DPPC   PO447702  14.781  18.044  21.246 -0.2919  0.1453  0.0971
 2168DPPC   GL147703  14.670  18.464  21.042  0.4262 -0.0440  0.0623
 2168DPPC   GL247704  14.481  18.712  21.169 -0.0789 -0.0543 -0.1636
 2168DPPC   C1A47705  14.419  18.655  20.655 -0.1164 -0.0293 -0.1812
 2168DPPC   C2A47706  14.453  18.772  20.150  0.0742  0.0288  0.0672
 2168DPPC   C3A47707  14.694  18.693  19.825  0.1323  0.0201  0.2914
 2168DPPC   C4A47708  14.712  18.353  19.440 -0.1271 -0.0864 -0.0474
 2168DPPC   C1B47709  14.443  19.127  21.015 -0.2747  0.1814  0.4389
 2168DPPC   C2B47710  14.505  19.531  20.838  0.1233 -0.1341  0.1190
 2168DPPC   C3B47711  14.779  19.658  20.515 -0.0049 -0.2122 -0.0574
 2168DPPC   C4B47712  14.902  19.422  20.213 -0.2599 -0.1071  0.1272
 2169DPPC   NC347713   9.619   8.326  26.760  0.0477  0.3282 -0.3769
 2169DPPC   PO447714   9.465   7.994  26.996 -0.0311 -0.0986 -0.2561
 2169DPPC   GL147715   9.197   7.697  26.852  0.1143  0.0255  0.0981
 2169DPPC   GL247716   8.962   7.645  26.989  0.0525  0.1379  0.1350
 2169DPPC   C1A47717   9.049   7.293  26.743 -0.2793  0.4966  0.1699
 2169DPPC   C2A47718   8.736   7.043  26.845  0.3251  0.1804  0.3356
 2169DPPC   C3A47719   8.296   6.809  26.972  0.1828  0.0237  0.1434
 2169DPPC   C4A47720   7.920   6.721  27.105 -0.2795  0.1547  0.2508
 2169DPPC   C1B47721   8.484   7.561  27.113  0.0721  0.2702 -0.2980
 2169DPPC   C2B47722   8.186   7.777  27.234  0.0033 -0.0742 -0.2789
 2169DPPC   C3B47723   8.033   8.183  27.463  0.0470  0.1947  0.1274
 2169DPPC   C4B47724   7.856   8.255  27.864 -0.1003  0.0687 -0.2152
 2170DPPC   NC347725  19.139  10.027  43.607  0.0484  0.1509 -0.0608
 2170DPPC   PO447726  19.339  10.390  43.416 -0.0537 -0.0409 -0.1918
 2170DPPC   GL147727  19.178  10.423  43.051  0.0046  0.1823 -0.0346
 2170DPPC   GL247728  18.949  10.212  43.068 -0.0045 -0.1141  0.0660
 2170DPPC   C1A47729  19.259  10.730  42.665 -0.0663 -0.1684  0.0583
 2170DPPC   C2A47730  19.079  10.741  42.310  0.0681  0.0882 -0.1923
 2170DPPC   C3A47731  19.006  10.837  41.933 -0.1684 -0.0842  0.3514
 2170DPPC   C4A47732  18.951  11.074  41.595  0.2821 -0.0458  0.0332
 2170DPPC   C1B47733  19.007  10.211  42.606 -0.0284  0.1300  0.3342
 2170DPPC   C2B47734  19.102   9.940  42.231 -0.2511 -0.3138  0.2694
 2170DPPC   C3B47735  19.249   9.657  42.031 -0.1705 -0.0506 -0.0402
 2170DPPC   C4B47736  19.208   9.462  41.674  0.1676  0.2026 -0.0977
 2171DPPC   NC347737   4.011  18.414  29.088  0.0185 -0.0113  0.0377
 2171DPPC   PO447738   4.439  18.229  29.218 -0.2528  0.1991  0.2666
 2171DPPC   GL147739   4.807  18.094  29.146 -0.2953  0.3782  0.2364
 2171DPPC   GL247740   4.791  18.262  28.880 -0.0581 -0.1963  0.1283
 2171DPPC   C1A47741   5.097  17.768  29.357  0.0115 -0.3306  0.4009
 2171DPPC   C2A47742   5.265  17.358  29.390 -0.0648 -0.0286 -0.0218
 2171DPPC   C3A47743   5.507  17.028  29.564 -0.2756 -0.1246 -0.1179
 2171DPPC   C4A47744   5.841  16.819  29.882  0.3223 -0.0200 -0.0937
 2171DPPC   C1B47745   5.190  18.070  28.769 -0.1203 -0.0495 -0.1198
 2171DPPC   C2B47746   5.352  17.728  28.850 -0.0215 -0.4044 -0.1343
 2171DPPC   C3B47747   5.231  17.350  28.928  0.0644  0.0981 -0.2543
 2171DPPC   C4B47748   5.291  16.936  29.125  0.0829  0.2382 -0.0905
 2172DPPC   NC347749  12.735  21.515  18.544  0.1857  0.1284  0.1975
 2172DPPC   PO447750  12.979  21.447  18.785 -0.0750  0.3090 -0.1561
 2172DPPC   GL147751  13.220  21.075  18.978 -0.1836 -0.1021 -0.1158
 2172DPPC   GL247752  13.020  20.800  18.985  0.0472  0.0845 -0.0904
 2172DPPC   C1A47753  13.413  20.781  19.395 -0.0299  0.1694 -0.1529
 2172DPPC   C2A47754  13.560  20.400  19.497  0.0581 -0.0731  0.0665
 2172DPPC   C3A47755  13.635  20.129  19.818 -0.0916  0.3294 -0.3399
 2172DPPC   C4A47756  13.872  19.922  20.062  0.1698  0.0042  0.4118
 2172DPPC   C1B47757  13.222  20.389  19.084  0.0525  0.1239  0.1512
 2172DPPC   C2B47758  13.111  19.936  19.266  0.2827  0.1063  0.0889
 2172DPPC   C3B47759  13.131  19.721  19.650  0.1420 -0.3140 -0.0717
 2172DPPC   C4B47760  13.279  19.476  19.883 -0.1249 -0.0846  0.1960
 2173DPPC   NC347761  25.921  15.388  37.616 -0.0806  0.2971 -0.0247
 2173DPPC   PO447762  25.815  15.012  37.807 -0.1183  0.1018 -0.1862
 2173DPPC   GL147763  25.615  14.812  37.458  0.0989 -0.4241 -0.2800
 2173DPPC   GL247764  25.578  15.128  37.267 -0.0234  0.0279 -0.0445
 2173DPPC   C1A47765  25.262  14.605  37.392 -0.0660  0.0874  0.2632
 2173DPPC   C2A47766  24.863  14.453  37.259  0.1767  0.0403 -0.1542
 2173DPPC   C3A47767  24.426  14.464  36.944  0.1795  0.0829 -0.3378
 2173DPPC   C4A47768  24.091  14.449  37.123  0.3508  0.0566  0.0174
 2173DPPC   C1B47769  25.401  14.968  37.028 -0.3273  0.0505 -0.2618
 2173DPPC   C2B47770  25.073  14.764  36.956  0.1852 -0.1562  0.1948
 2173DPPC   C3B47771  24.762  14.773  36.613 -0.1695  0.0807  0.3698
 2173DPPC   C4B47772  24.433  14.741  36.385  0.0980  0.1393  0.0195
 2174DPPC   NC347773  18.462  23.415  36.606  0.2101 -0.1150 -0.0291
 2174DPPC   PO447774  18.881  23.291  36.556  0.1880 -0.2796  0.1766
 2174DPPC   GL147775  18.821  23.093  36.239  0.0277 -0.0963 -0.2694
 2174DPPC   GL247776  18.834  23.307  36.005  0.1199  0.1947  0.0791
 2174DPPC   C1A47777  18.732  22.624  36.201  0.0865  0.2209  0.0326
 2174DPPC   C2A47778  18.463  22.237  36.372  0.3047 -0.1801 -0.2349
 2174DPPC   C3A47779  18.115  21.984  36.274  0.1681 -0.0878  0.0726
 2174DPPC   C4A47780  17.759  21.987  36.335  0.0166  0.2485 -0.1087
 2174DPPC   C1B47781  18.456  23.024  35.908 -0.2058  0.1288  0.1035
 2174DPPC   C2B47782  18.278  22.693  35.899  0.4493 -0.0836 -0.1483
 2174DPPC   C3B47783  18.288  22.220  35.755 -0.0397  0.2143 -0.1762
 2174DPPC   C4B47784  18.641  22.229  35.753  0.0318 -0.1947 -0.2082
 2175DPPC   NC347785   8.414  16.194  34.504 -0.1218  0.1499 -0.1646
 2175DPPC   PO447786   8.347  16.360  34.065  0.1544 -0.1434 -0.1952
 2175DPPC   GL147787   7.963  16.585  34.235 -0.1294 -0.0591 -0.0366
 2175DPPC   GL247788   7.692  16.660  34.227  0.0811 -0.1200  0.1624
 2175DPPC   C1A47789   7.725  16.240  34.551  0.1776  0.1563 -0.1991
 2175DPPC   C2A47790   7.241  16.245  34.643  0.3413  0.0281  0.0317
 2175DPPC   C3A47791   6.823  16.122  34.650  0.0604  0.3229 -0.2499
 2175DPPC   C4A47792   6.409  16.090  34.601 -0.3776  0.2663 -0.1465
 2175DPPC   C1B47793   7.285  16.781  34.179  0.0412  0.1447 -0.0132
 2175DPPC   C2B47794   6.792  16.880  34.283  0.1033 -0.5114 -0.1883
 2175DPPC   C3B47795   6.362  16.987  34.114  0.4003 -0.2335 -0.0171
 2175DPPC   C4B47796   5.969  17.247  34.041 -0.2627  0.0223  0.0340
 2176DPPC   NC347797   5.472   5.901  30.933 -0.0923  0.0186  0.1186
 2176DPPC   PO447798   5.167   6.183  30.855  0.0376 -0.2239  0.0862
 2176DPPC   GL147799   5.460   6.506  30.786  0.4742  0.3367  0.0609
 2176DPPC   GL247800   5.425   6.755  30.799  0.2425 -0.3734  0.1636
 2176DPPC   C1A47801   5.824   6.587  30.468  0.0065 -0.3325  0.1541
 2176DPPC   C2A47802   6.197   6.874  30.586  0.0233 -0.1788 -0.0271
 2176DPPC   C3A47803   6.481   7.228  30.733  0.0144  0.1770 -0.2006
 2176DPPC   C4A47804   6.878   7.399  30.771 -0.2042 -0.2110  0.3408
 2176DPPC   C1B47805   5.688   7.038  30.598  0.1579  0.1082 -0.2242
 2176DPPC   C2B47806   6.004   7.355  30.603 -0.1068 -0.1999  0.1493
 2176DPPC   C3B47807   6.279   7.592  30.323  0.1275  0.0481  0.0595
 2176DPPC   C4B47808   6.383   8.023  30.228  0.2622  0.2646 -0.3334
 2177DPPC   NC347809  21.097   1.862  24.184  0.1686  0.2676  0.1160
 2177DPPC   PO447810  21.165   1.672  23.867 -0.0943 -0.1581  0.2843
 2177DPPC   GL147811  21.075   2.161  23.845 -0.0743 -0.1623 -0.0382
 2177DPPC   GL247812  21.308   2.346  23.596  0.0470 -0.0811 -0.3187
 2177DPPC   C1A47813  20.910   2.575  24.089 -0.0405  0.5383  0.0310
 2177DPPC   C2A47814  20.726   2.948  23.925  0.0033  0.0111 -0.0213
 2177DPPC   C3A47815  20.357   3.185  24.068  0.0848  0.0676  0.1439
 2177DPPC   C4A47816  20.110   3.437  24.379 -0.1535 -0.0476 -0.2221
 2177DPPC   C1B47817  21.109   2.688  23.656 -0.0564 -0.1285 -0.1099
 2177DPPC   C2B47818  20.794   2.816  23.440 -0.1660  0.0413 -0.1842
 2177DPPC   C3B47819  20.494   2.712  23.114 -0.0176  0.1163  0.0832
 2177DPPC   C4B47820  20.438   2.859  22.694  0.0862  0.1672 -0.0900
 2178DPPC   NC347821  22.150  16.161  16.599  0.1539 -0.0603  0.0503
 2178DPPC   PO447822  22.293  16.335  17.070  0.2101  0.0659  0.0060
 2178DPPC   GL147823  22.085  16.047  17.303 -0.1144  0.2604 -0.2480
 2178DPPC   GL247824  22.145  16.101  17.678 -0.3163  0.1306 -0.2628
 2178DPPC   C1A47825  22.243  15.583  17.570 -0.1911 -0.2916 -0.1819
 2178DPPC   C2A47826  22.081  15.196  17.762  0.1455  0.1113 -0.0437
 2178DPPC   C3A47827  21.773  14.944  17.644  0.0391 -0.0725 -0.0232
 2178DPPC   C4A47828  21.590  14.567  17.408 -0.0283 -0.2473  0.0236
 2178DPPC   C1B47829  22.350  15.878  17.962 -0.2945  0.1241  0.1087
 2178DPPC   C2B47830  22.649  15.812  18.349  0.1524  0.0582 -0.0780
 2178DPPC   C3B47831  22.875  15.961  18.584  0.1864  0.1033 -0.1723
 2178DPPC   C4B47832  22.749  16.350  18.980  0.0587 -0.0801 -0.1344
 2179DPPC   NC347833  10.966   5.584  29.571 -0.1375  0.0373 -0.0594
 2179DPPC   PO447834  10.933   5.637  29.119 -0.0588 -0.0129 -0.1230
 2179DPPC   GL147835  10.671   5.309  29.207 -0.2798 -0.2102  0.0855
 2179DPPC   GL247836  10.423   5.577  29.254  0.0348 -0.1689 -0.1615
 2179DPPC   C1A47837  10.479   5.111  28.881 -0.1708 -0.0567 -0.0227
 2179DPPC   C2A47838  10.202   4.730  28.724  0.4909  0.1699 -0.3020
 2179DPPC   C3A47839  10.172   4.429  28.355 -0.1807  0.3046  0.0920
 2179DPPC   C4A47840  10.173   3.935  28.204  0.0101  0.0917  0.0580
 2179DPPC   C1B47841  10.139   5.223  29.373 -0.1873  0.1755  0.0615
 2179DPPC   C2B47842   9.825   5.000  29.456 -0.2044  0.0137 -0.1014
 2179DPPC   C3B47843   9.603   4.595  29.545 -0.2555  0.1096 -0.2415
 2179DPPC   C4B47844   9.397   4.276  29.229  0.4479 -0.0043  0.0470
 2180DPPC   NC347845  25.896  15.933  38.283  0.0417 -0.0792  0.0030
 2180DPPC   PO447846  25.794  15.785  37.853  0.1055  0.2449 -0.0982
 2180DPPC   GL147847  25.401  15.600  37.759 -0.1007  0.2042  0.3279
 2180DPPC   GL247848  25.371  15.243  37.699 -0.2090 -0.2449 -0.0298
 2180DPPC   C1A47849  25.126  15.600  37.441  0.1262  0.2266  0.3127
 2180DPPC   C2A47850  24.679  15.462  37.582 -0.1608  0.1535 -0.4884
 2180DPPC   C3A47851  24.537  15.384  37.982  0.1713  0.0567  0.2260
 2180DPPC   C4A47852  24.412  15.573  38.305 -0.1771 -0.0364 -0.1473
 2180DPPC   C1B47853  25.035  15.051  37.396  0.1120 -0.0858 -0.0811
 2180DPPC   C2B47854  24.636  14.926  37.248  0.1137  0.0559  0.0801
 2180DPPC   C3B47855  24.396  15.018  36.926  0.0814 -0.2832  0.1902
 2180DPPC   C4B47856  23.998  15.072  37.158  0.1113  0.2800 -0.0333
 2181DPPC   NC347857   6.186  11.247  38.337  0.2823  0.1752 -0.1305
 2181DPPC   PO447858   6.169  10.904  38.016 -0.1367 -0.0416  0.0436
 2181DPPC   GL147859   6.224  11.055  37.651 -0.1094 -0.4251 -0.2805
 2181DPPC   GL247860   5.995  11.203  37.504  0.2558  0.0497 -0.0971
 2181DPPC   C1A47861   6.476  11.130  37.272  0.0945  0.1338  0.0574
 2181DPPC   C2A47862   6.701  11.104  36.836  0.4440 -0.0831  0.0552
 2181DPPC   C3A47863   7.128  11.214  36.591  0.0480 -0.1789  0.1248
 2181DPPC   C4A47864   7.603  11.124  36.526 -0.1618  0.1920  0.5560
 2181DPPC   C1B47865   6.119  11.216  37.016 -0.1693 -0.1399  0.2305
 2181DPPC   C2B47866   6.219  11.361  36.602 -0.2242 -0.0731 -0.1272
 2181DPPC   C3B47867   6.350  11.202  36.249 -0.0794 -0.2685  0.1036
 2181DPPC   C4B47868   6.723  11.080  36.039  0.2323 -0.1642  0.2059
 2182DPPC   NC347869  15.046  13.918  40.108  0.0345  0.0172  0.0656
 2182DPPC   PO447870  14.838  13.607  40.362  0.0053  0.0262 -0.0483
 2182DPPC   GL147871  14.695  13.624  40.755 -0.2603 -0.0766 -0.2131
 2182DPPC   GL247872  14.605  13.928  40.877 -0.0791 -0.1433 -0.2146
 2182DPPC   C1A47873  14.604  13.406  41.045 -0.0454 -0.1206  0.2590
 2182DPPC   C2A47874  14.624  13.091  41.417  0.2707  0.4064 -0.1557
 2182DPPC   C3A47875  14.630  12.956  41.851 -0.1497 -0.0440  0.1587
 2182DPPC   C4A47876  14.894  12.674  42.126  0.2297 -0.0034  0.1967
 2182DPPC   C1B47877  14.760  13.990  41.343 -0.0028  0.3159  0.4214
 2182DPPC   C2B47878  14.605  14.062  41.779  0.0794 -0.1185  0.0454
 2182DPPC   C3B47879  14.410  14.316  42.171  0.2590  0.1626  0.1256
 2182DPPC   C4B47880  14.292  14.673  42.113  0.0526  0.1519 -0.1375
 2183DPPC   NC347881  19.591  13.500  14.694 -0.0498  0.4126 -0.0026
 2183DPPC   PO447882  19.506  13.699  15.179  0.1077 -0.0584  0.0443
 2183DPPC   GL147883  19.400  13.507  15.529 -0.0281  0.0969  0.0054
 2183DPPC   GL247884  19.631  13.315  15.567  0.1471 -0.2135 -0.5255
 2183DPPC   C1A47885  19.147  13.554  15.858  0.3643 -0.2462 -0.1154
 2183DPPC   C2A47886  18.875  13.833  16.123  0.1947 -0.0713  0.2494
 2183DPPC   C3A47887  18.646  14.120  15.802 -0.0739 -0.3727  0.2645
 2183DPPC   C4A47888  18.252  14.019  15.471 -0.0115  0.0090 -0.2064
 2183DPPC   C1B47889  19.600  13.248  15.992 -0.3246  0.0937  0.3196
 2183DPPC   C2B47890  19.639  13.181  16.422  0.1683 -0.2560  0.3082
 2183DPPC   C3B47891  19.254  13.187  16.811 -0.0887  0.0486  0.0266
 2183DPPC   C4B47892  19.208  13.027  17.266 -0.3127  0.0185 -0.4661
 2184DPPC   NC347893  13.286  23.516  21.643  0.0577 -0.2746  0.0043
 2184DPPC   PO447894  13.745  23.276  21.696 -0.3428 -0.2002 -0.1878
 2184DPPC   GL147895  13.864  22.837  21.800 -0.1163 -0.1151 -0.1241
 2184DPPC   GL247896  13.823  22.711  21.560  0.0299  0.0404  0.2028
 2184DPPC   C1A47897  14.016  22.466  21.966  0.0583  0.0230 -0.3623
 2184DPPC   C2A47898  14.152  22.119  22.112  0.1188  0.1176 -0.0234
 2184DPPC   C3A47899  14.223  21.676  22.084 -0.3178  0.1567 -0.1299
 2184DPPC   C4A47900  14.411  21.335  22.207  0.2076  0.0818 -0.0933
 2184DPPC   C1B47901  13.934  22.335  21.512 -0.1294 -0.2655 -0.0347
 2184DPPC   C2B47902  14.076  22.089  21.110 -0.3247 -0.2072 -0.2189
 2184DPPC   C3B47903  14.224  21.824  20.725  0.2570  0.0282 -0.2683
 2184DPPC   C4B47904  14.088  21.926  20.397  0.0860  0.0122 -0.0138
 2185DPPC   NC347905  16.912  19.962  32.716 -0.2175  0.0780 -0.2403
 2185DPPC   PO447906  17.053  20.025  33.171  0.3742  0.1837 -0.2179
 2185DPPC   GL147907  17.130  20.422  33.168 -0.0371  0.1109  0.0871
 2185DPPC   GL247908  16.925  20.394  32.910  0.2496  0.3574 -0.2002
 2185DPPC   C1A47909  17.366  20.889  33.269  0.0064 -0.2823  0.0880
 2185DPPC   C2A47910  17.674  21.155  33.533  0.1990 -0.1395  0.0270
 2185DPPC   C3A47911  17.830  21.490  33.607 -0.1408 -0.2216  0.2475
 2185DPPC   C4A47912  18.018  21.920  33.512 -0.1730  0.3100  0.0057
 2185DPPC   C1B47913  16.964  20.828  32.891  0.1757 -0.0558 -0.1511
 2185DPPC   C2B47914  17.049  21.238  33.032  0.0998  0.0652 -0.2444
 2185DPPC   C3B47915  17.164  21.559  33.218  0.2051  0.0624  0.8921
 2185DPPC   C4B47916  17.059  21.973  33.444  0.1935  0.0594 -0.2790
 2186DPPC   NC347917  14.896  18.953  22.062 -0.0261  0.4650 -0.0351
 2186DPPC   PO447918  14.629  18.846  21.736  0.1505  0.2920  0.0499
 2186DPPC   GL147919  14.659  19.179  21.490  0.3753 -0.1964  0.2433
 2186DPPC   GL247920  14.889  19.244  21.246 -0.0220  0.3250 -0.1776
 2186DPPC   C1A47921  14.329  19.490  21.339  0.0545  0.2195  0.1935
 2186DPPC   C2A47922  14.088  19.750  21.067  0.0700 -0.3428 -0.1499
 2186DPPC   C3A47923  14.263  20.026  21.039  0.1107 -0.1107 -0.1386
 2186DPPC   C4A47924  14.501  20.088  20.774 -0.0821 -0.3059  0.0515
 2186DPPC   C1B47925  15.126  19.376  20.928 -0.1728  0.3890 -0.1606
 2186DPPC   C2B47926  15.272  19.242  20.507  0.0100 -0.2852  0.2117
 2186DPPC   C3B47927  15.394  19.409  20.082 -0.4915 -0.2165  0.1819
 2186DPPC   C4B47928  15.381  19.625  19.730 -0.3273  0.1336 -0.0783
 2187DPPC   NC347929   1.048  11.509  32.802  0.5183  0.1442  0.1924
 2187DPPC   PO447930   0.820  11.134  32.516  0.0121  0.0373  0.0354
 2187DPPC   GL147931   0.598  11.092  32.745  0.1006  0.2144  0.1025
 2187DPPC   GL247932   0.368  11.245  32.496 -0.1786  0.0225 -0.1287
 2187DPPC   C1A47933   0.099  10.802  32.667  0.0441 -0.2560 -0.2688
 2187DPPC   C2A47934  26.702  10.614  32.765 -0.3026 -0.0419  0.0419
 2187DPPC   C3A47935  26.440  10.724  33.052  0.1967 -0.0623 -0.1939
 2187DPPC   C4A47936  26.035  10.768  32.939 -0.0978  0.0907  0.0610
 2187DPPC   C1B47937   0.051  11.259  32.232 -0.1466  0.0012  0.0622
 2187DPPC   C2B47938  26.759  11.076  31.985 -0.1673 -0.3500 -0.0930
 2187DPPC   C3B47939  26.344  11.068  32.172  0.2265  0.3187 -0.1272
 2187DPPC   C4B47940  26.031  10.728  32.059  0.0482 -0.1698 -0.2737
 2188DPPC   NC347941  26.592   5.808  29.414 -0.2560  0.0889 -0.3159
 2188DPPC   PO447942  26.235   5.924  29.198 -0.2733  0.1463 -0.2438
 2188DPPC   GL147943  26.124   6.342  29.299 -0.1600  0.0099  0.2022
 2188DPPC   GL247944  26.263   6.647  29.499  0.1127  0.1861  0.0806
 2188DPPC   C1A47945  25.765   6.501  29.069 -0.3866  0.1136 -0.0965
 2188DPPC   C2A47946  25.397   6.761  29.124  0.0591  0.0223  0.0874
 2188DPPC   C3A47947  25.179   7.029  28.910  0.0361  0.0889 -0.2439
 2188DPPC   C4A47948  25.027   7.306  28.665  0.4530  0.1727 -0.0466
 2188DPPC   C1B47949  26.028   7.017  29.612  0.0950  0.0339  0.0938
 2188DPPC   C2B47950  26.214   7.371  29.325  0.0174 -0.0395 -0.0836
 2188DPPC   C3B47951  26.077   7.342  28.874  0.0989  0.1801 -0.1696
 2188DPPC   C4B47952  26.041   7.300  28.428  0.2588 -0.1104 -0.4384
 2189DPPC   NC347953  22.473  14.975  32.268  0.2755  0.4651  0.0982
 2189DPPC   PO447954  22.755  15.176  32.141 -0.0052  0.0341 -0.0824
 2189DPPC   GL147955  23.176  15.278  32.380 -0.2128  0.0794  0.3472
 2189DPPC   GL247956  23.169  15.591  32.500 -0.2379  0.0458 -0.0970
 2189DPPC   C1A47957  23.420  15.044  32.684  0.0048 -0.0856 -0.0314
 2189DPPC   C2A47958  23.925  15.050  32.644  0.0304 -0.0931 -0.0510
 2189DPPC   C3A47959  24.339  15.117  32.569 -0.1387 -0.0240 -0.0756
 2189DPPC   C4A47960  24.618  15.410  32.443 -0.1453 -0.0602  0.1549
 2189DPPC   C1B47961  23.507  15.956  32.585 -0.0701  0.0308  0.0124
 2189DPPC   C2B47962  23.888  16.154  32.454  0.1698  0.1141  0.1746
 2189DPPC   C3B47963  24.148  16.560  32.320 -0.3874 -0.1989 -0.3657
 2189DPPC   C4B47964  24.417  16.855  32.231 -0.3606 -0.3521  0.2962
 2190DPPC   NC347965  24.381   5.454  22.147 -0.0680  0.0860 -0.0596
 2190DPPC   PO447966  24.081   5.216  22.292 -0.1729  0.0685 -0.1996
 2190DPPC   GL147967  23.764   5.336  22.460  0.0474 -0.2757 -0.1973
 2190DPPC   GL247968  23.644   5.106  22.672 -0.1738 -0.3497 -0.2179
 2190DPPC   C1A47969  23.435   5.465  22.418  0.2203 -0.1380 -0.1497
 2190DPPC   C2A47970  23.315   5.795  22.328  0.1337  0.0192  0.1666
 2190DPPC   C3A47971  23.110   6.176  22.457 -0.2530 -0.0394 -0.2064
 2190DPPC   C4A47972  22.902   6.579  22.606  0.3221  0.0218 -0.2066
 2190DPPC   C1B47973  23.403   5.256  22.928 -0.0853  0.2302  0.0505
 2190DPPC   C2B47974  23.138   5.556  23.108 -0.2952 -0.1046  0.1285
 2190DPPC   C3B47975  22.931   5.745  22.783 -0.1676 -0.3626  0.2217
 2190DPPC   C4B47976  22.800   5.711  22.468  0.0693  0.1007 -0.2509
 2191DPPC   NC347977  10.561   2.393  35.876 -0.1093  0.2773 -0.1831
 2191DPPC   PO447978  10.566   2.791  35.541 -0.0512 -0.2145 -0.3856
 2191DPPC   GL147979  10.871   3.004  35.276 -0.0314 -0.0449  0.0403
 2191DPPC   GL247980  11.263   3.007  35.289  0.1822  0.2226 -0.0899
 2191DPPC   C1A47981  10.938   3.411  35.295  0.1441 -0.1679 -0.0549
 2191DPPC   C2A47982  11.180   3.665  34.980 -0.1796 -0.1591 -0.2794
 2191DPPC   C3A47983  11.148   3.993  34.744  0.0283  0.0805 -0.1137
 2191DPPC   C4A47984  11.315   4.414  34.581  0.1678  0.1270 -0.0233
 2191DPPC   C1B47985  11.627   3.116  34.990  0.0032  0.1309 -0.1426
 2191DPPC   C2B47986  12.017   3.126  34.758 -0.0879 -0.1012  0.1866
 2191DPPC   C3B47987  12.309   3.449  34.641  0.5608  0.0275 -0.1048
 2191DPPC   C4B47988  12.699   3.749  34.417  0.2845 -0.2072 -0.4098
 2192DPPC   NC347989  19.018   0.810  34.320 -0.0074 -0.2431  0.0138
 2192DPPC   PO447990  19.170   0.852  33.915  0.1688 -0.3778  0.0386
 2192DPPC   GL147991  18.732   1.089  33.953 -0.0240  0.2185  0.1237
 2192DPPC   GL247992  18.503   1.054  33.736  0.2295  0.4602 -0.0435
 2192DPPC   C1A47993  18.805   1.557  33.706 -0.0229  0.2165  0.5477
 2192DPPC   C2A47994  18.751   1.971  33.762 -0.1475 -0.1391  0.0665
 2192DPPC   C3A47995  18.650   2.378  33.941  0.5389  0.2775  0.0701
 2192DPPC   C4A47996  18.647   2.801  34.214 -0.1161 -0.2031  0.0867
 2192DPPC   C1B47997  18.105   1.301  33.626 -0.1851 -0.0112 -0.0726
 2192DPPC   C2B47998  17.863   1.709  33.675  0.4066  0.2265 -0.1511
 2192DPPC   C3B47999  17.824   2.029  33.512 -0.0267  0.0111  0.2059
 2192DPPC   C4B48000  18.089   2.319  33.248 -0.0439 -0.0164 -0.1478
 2193DPPC   NC348001  25.818   8.905  20.946 -0.0246 -0.0176  0.1771
 2193DPPC   PO448002  25.673   8.557  20.704  0.0153  0.1585  0.2410
 2193DPPC   GL148003  25.273   8.820  20.719  0.2079  0.3471 -0.0921
 2193DPPC   GL248004  25.301   9.021  20.975 -0.0628  0.2167 -0.0478
 2193DPPC   C1A48005  24.819   8.742  20.756 -0.2064  0.0951 -0.1901
 2193DPPC   C2A48006  24.435   8.770  21.027 -0.0983  0.0072  0.1766
 2193DPPC   C3A48007  24.182   8.957  21.393 -0.1970  0.1254  0.0248
 2193DPPC   C4A48008  23.936   9.269  21.389 -0.4054 -0.0491  0.0827
 2193DPPC   C1B48009  24.842   9.084  21.224  0.1011 -0.0457  0.1340
 2193DPPC   C2B48010  24.587   9.067  21.592 -0.0114 -0.0731 -0.1172
 2193DPPC   C3B48011  24.247   9.118  21.864  0.0788 -0.0099 -0.3834
 2193DPPC   C4B48012  23.870   8.925  21.841  0.0074 -0.1372  0.0393
 2194DPPC   NC348013   3.312  10.402  32.668  0.0798  0.1789  0.0371
 2194DPPC   PO448014   3.604   9.987  32.687  0.1188  0.1429 -0.0798
 2194DPPC   GL148015   3.953  10.231  32.658 -0.0015 -0.3062 -0.1964
 2194DPPC   GL248016   4.106  10.128  32.966 -0.2529 -0.1644  0.0733
 2194DPPC   C1A48017   4.349  10.204  32.471 -0.0020 -0.2461  0.1403
 2194DPPC   C2A48018   4.649  10.084  32.226 -0.1159 -0.0810  0.3259
 2194DPPC   C3A48019   4.953  10.232  31.990 -0.0847  0.0060 -0.2874
 2194DPPC   C4A48020   5.215  10.514  31.814 -0.6026  0.1542 -0.2706
 2194DPPC   C1B48021   4.552  10.050  32.894 -0.0538  0.1324  0.2158
 2194DPPC   C2B48022   4.898  10.255  32.673  0.2627 -0.1317  0.0224
 2194DPPC   C3B48023   5.316  10.251  32.353 -0.1894  0.3698 -0.1737
 2194DPPC   C4B48024   5.712  10.138  32.237 -0.2408 -0.0944 -0.0724
 2195DPPC   NC348025  14.223  11.866  15.567  0.0283  0.2546  0.3077
 2195DPPC   PO448026  13.994  11.496  15.645 -0.4131 -0.0688 -0.4365
 2195DPPC   GL148027  14.168  11.552  16.046  0.1579 -0.2555 -0.0363
 2195DPPC   GL248028  14.098  11.343  16.323  0.3344 -0.0872  0.0492
 2195DPPC   C1A48029  14.368  11.867  16.233  0.0525 -0.1692  0.0624
 2195DPPC   C2A48030  14.309  11.905  16.627 -0.0552  0.3042 -0.0936
 2195DPPC   C3A48031  14.293  12.057  17.080  0.2241  0.2189  0.0067
 2195DPPC   C4A48032  14.197  12.110  17.499  0.2966 -0.1878 -0.1969
 2195DPPC   C1B48033  14.481  11.447  16.488  0.1501  0.1503 -0.0728
 2195DPPC   C2B48034  14.822  11.512  16.680 -0.4575 -0.1108 -0.0140
 2195DPPC   C3B48035  15.247  11.467  16.599 -0.1363  0.1208 -0.2685
 2195DPPC   C4B48036  15.493  11.232  16.790 -0.2482 -0.3669  0.2812
 2196DPPC   NC348037   9.585  12.947  17.845 -0.3070  0.1529  0.0067
 2196DPPC   PO448038   9.246  12.611  17.880  0.0668 -0.1694  0.0108
 2196DPPC   GL148039   9.407  12.491  18.220  0.1322 -0.2948  0.0669
 2196DPPC   GL248040   9.557  12.823  18.317 -0.2693 -0.3502 -0.0835
 2196DPPC   C1A48041   9.538  12.352  18.583  0.0013  0.1696  0.2815
 2196DPPC   C2A48042   9.577  12.274  19.025  0.0196 -0.1201  0.1017
 2196DPPC   C3A48043   9.496  12.268  19.451  0.1875 -0.0778 -0.0622
 2196DPPC   C4A48044   9.080  12.139  19.345 -0.0999  0.1660 -0.0397
 2196DPPC   C1B48045   9.555  12.759  18.768 -0.2345 -0.0196 -0.0780
 2196DPPC   C2B48046   9.560  12.720  19.251 -0.0890  0.1319 -0.2140
 2196DPPC   C3B48047   9.797  12.662  19.678 -0.2385  0.2672 -0.0903
 2196DPPC   C4B48048  10.052  12.638  20.034  0.1882 -0.1242  0.0603
 2197DPPC   NC348049   7.698  10.778  28.803  0.2419 -0.0341 -0.4167
 2197DPPC   PO448050   7.769  11.006  28.539 -0.0185  0.0492  0.3540
 2197DPPC   GL148051   7.407  10.962  28.386  0.0327  0.0703 -0.2735
 2197DPPC   GL248052   7.339  11.233  28.286 -0.1164  0.2840 -0.1841
 2197DPPC   C1A48053   6.973  10.728  28.468  0.1072 -0.1677 -0.2230
 2197DPPC   C2A48054   6.727  10.406  28.096  0.1468 -0.0949  0.1344
 2197DPPC   C3A48055   6.527  10.055  27.912 -0.2094  0.0714 -0.0072
 2197DPPC   C4A48056   6.617   9.677  27.920 -0.0642  0.1449 -0.1431
 2197DPPC   C1B48057   7.078  11.025  28.068  0.1504  0.0056 -0.0078
 2197DPPC   C2B48058   6.639  10.883  28.150  0.1939  0.1087 -0.3311
 2197DPPC   C3B48059   6.342  10.632  27.858  0.0324  0.1336  0.0682
 2197DPPC   C4B48060   5.896  10.696  27.700 -0.0747  0.0252 -0.1162
 2198DPPC   NC348061   8.426  17.446  39.951 -0.1814  0.2203  0.0329
 2198DPPC   PO448062   7.931  17.222  40.028 -0.1559  0.1664 -0.0870
 2198DPPC   GL148063   8.245  17.021  39.760  0.0963  0.0681 -0.1127
 2198DPPC   GL248064   8.093  16.959  39.419 -0.0682  0.2147 -0.2237
 2198DPPC   C1A48065   8.688  16.928  39.481 -0.1577  0.1547 -0.2619
 2198DPPC   C2A48066   9.020  16.735  39.199 -0.0186 -0.1052 -0.0410
 2198DPPC   C3A48067   9.384  16.769  38.886  0.0223 -0.1384 -0.1921
 2198DPPC   C4A48068   9.669  16.512  38.923  0.0659  0.0723 -0.1687
 2198DPPC   C1B48069   8.367  16.836  39.003 -0.1143 -0.1429 -0.2177
 2198DPPC   C2B48070   8.715  16.856  38.750 -0.3416 -0.2145  0.0687
 2198DPPC   C3B48071   8.995  16.559  38.468 -0.1640 -0.2206 -0.0614
 2198DPPC   C4B48072   9.428  16.356  38.507 -0.3069  0.0796 -0.3743
 2199DPPC   NC348073  20.848   5.519  25.916  0.2743 -0.1920  0.0886
 2199DPPC   PO448074  20.997   5.480  26.335 -0.1134  0.0559  0.1643
 2199DPPC   GL148075  21.350   5.292  26.107 -0.0305  0.0683 -0.1279
 2199DPPC   GL248076  21.356   5.376  25.759 -0.2509 -0.0802 -0.0179
 2199DPPC   C1A48077  21.579   4.937  26.057 -0.1353 -0.2793 -0.0514
 2199DPPC   C2A48078  21.507   4.493  26.087  0.1080  0.2409  0.0841
 2199DPPC   C3A48079  21.760   4.034  26.149  0.1474  0.0756  0.2057
 2199DPPC   C4A48080  21.759   3.656  26.285 -0.0398 -0.1574  0.0819
 2199DPPC   C1B48081  21.795   5.415  25.870 -0.0646  0.1510  0.1762
 2199DPPC   C2B48082  22.022   5.153  26.052 -0.0454 -0.0994  0.1355
 2199DPPC   C3B48083  22.467   4.892  26.027  0.3323  0.1978 -0.1578
 2199DPPC   C4B48084  22.785   4.570  26.096  0.2533  0.1504  0.0622
 2200DPPC   NC348085  17.910  13.643  28.078 -0.4102  0.1025 -0.0142
 2200DPPC   PO448086  18.386  13.487  27.958  0.4047 -0.0739 -0.1256
 2200DPPC   GL148087  18.157  13.620  27.520 -0.0983 -0.1178  0.0706
 2200DPPC   GL248088  18.042  13.267  27.406  0.5001 -0.0962 -0.2251
 2200DPPC   C1A48089  17.927  13.853  27.264 -0.0491 -0.4500 -0.0485
 2200DPPC   C2A48090  17.753  13.707  26.897 -0.2617  0.2392 -0.0563
 2200DPPC   C3A48091  17.738  13.602  26.466 -0.2116 -0.1659 -0.0640
 2200DPPC   C4A48092  17.398  13.802  26.157  0.0808  0.1272  0.0842
 2200DPPC   C1B48093  18.078  13.251  27.113  0.2968  0.5228 -0.2153
 2200DPPC   C2B48094  18.035  13.281  26.715 -0.1974 -0.0747 -0.0691
 2200DPPC   C3B48095  17.666  13.132  26.354  0.1898  0.3777  0.0637
 2200DPPC   C4B48096  17.271  13.299  26.265  0.0428 -0.0077 -0.0728
 2201DPPC   NC348097  10.021  17.232  18.288  0.1722  0.1136  0.2257
 2201DPPC   PO448098  10.317  16.869  18.093 -0.0015 -0.2675 -0.0751
 2201DPPC   GL148099  10.548  16.571  18.448  0.2813  0.3345 -0.1737
 2201DPPC   GL248100  10.401  16.210  18.527 -0.1218  0.2211 -0.1791
 2201DPPC   C1A48101  10.356  16.667  18.882 -0.3665  0.0210  0.3819
 2201DPPC   C2A48102  10.146  16.638  19.321  0.1984 -0.2565  0.1805
 2201DPPC   C3A48103  10.152  16.584  19.743 -0.0108  0.0664  0.2753
 2201DPPC   C4A48104  10.564  16.572  19.929  0.0547 -0.0526 -0.0113
 2201DPPC   C1B48105  10.738  16.230  18.784  0.0859 -0.0282  0.0855
 2201DPPC   C2B48106  10.998  16.137  19.152 -0.0417  0.0581  0.1209
 2201DPPC   C3B48107  11.002  16.209  19.568  0.1889  0.1561 -0.2253
 2201DPPC   C4B48108  11.068  16.315  19.982 -0.0555  0.1995 -0.0384
 2202DPPC   NC348109  26.207  15.392  26.164 -0.1136  0.1470  0.0596
 2202DPPC   PO448110  26.197  15.248  26.558 -0.2523  0.0214 -0.1340
 2202DPPC   GL148111  26.046  14.960  26.871 -0.1471 -0.0662  0.0028
 2202DPPC   GL248112  26.084  15.066  27.158  0.2050  0.2774 -0.1130
 2202DPPC   C1A48113  25.763  14.585  27.053  0.1544 -0.0672  0.0773
 2202DPPC   C2A48114  25.722  14.161  27.278  0.3065 -0.2967 -0.2253
 2202DPPC   C3A48115  25.770  13.815  27.605 -0.0062 -0.0638  0.0245
 2202DPPC   C4A48116  26.185  13.808  27.698 -0.2689  0.0152 -0.0733
 2202DPPC   C1B48117  25.932  15.027  27.582  0.4197  0.1158 -0.1175
 2202DPPC   C2B48118  25.615  14.992  27.845 -0.0455  0.2451 -0.1225
 2202DPPC   C3B48119  25.304  15.143  28.143 -0.0648  0.1487  0.1987
 2202DPPC   C4B48120  24.922  15.242  27.952 -0.1808 -0.2349  0.0498
 2203DPPC   NC348121  25.977  19.369  33.223  0.1912 -0.5350 -0.0128
 2203DPPC   PO448122  25.534  19.278  33.083 -0.2133 -0.1594  0.1720
 2203DPPC   GL148123  25.168  19.120  32.923  0.2754 -0.3620 -0.3372
 2203DPPC   GL248124  25.154  19.021  33.257  0.0662 -0.1171 -0.3404
 2203DPPC   C1A48125  24.783  18.966  32.782 -0.0182  0.4320 -0.1583
 2203DPPC   C2A48126  24.372  18.862  32.721 -0.1876  0.1882  0.0721
 2203DPPC   C3A48127  24.010  18.565  32.813  0.0629 -0.2342  0.2151
 2203DPPC   C4A48128  23.748  18.298  33.076 -0.1732 -0.1345 -0.2543
 2203DPPC   C1B48129  25.043  18.579  33.059  0.2590  0.1538  0.2454
 2203DPPC   C2B48130  24.728  18.480  32.781  0.1925 -0.0168 -0.0100
 2203DPPC   C3B48131  24.378  18.368  32.508  0.1055 -0.0372 -0.0871
 2203DPPC   C4B48132  24.019  18.342  32.387 -0.5262  0.1089 -0.0980
 2204DPPC   NC348133   6.124  21.609  29.128 -0.1212  0.0241 -0.3277
 2204DPPC   PO448134   5.833  21.439  29.366  0.1767 -0.0864  0.2614
 2204DPPC   GL148135   6.176  21.268  29.485 -0.1976  0.0559 -0.2942
 2204DPPC   GL248136   6.419  21.416  29.631  0.0573 -0.1075  0.0406
 2204DPPC   C1A48137   6.477  20.921  29.416 -0.0235  0.0147  0.2969
 2204DPPC   C2A48138   6.751  20.746  29.532 -0.0396 -0.0579 -0.1080
 2204DPPC   C3A48139   7.036  20.707  29.874 -0.2264 -0.1910  0.0141
 2204DPPC   C4A48140   7.335  20.803  30.107 -0.1705 -0.1800 -0.1354
 2204DPPC   C1B48141   6.870  21.301  29.492  0.2696  0.2775 -0.0854
 2204DPPC   C2B48142   7.130  21.163  29.817 -0.3792 -0.0352 -0.1933
 2204DPPC   C3B48143   7.295  21.372  30.144  0.2624 -0.1005 -0.0560
 2204DPPC   C4B48144   7.419  21.866  30.266 -0.0155  0.0102  0.3019
 2205DPPC   NC348145  11.141  22.881  38.239 -0.0136 -0.0048 -0.1550
 2205DPPC   PO448146  11.188  22.431  38.240 -0.1587 -0.5776  0.1534
 2205DPPC   GL148147  11.125  22.083  37.978 -0.1548  0.0559 -0.0401
 2205DPPC   GL248148  11.345  22.142  37.764 -0.2877 -0.3813 -0.0156
 2205DPPC   C1A48149  11.063  21.745  37.709  0.3416  0.0953 -0.1893
 2205DPPC   C2A48150  11.273  21.557  37.397 -0.1362  0.5217  0.3661
 2205DPPC   C3A48151  11.258  21.154  37.237 -0.1320 -0.3490 -0.0236
 2205DPPC   C4A48152  11.745  21.075  37.211 -0.1112  0.2227  0.1480
 2205DPPC   C1B48153  11.537  22.192  37.409  0.2017 -0.0340  0.1821
 2205DPPC   C2B48154  11.760  22.184  37.002  0.0300 -0.0867 -0.2531
 2205DPPC   C3B48155  11.747  21.876  36.754 -0.1829 -0.2738  0.1837
 2205DPPC   C4B48156  11.667  21.662  36.383 -0.1744  0.0580 -0.1361
 2206DPPC   NC348157  22.360  21.736  35.806 -0.1657  0.3793 -0.2682
 2206DPPC   PO448158  22.016  21.716  36.053  0.0610 -0.3862  0.1281
 2206DPPC   GL148159  21.907  21.332  35.940 -0.4781 -0.0222 -0.1844
 2206DPPC   GL248160  22.150  21.245  35.689 -0.0722 -0.0038  0.1177
 2206DPPC   C1A48161  21.856  20.881  35.849 -0.1384  0.1555 -0.0311
 2206DPPC   C2A48162  21.623  20.597  35.671  0.3333  0.2257  0.4383
 2206DPPC   C3A48163  21.348  20.334  35.487 -0.2970  0.1249  0.0295
 2206DPPC   C4A48164  21.219  19.985  35.413 -0.1944  0.3510 -0.0098
 2206DPPC   C1B48165  21.707  21.122  35.402  0.3499  0.4077  0.0763
 2206DPPC   C2B48166  21.552  20.805  35.207  0.1959 -0.3580  0.2750
 2206DPPC   C3B48167  21.429  20.517  34.926  0.1137  0.0087  0.1423
 2206DPPC   C4B48168  21.311  20.097  34.766 -0.0179  0.0239 -0.1661
 2207DPPC   NC348169  15.259  19.864  32.293  0.3943  0.2277 -0.0050
 2207DPPC   PO448170  15.126  20.213  32.496  0.0996  0.1146 -0.2669
 2207DPPC   GL148171  15.116  20.771  32.705 -0.0346  0.0885  0.4020
 2207DPPC   GL248172  15.183  21.001  32.543  0.0728 -0.1481 -0.0053
 2207DPPC   C1A48173  14.998  21.324  32.837  0.0953  0.0366  0.1733
 2207DPPC   C2A48174  15.183  21.701  32.901 -0.2875 -0.0899 -0.0636
 2207DPPC   C3A48175  15.130  21.957  33.234 -0.1553 -0.0147 -0.0703
 2207DPPC   C4A48176  15.153  22.073  33.694 -0.3288 -0.1705  0.1820
 2207DPPC   C1B48177  15.427  21.430  32.550  0.0644  0.2243 -0.2137
 2207DPPC   C2B48178  15.586  21.915  32.652 -0.0577 -0.0707  0.1956
 2207DPPC   C3B48179  15.778  22.186  32.821 -0.0738  0.0359 -0.0266
 2207DPPC   C4B48180  15.658  22.665  32.732  0.2754 -0.1577  0.0222
 2208DPPC   NC348181  23.152  16.307  40.147  0.1701  0.1059 -0.0309
 2208DPPC   PO448182  22.716  16.365  40.208  0.3057  0.5571 -0.0072
 2208DPPC   GL148183  22.646  16.011  40.024  0.2387 -0.0226 -0.2415
 2208DPPC   GL248184  22.976  15.931  39.908 -0.2688 -0.0630 -0.1653
 2208DPPC   C1A48185  22.270  15.772  39.982 -0.1598  0.2866  0.0253
 2208DPPC   C2A48186  22.023  15.830  39.583 -0.0722 -0.0044  0.0814
 2208DPPC   C3A48187  21.641  15.895  39.393 -0.2431 -0.0714 -0.0154
 2208DPPC   C4A48188  21.609  15.900  38.956  0.2649 -0.1625  0.3473
 2208DPPC   C1B48189  22.659  15.600  39.734  0.1169 -0.1955 -0.1900
 2208DPPC   C2B48190  22.624  15.276  39.609 -0.3090 -0.2834  0.0083
 2208DPPC   C3B48191  22.585  15.136  39.315  0.0036 -0.0181 -0.0064
 2208DPPC   C4B48192  22.554  14.721  39.150  0.1556  0.2763 -0.2897
 2209DPPC   NC348193   6.299  11.529  22.414  0.0467  0.0561  0.0285
 2209DPPC   PO448194   6.482  11.732  22.067 -0.0238  0.0181  0.1775
 2209DPPC   GL148195   6.914  11.739  22.291  0.0455  0.2433 -0.2634
 2209DPPC   GL248196   6.782  11.535  22.465  0.1211 -0.0846 -0.0183
 2209DPPC   C1A48197   7.213  11.997  22.571 -0.0914  0.2530  0.0406
 2209DPPC   C2A48198   7.399  12.054  23.012 -0.4189  0.1266  0.0036
 2209DPPC   C3A48199   7.672  12.376  23.104 -0.2811 -0.1636 -0.0832
 2209DPPC   C4A48200   7.634  12.766  23.271 -0.1325 -0.1542  0.2055
 2209DPPC   C1B48201   7.014  11.098  22.321  0.1468 -0.1835 -0.2548
 2209DPPC   C2B48202   7.065  10.655  22.553 -0.2037  0.0821 -0.2534
 2209DPPC   C3B48203   7.080  10.327  22.768  0.0519  0.2071 -0.1646
 2209DPPC   C4B48204   7.282  10.100  23.155  0.0641  0.1712  0.0785
 2210DPPC   NC348205  15.898   5.683  36.417 -0.2730  0.1076 -0.1986
 2210DPPC   PO448206  15.870   5.361  36.091  0.0158 -0.0960 -0.0738
 2210DPPC   GL148207  16.051   5.220  36.434  0.1054  0.1459 -0.0627
 2210DPPC   GL248208  16.179   5.026  36.377 -0.2506 -0.3168 -0.0333
 2210DPPC   C1A48209  15.711   4.981  36.640  0.4765  0.1329  0.2096
 2210DPPC   C2A48210  15.714   4.634  36.886 -0.0269  0.0232 -0.1408
 2210DPPC   C3A48211  15.495   4.674  37.337 -0.0468 -0.0229 -0.0519
 2210DPPC   C4A48212  15.337   4.936  37.676 -0.0813  0.1592  0.3841
 2210DPPC   C1B48213  15.933   4.632  36.404  0.1083  0.0974 -0.0794
 2210DPPC   C2B48214  16.125   4.246  36.419 -0.2795 -0.0603 -0.0123
 2210DPPC   C3B48215  16.551   4.071  36.435  0.4356  0.1531  0.2920
 2210DPPC   C4B48216  16.980   4.000  36.679  0.0505  0.1793 -0.1511
 2211DPPC   NC348217  12.265  10.188  22.012 -0.0644  0.2900  0.3202
 2211DPPC   PO448218  12.035  10.084  21.693  0.1363  0.0555  0.2232
 2211DPPC   GL148219  11.992  10.035  21.308 -0.2751  0.2833  0.1451
 2211DPPC   GL248220  12.229   9.937  21.132  0.1638 -0.2569  0.0388
 2211DPPC   C1A48221  11.756  10.047  20.998  0.0002 -0.0574 -0.2025
 2211DPPC   C2A48222  11.583  10.228  20.679 -0.3282 -0.1385  0.2030
 2211DPPC   C3A48223  11.512  10.283  20.364 -0.0363 -0.0561  0.0262
 2211DPPC   C4A48224  11.144  10.260  20.251  0.1706  0.0613 -0.2078
 2211DPPC   C1B48225  11.989   9.728  20.706 -0.0501  0.1784  0.0643
 2211DPPC   C2B48226  11.667   9.585  20.491 -0.0582  0.0814 -0.2352
 2211DPPC   C3B48227  11.313   9.274  20.412 -0.2476 -0.0376 -0.1624
 2211DPPC   C4B48228  10.921   9.165  20.312 -0.0719 -0.1107 -0.0858
 2212DPPC   NC348229   8.513   3.711  35.220 -0.1753  0.0604  0.2079
 2212DPPC   PO448230   8.374   4.149  35.166  0.1060  0.1332  0.1193
 2212DPPC   GL148231   8.553   4.400  34.826 -0.0264  0.1786  0.0459
 2212DPPC   GL248232   8.258   4.430  34.587  0.2699 -0.0446  0.0819
 2212DPPC   C1A48233   8.735   4.691  34.453  0.0796  0.2047  0.0529
 2212DPPC   C2A48234   8.826   4.885  34.082 -0.1509 -0.1760 -0.3805
 2212DPPC   C3A48235   8.949   5.306  33.949  0.1252 -0.3245  0.0091
 2212DPPC   C4A48236   9.031   5.725  34.148 -0.0627  0.0582  0.1804
 2212DPPC   C1B48237   8.304   4.826  34.678 -0.2334  0.0564 -0.0002
 2212DPPC   C2B48238   8.272   5.272  34.658  0.2158  0.3920 -0.0194
 2212DPPC   C3B48239   8.363   5.675  34.472  0.2318 -0.0438 -0.1949
 2212DPPC   C4B48240   8.574   6.019  34.437  0.0181 -0.0500  0.0269
 2213DPPC   NC348241   9.112  13.141  17.606 -0.1655 -0.0225  0.0337
 2213DPPC   PO448242   9.107  13.055  18.089 -0.2061 -0.1258 -0.0488
 2213DPPC   GL148243   9.332  13.309  18.422  0.3412 -0.0076 -0.3546
 2213DPPC   GL248244   9.360  13.623  18.490 -0.3629  0.0094  0.3038
 2213DPPC   C1A48245   9.750  13.225  18.507 -0.1941 -0.0305 -0.3640
 2213DPPC   C2A48246  10.032  13.206  18.894 -0.0017  0.0180  0.3141
 2213DPPC   C3A48247   9.912  13.260  19.340 -0.1733  0.1292  0.0393
 2213DPPC   C4A48248   9.565  13.099  19.684 -0.0028 -0.1595 -0.0846
 2213DPPC   C1B48249   9.738  13.624  18.800  0.0500  0.2925  0.2697
 2213DPPC   C2B48250   9.982  13.712  19.032 -0.1839 -0.0664 -0.0966
 2213DPPC   C3B48251  10.416  13.599  19.236 -0.2523  0.0031 -0.4005
 2213DPPC   C4B48252  10.850  13.793  19.244  0.3424 -0.0685 -0.0880
 2214DPPC   NC348253  20.374  16.230  15.566 -0.2545 -0.0812  0.0084
 2214DPPC   PO448254  20.131  15.824  15.661 -0.1900 -0.0612 -0.1300
 2214DPPC   GL148255  20.219  15.770  16.175  0.0432  0.1718 -0.1677
 2214DPPC   GL248256  20.440  15.937  16.417  0.0562 -0.0306 -0.2505
 2214DPPC   C1A48257  19.994  15.698  16.611  0.0815  0.2312 -0.2683
 2214DPPC   C2A48258  19.732  15.760  16.883  0.2451  0.2144  0.0874
 2214DPPC   C3A48259  19.379  15.840  17.180  0.3579  0.1327  0.0350
 2214DPPC   C4A48260  19.018  15.717  17.527 -0.0617  0.0633 -0.1978
 2214DPPC   C1B48261  20.574  15.856  16.766 -0.0223  0.0280 -0.1502
 2214DPPC   C2B48262  20.739  15.875  17.116 -0.2645 -0.0081 -0.3057
 2214DPPC   C3B48263  20.779  15.986  17.477 -0.0095  0.1956 -0.2083
 2214DPPC   C4B48264  20.474  16.065  17.778 -0.0709 -0.0487 -0.3237
 2215DPPC   NC348265  17.505  12.620  28.385 -0.0994 -0.0108  0.3593
 2215DPPC   PO448266  17.968  12.501  28.177 -0.2356 -0.2736  0.0164
 2215DPPC   GL148267  17.716  12.239  27.891 -0.0935  0.2316  0.1478
 2215DPPC   GL248268  17.396  12.373  27.904  0.0085  0.5293  0.0398
 2215DPPC   C1A48269  17.684  12.210  27.443 -0.3688  0.2021 -0.0680
 2215DPPC   C2A48270  17.647  12.600  27.277 -0.1338 -0.1187  0.3605
 2215DPPC   C3A48271  17.708  12.913  27.393  0.1119 -0.0416  0.0729
 2215DPPC   C4A48272  17.531  13.382  27.168 -0.0523 -0.2311 -0.1093
 2215DPPC   C1B48273  17.145  12.329  27.440  0.2117 -0.2760  0.1883
 2215DPPC   C2B48274  16.900  12.283  27.128 -0.2082  0.0942  0.1689
 2215DPPC   C3B48275  16.548  12.501  26.886 -0.1303  0.0312 -0.0834
 2215DPPC   C4B48276  16.457  12.701  26.464  0.0390 -0.1032 -0.1548
 2216DPPC   NC348277  21.257   9.349  22.160 -0.3601 -0.3501  0.3312
 2216DPPC   PO448278  21.323   9.493  21.702 -0.0304 -0.4029 -0.0268
 2216DPPC   GL148279  21.581   9.279  21.361  0.1567 -0.1160  0.3324
 2216DPPC   GL248280  21.619   8.944  21.293  0.0965  0.0973  0.0136
 2216DPPC   C1A48281  22.028   9.228  21.170  0.1301 -0.0641  0.2149
 2216DPPC   C2A48282  22.344   9.347  20.796 -0.2327  0.1055  0.0070
 2216DPPC   C3A48283  22.666   9.672  20.732 -0.1584  0.0562  0.3393
 2216DPPC   C4A48284  22.942   9.967  20.908  0.1074  0.0402  0.2383
 2216DPPC   C1B48285  21.866   8.838  20.884 -0.0786  0.1625 -0.1482
 2216DPPC   C2B48286  21.731   8.580  20.507  0.0330 -0.1258  0.2404
 2216DPPC   C3B48287  21.735   8.125  20.510  0.0597  0.0505  0.0242
 2216DPPC   C4B48288  21.733   7.787  20.108  0.0694  0.0130 -0.1022
 2217DPPC   NC348289  18.251  22.511  38.352  0.2570  0.0253 -0.1490
 2217DPPC   PO448290  17.797  22.770  38.365  0.0523 -0.2171 -0.3586
 2217DPPC   GL148291  17.742  22.489  38.059  0.1315 -0.0763 -0.0884
 2217DPPC   GL248292  17.519  22.258  38.133 -0.0145  0.2279 -0.0221
 2217DPPC   C1A48293  18.004  22.149  37.872 -0.1025 -0.0523 -0.0493
 2217DPPC   C2A48294  18.066  21.660  37.705 -0.0665  0.1163 -0.0520
 2217DPPC   C3A48295  18.180  21.266  37.767 -0.2528  0.3899 -0.0470
 2217DPPC   C4A48296  18.105  20.889  37.843 -0.0059  0.0189 -0.2085
 2217DPPC   C1B48297  17.545  22.211  37.649 -0.0896  0.0317  0.0364
 2217DPPC   C2B48298  17.306  21.880  37.444 -0.0673 -0.2146  0.0939
 2217DPPC   C3B48299  16.920  21.742  37.368 -0.1472  0.0390  0.1273
 2217DPPC   C4B48300  16.601  21.442  37.211 -0.0373 -0.1287 -0.1479
 2218DPPC   NC348301  16.651  13.106  27.719  0.0856  0.2153 -0.2138
 2218DPPC   PO448302  17.113  13.289  27.839  0.2390 -0.0784  0.4050
 2218DPPC   GL148303  17.221  13.126  27.479  0.0903 -0.1163  0.0007
 2218DPPC   GL248304  17.207  12.762  27.542 -0.0358  0.0991 -0.0067
 2218DPPC   C1A48305  17.271  12.781  27.073  0.0296 -0.2238 -0.2309
 2218DPPC   C2A48306  17.151  12.502  26.712 -0.1699  0.0050  0.1603
 2218DPPC   C3A48307  16.853  12.348  26.498  0.3079 -0.0611 -0.0036
 2218DPPC   C4A48308  16.830  12.492  25.952  0.1681  0.0371 -0.0891
 2218DPPC   C1B48309  16.784  12.690  27.288 -0.1748  0.1741  0.1318
 2218DPPC   C2B48310  16.452  12.355  27.345  0.0904  0.0186 -0.1549
 2218DPPC   C3B48311  16.214  12.112  27.050 -0.1579  0.1297  0.0752
 2218DPPC   C4B48312  16.091  11.763  26.957  0.0399  0.0208 -0.2074
 2219DPPC   NC348313  12.410   1.541  24.073 -0.0613 -0.1184 -0.0433
 2219DPPC   PO448314  12.736   1.585  24.280  0.1741  0.2279  0.1711
 2219DPPC   GL148315  12.894   1.924  24.606  0.3858 -0.4216  0.1090
 2219DPPC   GL248316  12.783   2.004  24.959  0.1292  0.2369  0.1964
 2219DPPC   C1A48317  13.029   2.379  24.811 -0.4723 -0.0365  0.1719
 2219DPPC   C2A48318  13.169   2.798  24.785  0.1162  0.4681  0.1235
 2219DPPC   C3A48319  13.054   3.202  24.974  0.2315  0.0225 -0.2088
 2219DPPC   C4A48320  13.262   3.518  25.170  0.0596  0.0548 -0.0253
 2219DPPC   C1B48321  13.108   2.177  25.322  0.2165  0.1637  0.0757
 2219DPPC   C2B48322  13.181   2.039  25.815  0.3273 -0.3027  0.0615
 2219DPPC   C3B48323  13.183   2.068  26.320 -0.2126 -0.3998 -0.0501
 2219DPPC   C4B48324  13.232   1.876  26.768  0.0895 -0.1280  0.3663
 2220DPPC   NC348325  15.080  16.826  20.834 -0.0089 -0.1083  0.4375
 2220DPPC   PO448326  15.211  16.883  20.453 -0.0658 -0.2118 -0.0810
 2220DPPC   GL148327  14.940  17.079  20.117 -0.2053  0.1716  0.1896
 2220DPPC   GL248328  14.866  17.405  20.228  0.1126  0.0342  0.0068
 2220DPPC   C1A48329  14.975  17.446  19.786 -0.3427 -0.3615 -0.1532
 2220DPPC   C2A48330  14.896  17.887  19.588 -0.0831 -0.1357  0.0016
 2220DPPC   C3A48331  15.039  18.021  19.278  0.1719  0.2264  0.4297
 2220DPPC   C4A48332  15.089  17.990  18.920  0.1225 -0.0362  0.1647
 2220DPPC   C1B48333  14.501  17.765  19.931  0.0032 -0.1216  0.0887
 2220DPPC   C2B48334  14.104  17.836  19.670  0.0521  0.0063 -0.2460
 2220DPPC   C3B48335  13.816  18.150  19.583  0.1721 -0.0095 -0.2792
 2220DPPC   C4B48336  13.859  18.089  19.115  0.1828  0.0230  0.1582
 2221DPPC   NC348337   5.654  18.437  36.298  0.2736  0.0946 -0.1829
 2221DPPC   PO448338   5.830  18.765  36.238 -0.3577  0.1120 -0.3352
 2221DPPC   GL148339   6.229  18.794  35.993  0.0853  0.0158 -0.0866
 2221DPPC   GL248340   6.215  19.084  35.749  0.3437  0.3805 -0.0473
 2221DPPC   C1A48341   6.323  18.507  35.719  0.1903  0.0384 -0.1463
 2221DPPC   C2A48342   6.625  18.205  35.499  0.3490  0.1221 -0.0913
 2221DPPC   C3A48343   7.159  18.221  35.466 -0.0141  0.0485 -0.0910
 2221DPPC   C4A48344   7.492  18.431  35.787  0.0425 -0.1936 -0.1456
 2221DPPC   C1B48345   6.566  19.033  35.478  0.1097 -0.2402 -0.0643
 2221DPPC   C2B48346   6.447  18.610  35.195  0.1323  0.1372  0.1143
 2221DPPC   C3B48347   6.693  18.311  34.994 -0.0523  0.3497 -0.0663
 2221DPPC   C4B48348   6.926  18.239  34.613 -0.0464 -0.0900 -0.0026
 2222DPPC   NC348349   8.168   3.959  34.463  0.2934  0.2279 -0.1698
 2222DPPC   PO448350   8.648   3.890  34.666  0.0789 -0.0435 -0.1362
 2222DPPC   GL148351   9.082   3.785  34.524 -0.2783  0.0635  0.0536
 2222DPPC   GL248352   9.249   3.873  34.750 -0.0286 -0.2015  0.4017
 2222DPPC   C1A48353   9.335   4.074  34.243  0.1426 -0.1517  0.3053
 2222DPPC   C2A48354   9.769   4.251  34.225  0.0576  0.4247 -0.1588
 2222DPPC   C3A48355  10.195   4.177  33.990 -0.0891 -0.3769  0.2189
 2222DPPC   C4A48356  10.417   3.837  33.853 -0.1035  0.0776  0.1653
 2222DPPC   C1B48357   9.634   4.081  34.663  0.0423 -0.0628 -0.1173
 2222DPPC   C2B48358   9.745   4.521  34.651  0.0155 -0.0206  0.1213
 2222DPPC   C3B48359   9.744   4.718  34.208 -0.0015  0.2212  0.2611
 2222DPPC   C4B48360  10.143   4.812  34.028  0.0914 -0.2373  0.0872
 2223DPPC   NC348361   9.492   8.976  41.759 -0.0375 -0.0246  0.0641
 2223DPPC   PO448362   9.216   8.804  41.484 -0.2923  0.0788 -0.2101
 2223DPPC   GL148363   9.335   8.842  41.076 -0.0110 -0.0137 -0.2378
 2223DPPC   GL248364   9.554   8.544  40.864  0.2505  0.2966 -0.0573
 2223DPPC   C1A48365   9.602   8.990  40.798 -0.0864  0.1736 -0.2521
 2223DPPC   C2A48366   9.644   9.180  40.359 -0.0763  0.1282 -0.1580
 2223DPPC   C3A48367   9.546   9.333  39.960 -0.4208 -0.1680 -0.0858
 2223DPPC   C4A48368   9.505   9.646  39.590 -0.0141  0.1155  0.1886
 2223DPPC   C1B48369   9.741   8.659  40.411  0.1031 -0.0170  0.0675
 2223DPPC   C2B48370   9.729   8.475  40.004 -0.1074  0.0059  0.0853
 2223DPPC   C3B48371   9.771   8.510  39.636  0.3799  0.1119  0.0205
 2223DPPC   C4B48372   9.974   8.792  39.368  0.1066  0.0664 -0.1943
 2224DPPC   NC348373  19.479  16.878  22.777  0.0882 -0.2910 -0.5627
 2224DPPC   PO448374  19.687  16.516  22.920  0.1782 -0.2305  0.0138
 2224DPPC   GL148375  20.089  16.667  23.016  0.0021  0.4015  0.1040
 2224DPPC   GL248376  20.377  16.535  22.764  0.3918  0.2259  0.2148
 2224DPPC   C1A48377  20.398  17.005  22.986  0.1433 -0.1564  0.1449
 2224DPPC   C2A48378  20.878  17.187  23.234 -0.2179  0.1292  0.0006
 2224DPPC   C3A48379  21.217  17.322  23.576  0.3356 -0.2447  0.2994
 2224DPPC   C4A48380  21.234  17.776  23.781 -0.0685 -0.1982 -0.0991
 2224DPPC   C1B48381  20.764  16.608  22.909 -0.3285  0.1621  0.0215
 2224DPPC   C2B48382  20.964  16.502  23.280 -0.0066 -0.0202 -0.1807
 2224DPPC   C3B48383  21.280  16.772  23.402 -0.1811  0.0879  0.0131
 2224DPPC   C4B48384  21.608  16.911  23.666  0.0802 -0.0256 -0.0424
 2225DPPC   NC348385  22.696   3.372  21.373 -0.3183 -0.1206 -0.3723
 2225DPPC   PO448386  22.277   3.689  21.540  0.0819 -0.0110 -0.0218
 2225DPPC   GL148387  21.885   4.000  21.593 -0.0066  0.1537  0.0763
 2225DPPC   GL248388  21.709   3.823  21.892 -0.2198 -0.0748 -0.0471
 2225DPPC   C1A48389  21.932   4.449  21.656  0.0464 -0.0053 -0.0616
 2225DPPC   C2A48390  21.941   4.808  21.486  0.1502 -0.1055 -0.0180
 2225DPPC   C3A48391  21.791   5.209  21.591 -0.0877  0.0864 -0.1406
 2225DPPC   C4A48392  21.513   5.362  21.704 -0.0555 -0.1324 -0.0777
 2225DPPC   C1B48393  21.595   4.265  22.005 -0.0375  0.0594  0.0337
 2225DPPC   C2B48394  21.276   4.449  22.200 -0.0758  0.1292  0.3416
 2225DPPC   C3B48395  20.971   4.819  22.234  0.3627 -0.1163 -0.2515
 2225DPPC   C4B48396  20.623   4.903  22.508 -0.2121 -0.3457 -0.4036
 2226DPPC   NC348397  21.799   9.046  42.616  0.0705  0.0342  0.3112
 2226DPPC   PO448398  21.403   8.839  42.608 -0.0135  0.0611 -0.3245
 2226DPPC   GL148399  21.139   8.821  42.273  0.1331  0.1915  0.0027
 2226DPPC   GL248400  20.929   9.125  42.251  0.1638  0.2466 -0.1591
 2226DPPC   C1A48401  21.180   8.859  41.762 -0.1746  0.0842  0.2694
 2226DPPC   C2A48402  20.972   8.665  41.515 -0.1909  0.2430 -0.2179
 2226DPPC   C3A48403  20.846   8.695  41.087  0.2075  0.0296  0.3199
 2226DPPC   C4A48404  20.525   8.718  40.797 -0.3214  0.0699  0.3981
 2226DPPC   C1B48405  20.559   9.292  42.112  0.1825 -0.1663 -0.0285
 2226DPPC   C2B48406  20.423   9.434  41.775  0.2877  0.1806  0.1662
 2226DPPC   C3B48407  20.482   9.558  41.329 -0.1245 -0.1647  0.0534
 2226DPPC   C4B48408  20.422   9.620  40.918  0.2096 -0.5259  0.0600
 2227DPPC   NC348409  14.736  15.847  15.809 -0.1316  0.2564  0.2850
 2227DPPC   PO448410  15.177  15.829  15.769 -0.1920  0.2925 -0.0683
 2227DPPC   GL148411  15.348  15.868  16.148 -0.1948  0.0128 -0.1941
 2227DPPC   GL248412  15.784  15.789  16.048  0.0214 -0.1928 -0.1425
 2227DPPC   C1A48413  15.495  15.679  16.465 -0.0160 -0.1136 -0.0548
 2227DPPC   C2A48414  15.515  15.371  16.744 -0.2102  0.0876  0.1075
 2227DPPC   C3A48415  15.169  15.079  16.933  0.1665  0.2270 -0.1921
 2227DPPC   C4A48416  14.820  15.024  17.058 -0.0643 -0.1994 -0.4226
 2227DPPC   C1B48417  16.011  15.634  16.389 -0.4102  0.1528  0.0568
 2227DPPC   C2B48418  15.990  15.702  16.736  0.1616 -0.2963 -0.0623
 2227DPPC   C3B48419  15.902  15.491  17.120  0.0918 -0.0582 -0.0219
 2227DPPC   C4B48420  15.691  15.208  17.346 -0.0584 -0.0208  0.1942
 2228DPPC   NC348421  14.875  19.095  23.107  0.5631  0.3793  0.0715
 2228DPPC   PO448422  14.664  19.475  23.221  0.0319 -0.0399  0.0738
 2228DPPC   GL148423  14.595  19.868  23.042  0.0498 -0.1570  0.3493
 2228DPPC   GL248424  14.751  20.190  23.145 -0.2036 -0.1735 -0.3743
 2228DPPC   C1A48425  14.339  20.101  22.647 -0.0761  0.0327 -0.1701
 2228DPPC   C2A48426  14.209  20.316  22.294 -0.0230 -0.2515 -0.0101
 2228DPPC   C3A48427  14.247  20.325  21.837 -0.2853  0.2627  0.1119
 2228DPPC   C4A48428  14.427  20.249  21.470 -0.0882 -0.0816 -0.2508
 2228DPPC   C1B48429  14.773  20.431  22.681 -0.0531  0.1505 -0.3396
 2228DPPC   C2B48430  14.677  20.529  22.318  0.1859  0.0948  0.1186
 2228DPPC   C3B48431  14.450  20.771  21.988  0.3503  0.1003  0.0208
 2228DPPC   C4B48432  14.546  20.858  21.481  0.0092  0.0084 -0.2150
 2229DPPC   NC348433  20.328  12.080  19.222  0.2096  0.0832 -0.0984
 2229DPPC   PO448434  19.850  12.207  19.339 -0.2099 -0.2371  0.1318
 2229DPPC   GL148435  19.965  12.063  18.831  0.1370 -0.2806 -0.2821
 2229DPPC   GL248436  20.308  12.045  18.690  0.2491 -0.0747 -0.0592
 2229DPPC   C1A48437  19.812  12.231  18.446 -0.1214 -0.1873  0.2391
 2229DPPC   C2A48438  19.944  12.295  18.008  0.1797 -0.0116 -0.0426
 2229DPPC   C3A48439  19.995  12.282  17.611 -0.2211 -0.2721  0.0733
 2229DPPC   C4A48440  20.050  12.533  17.195  0.1822 -0.2182 -0.0441
 2229DPPC   C1B48441  20.336  11.860  18.276  0.3063  0.2427 -0.0144
 2229DPPC   C2B48442  20.301  11.939  17.793  0.0663 -0.2475  0.2897
 2229DPPC   C3B48443  20.201  11.846  17.372 -0.0060 -0.0202  0.2086
 2229DPPC   C4B48444  20.147  11.327  17.264 -0.0785 -0.3512  0.1475
 2230DPPC   NC348445  22.035  13.261  23.047 -0.0662 -0.0480 -0.3130
 2230DPPC   PO448446  22.134  13.388  22.700  0.4041 -0.1028 -0.0294
 2230DPPC   GL148447  22.360  13.633  22.424 -0.2058 -0.1485  0.0092
 2230DPPC   GL248448  22.530  13.431  22.192 -0.1558 -0.1479  0.1388
 2230DPPC   C1A48449  22.616  14.003  22.360 -0.4581 -0.2853 -0.1293
 2230DPPC   C2A48450  22.773  14.435  22.336  0.0048 -0.3060  0.0740
 2230DPPC   C3A48451  22.932  14.779  22.410  0.2518 -0.1922 -0.2824
 2230DPPC   C4A48452  22.892  15.081  22.805 -0.1852  0.2673 -0.1796
 2230DPPC   C1B48453  22.828  13.646  22.066  0.1116  0.0344 -0.0477
 2230DPPC   C2B48454  23.122  13.526  22.270 -0.2111 -0.1586 -0.1682
 2230DPPC   C3B48455  23.516  13.383  22.155  0.1653 -0.1536  0.4030
 2230DPPC   C4B48456  23.909  13.411  22.098  0.2138 -0.0962  0.1321
 2231DPPC   NC348457   0.268  10.485  27.876 -0.0345  0.2664  0.3499
 2231DPPC   PO448458   0.318  10.487  28.280 -0.2989  0.2611  0.0110
 2231DPPC   GL148459  26.999  10.526  28.463  0.0899 -0.0644  0.0989
 2231DPPC   GL248460  26.955  10.622  28.896  0.0494  0.0145  0.1566
 2231DPPC   C1A48461  26.447  10.490  28.626  0.2369 -0.2612 -0.2639
 2231DPPC   C2A48462  26.151  10.954  28.820  0.0621 -0.1051  0.1078
 2231DPPC   C3A48463  25.675  11.112  28.970  0.5676 -0.4149 -0.3354
 2231DPPC   C4A48464  25.221  11.280  29.015  0.2196  0.1734  0.1838
 2231DPPC   C1B48465  26.600  10.766  28.986  0.0334  0.2020  0.0280
 2231DPPC   C2B48466  26.601  11.172  28.975  0.0235  0.1085 -0.0321
 2231DPPC   C3B48467  26.829  11.681  29.075  0.0131 -0.3442  0.2457
 2231DPPC   C4B48468  26.978  12.027  28.837  0.1460 -0.1564  0.0603
 2232DPPC   NC348469  22.053  10.025  21.867 -0.1303 -0.1491 -0.1092
 2232DPPC   PO448470  22.162   9.674  22.030 -0.0174  0.0353 -0.0844
 2232DPPC   GL148471  22.540   9.582  21.861  0.3052 -0.0041 -0.0168
 2232DPPC   GL248472  22.500   9.316  21.722 -0.1306  0.0909 -0.0929
 2232DPPC   C1A48473  22.940   9.491  21.754  0.1188  0.0502 -0.0252
 2232DPPC   C2A48474  23.195   9.567  21.394  0.3009  0.1364  0.1098
 2232DPPC   C3A48475  23.292   9.395  21.027 -0.1445 -0.0129  0.0352
 2232DPPC   C4A48476  23.374   9.114  20.821 -0.1948  0.0468 -0.0150
 2232DPPC   C1B48477  22.571   9.014  21.364 -0.0775  0.2724 -0.0596
 2232DPPC   C2B48478  22.626   8.739  20.963 -0.0409  0.0415 -0.2182
 2232DPPC   C3B48479  22.318   8.823  20.652  0.1356 -0.3391 -0.0572
 2232DPPC   C4B48480  22.526   9.108  20.383  0.0027  0.2360 -0.0537
 2233DPPC   NC348481   0.085  15.927  31.175 -0.0389  0.0001 -0.0461
 2233DPPC   PO448482   0.032  15.758  30.866  0.2207  0.0060 -0.1070
 2233DPPC   GL148483  26.588  15.685  30.723  0.3775  0.3609  0.0419
 2233DPPC   GL248484  26.441  15.977  30.671 -0.0598  0.0330 -0.0163
 2233DPPC   C1A48485  26.173  15.473  30.728 -0.1941 -0.0689 -0.1356
 2233DPPC   C2A48486  25.774  15.594  30.827  0.2162  0.0065 -0.0541
 2233DPPC   C3A48487  25.525  15.253  30.850  0.0526  0.1808 -0.0391
 2233DPPC   C4A48488  25.412  14.902  31.106 -0.2809 -0.1903  0.1493
 2233DPPC   C1B48489  26.062  15.944  30.554  0.0388 -0.1276 -0.1320
 2233DPPC   C2B48490  25.805  15.978  30.272  0.1211  0.0459 -0.3404
 2233DPPC   C3B48491  25.587  15.700  30.161  0.0200  0.0276 -0.3781
 2233DPPC   C4B48492  25.299  15.490  30.406 -0.3535 -0.1474 -0.1392
 2234DPPC   NC348493  18.427  15.961  20.357  0.1438  0.2015 -0.3462
 2234DPPC   PO448494  18.659  16.300  20.582 -0.1949  0.2792 -0.3813
 2234DPPC   GL148495  18.622  16.472  20.193 -0.1598  0.2376  0.0768
 2234DPPC   GL248496  18.823  16.344  20.001  0.1265  0.1563  0.1449
 2234DPPC   C1A48497  18.727  16.871  20.044  0.0926  0.0403 -0.2751
 2234DPPC   C2A48498  18.915  17.043  19.820  0.0508  0.3746  0.1621
 2234DPPC   C3A48499  18.909  17.425  19.500 -0.0961 -0.0952  0.1899
 2234DPPC   C4A48500  18.769  17.592  19.050  0.1290  0.0166  0.2289
 2234DPPC   C1B48501  19.153  16.565  20.110  0.0695 -0.0662  0.0478
 2234DPPC   C2B48502  19.585  16.591  19.963  0.0763  0.0100 -0.1358
 2234DPPC   C3B48503  19.943  16.817  19.857  0.2536 -0.1506 -0.1333
 2234DPPC   C4B48504  20.369  16.823  19.792  0.1912  0.1952 -0.3147
 2235DPPC   NC348505  20.211  10.546  19.411 -0.6184  0.3016 -0.1842
 2235DPPC   PO448506  19.833  10.715  19.095 -0.2485  0.0566  0.0868
 2235DPPC   GL148507  19.640  10.605  18.764 -0.1600  0.2936 -0.0119
 2235DPPC   GL248508  19.486  10.853  18.577  0.0943 -0.2293  0.0539
 2235DPPC   C1A48509  19.564  10.294  18.369 -0.2647  0.0846  0.0098
 2235DPPC   C2A48510  19.254  10.125  18.018 -0.3170 -0.3814 -0.0819
 2235DPPC   C3A48511  19.102   9.785  17.741  0.1157  0.1704  0.2527
 2235DPPC   C4A48512  19.321   9.485  17.463  0.0706 -0.2468  0.1589
 2235DPPC   C1B48513  19.687  10.739  18.183 -0.2179  0.3104  0.2510
 2235DPPC   C2B48514  19.659  10.837  17.654  0.0649 -0.2194 -0.2222
 2235DPPC   C3B48515  19.905  10.702  17.368  0.0015  0.2743 -0.3454
 2235DPPC   C4B48516  20.058  10.214  17.325  0.1385 -0.0626 -0.2962
 2236DPPC   NC348517  11.575   5.168  41.204 -0.0774 -0.0995 -0.0577
 2236DPPC   PO448518  11.560   5.504  40.842  0.2443  0.1039  0.2658
 2236DPPC   GL148519  11.660   5.741  40.483  0.0916  0.0701 -0.1717
 2236DPPC   GL248520  11.914   5.801  40.486 -0.3793 -0.2444 -0.0134
 2236DPPC   C1A48521  11.628   6.071  40.210 -0.1752 -0.1994 -0.0591
 2236DPPC   C2A48522  11.884   6.103  39.908  0.0589  0.1251 -0.0306
 2236DPPC   C3A48523  11.884   6.307  39.549 -0.1304  0.5279 -0.2763
 2236DPPC   C4A48524  12.059   6.492  39.228 -0.0642  0.1040  0.0668
 2236DPPC   C1B48525  12.174   6.150  40.328 -0.2320 -0.0199  0.1627
 2236DPPC   C2B48526  12.559   6.379  40.186 -0.3065 -0.1762 -0.0212
 2236DPPC   C3B48527  12.802   6.306  39.755  0.0810  0.5361  0.0071
 2236DPPC   C4B48528  12.977   6.513  39.375  0.0417  0.0628  0.0754
 2237DPPC   NC348529  20.054   0.440  29.159  0.0134  0.2225 -0.0459
 2237DPPC   PO448530  20.097   0.622  29.601 -0.1474 -0.1222 -0.2815
 2237DPPC   GL148531  19.970   0.897  29.327 -0.1399 -0.2161  0.0577
 2237DPPC   GL248532  20.133   1.038  29.049 -0.3618  0.2008  0.0191
 2237DPPC   C1A48533  19.740   1.350  29.414 -0.0828  0.3273 -0.1125
 2237DPPC   C2A48534  19.402   1.688  29.514  0.1339  0.0959 -0.1016
 2237DPPC   C3A48535  19.237   2.068  29.637  0.1073 -0.1474  0.0308
 2237DPPC   C4A48536  19.398   2.533  29.619 -0.0277  0.3734 -0.2936
 2237DPPC   C1B48537  19.947   1.412  28.917 -0.0007  0.1621  0.2048
 2237DPPC   C2B48538  19.796   1.841  29.142 -0.2995  0.1291 -0.1256
 2237DPPC   C3B48539  19.693   2.140  29.428  0.1294  0.0344  0.2560
 2237DPPC   C4B48540  19.667   2.251  29.922 -0.3363 -0.1535 -0.1848
 2238DPPC   NC348541  19.199   6.899  42.898 -0.0530  0.1398  0.0311
 2238DPPC   PO448542  19.325   7.336  42.712  0.5020 -0.5143 -0.2905
 2238DPPC   GL148543  19.502   7.480  42.349 -0.2294  0.2927  0.0794
 2238DPPC   GL248544  19.264   7.422  42.123 -0.2120  0.2828 -0.0018
 2238DPPC   C1A48545  19.594   7.796  42.075 -0.1991 -0.1429 -0.4039
 2238DPPC   C2A48546  19.641   7.943  41.676 -0.0079 -0.1570  0.0440
 2238DPPC   C3A48547  19.951   8.282  41.520 -0.0786 -0.1300 -0.3740
 2238DPPC   C4A48548  20.055   8.554  41.632  0.1348  0.2978 -0.1959
 2238DPPC   C1B48549  19.346   7.524  41.695  0.0190 -0.0151 -0.0098
 2238DPPC   C2B48550  19.150   7.812  41.407  0.0975 -0.1861 -0.0482
 2238DPPC   C3B48551  18.751   7.869  41.200 -0.0844 -0.1791  0.1016
 2238DPPC   C4B48552  18.390   7.850  40.863 -0.1273 -0.3435  0.2368
 2239DPPC   NC348553   0.274  12.432  34.545 -0.0247 -0.1736  0.1568
 2239DPPC   PO448554   0.183  12.907  34.691  0.1134 -0.6035  0.2259
 2239DPPC   GL148555   0.003  13.195  34.366 -0.5513 -0.0682  0.1329
 2239DPPC   GL248556   0.109  13.132  34.084 -0.1622 -0.1837 -0.1883
 2239DPPC   C1A48557  26.541  13.175  34.209  0.2142 -0.0971  0.0442
 2239DPPC   C2A48558  26.133  13.183  34.435 -0.2176 -0.1610  0.4213
 2239DPPC   C3A48559  25.749  13.117  34.362  0.2823  0.1450  0.2794
 2239DPPC   C4A48560  25.408  13.280  34.508 -0.1904  0.0963  0.1606
 2239DPPC   C1B48561  26.820  12.906  33.929 -0.1871  0.3165  0.3611
 2239DPPC   C2B48562  26.501  12.610  34.043  0.0402  0.1459 -0.1706
 2239DPPC   C3B48563  26.373  12.368  33.756 -0.1330 -0.1376  0.1555
 2239DPPC   C4B48564  26.283  12.180  33.335 -0.3097  0.2797  0.1173
 2240DPPC   NC348565  17.547  20.084  41.292  0.3003 -0.0245  0.1032
 2240DPPC   PO448566  17.812  20.265  40.977 -0.3880 -0.0307 -0.0341
 2240DPPC   GL148567  17.639  20.005  40.759  0.1510  0.1717 -0.1358
 2240DPPC   GL248568  17.505  20.153  40.490  0.5698  0.1149 -0.2423
 2240DPPC   C1A48569  17.481  19.587  40.523  0.0978  0.2187  0.2816
 2240DPPC   C2A48570  17.393  19.226  40.314 -0.1226  0.1195  0.3293
 2240DPPC   C3A48571  17.371  18.798  40.369  0.2055  0.0774 -0.1802
 2240DPPC   C4A48572  17.398  18.659  39.935  0.2519 -0.2950 -0.2679
 2240DPPC   C1B48573  17.227  19.838  40.211  0.1012 -0.0463  0.0072
 2240DPPC   C2B48574  17.033  19.724  39.796 -0.0706 -0.0321 -0.0771
 2240DPPC   C3B48575  16.833  19.370  39.505  0.0508  0.0355  0.0862
 2240DPPC   C4B48576  16.933  19.236  39.092 -0.3703  0.0245  0.0916
 2241DPPC   NC348577  17.829   0.130  31.703 -0.0019 -0.0087 -0.1394
 2241DPPC   PO448578  18.000   0.130  31.262  0.0297  0.3524 -0.3107
 2241DPPC   GL148579  18.155   0.570  31.153  0.0389  0.7383 -0.0090
 2241DPPC   GL248580  17.988   0.707  30.923 -0.1169 -0.4401  0.2412
 2241DPPC   C1A48581  18.352   1.022  31.183 -0.1244 -0.3027  0.1455
 2241DPPC   C2A48582  18.434   1.374  31.365 -0.0244  0.2507  0.0255
 2241DPPC   C3A48583  18.214   1.801  31.323  0.0988  0.0778 -0.0706
 2241DPPC   C4A48584  18.101   2.292  31.507 -0.1041  0.0421 -0.2891
 2241DPPC   C1B48585  18.010   1.156  30.849  0.1360 -0.3077  0.0964
 2241DPPC   C2B48586  17.979   1.467  30.576  0.1827 -0.2529 -0.1882
 2241DPPC   C3B48587  18.228   1.660  30.248  0.2757 -0.1492  0.2070
 2241DPPC   C4B48588  18.348   2.016  30.075 -0.4164 -0.0789 -0.1607
 2242DPPC   NC348589  25.506   8.647  38.480  0.4297  0.1241 -0.2099
 2242DPPC   PO448590  25.506   8.488  38.075 -0.2037  0.0258  0.0008
 2242DPPC   GL148591  25.260   8.636  37.789 -0.0640 -0.0399 -0.0272
 2242DPPC   GL248592  25.504   8.725  37.511  0.2927  0.0004 -0.1645
 2242DPPC   C1A48593  24.926   9.016  37.768 -0.0168  0.2353  0.0898
 2242DPPC   C2A48594  24.559   9.223  37.787  0.2225 -0.0694  0.1584
 2242DPPC   C3A48595  24.294   9.366  37.376 -0.3598 -0.1822  0.0033
 2242DPPC   C4A48596  23.928   9.549  37.355  0.0632 -0.0415  0.2200
 2242DPPC   C1B48597  25.189   8.903  37.345 -0.1331  0.0851  0.1313
 2242DPPC   C2B48598  24.932   8.875  37.072 -0.1785  0.0734  0.0496
 2242DPPC   C3B48599  24.570   9.108  37.012 -0.0949  0.4032  0.0134
 2242DPPC   C4B48600  24.192   8.934  36.891 -0.0932  0.2735  0.4849
 2243DPPC   NC348601  20.633  15.286  22.252 -0.2097  0.1415 -0.0831
 2243DPPC   PO448602  20.869  14.927  22.507  0.4152  0.0978  0.2941
 2243DPPC   GL148603  21.213  14.960  22.382 -0.0173  0.1366 -0.0815
 2243DPPC   GL248604  21.444  14.923  22.596 -0.1682  0.0069 -0.0620
 2243DPPC   C1A48605  21.518  15.293  22.182  0.0310  0.0903 -0.1056
 2243DPPC   C2A48606  21.760  15.517  21.823 -0.5385  0.4602 -0.0985
 2243DPPC   C3A48607  22.112  15.422  21.529 -0.1314  0.1227  0.0179
 2243DPPC   C4A48608  22.462  15.298  21.335 -0.3794  0.0533  0.0097
 2243DPPC   C1B48609  21.573  15.191  22.847 -0.4100  0.3167  0.0056
 2243DPPC   C2B48610  22.001  15.323  22.994 -0.0791 -0.0781 -0.1824
 2243DPPC   C3B48611  22.282  15.530  23.229  0.4236  0.1149  0.1339
 2243DPPC   C4B48612  22.307  15.538  23.677  0.0559  0.0062  0.0662
 2244DPPC   NC348613  22.125  11.721  21.600  0.0477  0.1985 -0.1023
 2244DPPC   PO448614  22.017  11.611  21.172 -0.2800  0.0778 -0.1172
 2244DPPC   GL148615  22.353  11.536  20.845 -0.1850 -0.1786  0.0459
 2244DPPC   GL248616  22.416  11.301  20.589 -0.2340  0.1045  0.2886
 2244DPPC   C1A48617  22.753  11.740  20.712 -0.1111  0.1409 -0.0996
 2244DPPC   C2A48618  23.123  11.758  20.402 -0.0965 -0.1521  0.2434
 2244DPPC   C3A48619  23.562  11.744  20.195  0.0815 -0.0932 -0.1812
 2244DPPC   C4A48620  23.868  11.534  19.900  0.0071  0.0152 -0.1889
 2244DPPC   C1B48621  22.487  11.106  20.120  0.1029  0.2110 -0.3845
 2244DPPC   C2B48622  22.842  10.966  19.864  0.2675  0.2680  0.0275
 2244DPPC   C3B48623  23.194  10.773  19.624 -0.1132 -0.1743 -0.3205
 2244DPPC   C4B48624  23.541  10.764  19.312  0.0299  0.0896 -0.2476
 2245DPPC   NC348625  22.572  10.711  42.232 -0.1803 -0.1027 -0.1608
 2245DPPC   PO448626  22.343  10.913  41.994 -0.0675  0.2618 -0.1388
 2245DPPC   GL148627  22.311  11.051  41.636  0.0955  0.2499 -0.1043
 2245DPPC   GL248628  22.402  11.140  41.409 -0.0337 -0.0012  0.0061
 2245DPPC   C1A48629  21.898  11.240  41.446 -0.0331 -0.1716 -0.1771
 2245DPPC   C2A48630  21.814  11.600  41.169 -0.2457 -0.0341  0.0464
 2245DPPC   C3A48631  21.865  12.051  40.973  0.3880  0.0398  0.2445
 2245DPPC   C4A48632  22.328  12.070  40.842  0.1148  0.6965 -0.2577
 2245DPPC   C1B48633  22.360  11.295  41.049  0.0925  0.2862  0.0407
 2245DPPC   C2B48634  22.331  11.633  40.647 -0.2973 -0.0683 -0.0054
 2245DPPC   C3B48635  22.216  11.635  40.171  0.0174 -0.2519 -0.1886
 2245DPPC   C4B48636  21.966  12.008  39.938 -0.3351  0.1225  0.0928
 2246DPPC   NC348637  22.601  11.720  25.043 -0.1592 -0.3667  0.0683
 2246DPPC   PO448638  22.508  11.495  25.439 -0.0675 -0.1751 -0.0380
 2246DPPC   GL148639  22.931  11.502  25.445  0.0732  0.0400 -0.0748
 2246DPPC   GL248640  23.141  11.483  25.154  0.1511 -0.0611 -0.1594
 2246DPPC   C1A48641  23.468  11.489  25.527 -0.0041 -0.0969  0.1537
 2246DPPC   C2A48642  23.866  11.275  25.402 -0.1174 -0.0313 -0.0980
 2246DPPC   C3A48643  24.363  11.275  25.401  0.2745 -0.1431 -0.1410
 2246DPPC   C4A48644  24.670  11.095  25.325 -0.0820  0.2452  0.1277
 2246DPPC   C1B48645  23.615  11.571  24.995 -0.2333 -0.3834  0.0252
 2246DPPC   C2B48646  24.024  11.605  25.072  0.0108 -0.1401  0.2446
 2246DPPC   C3B48647  24.358  11.764  25.018  0.0285 -0.0633 -0.2264
 2246DPPC   C4B48648  24.420  12.132  24.907 -0.1633 -0.0839  0.0489
 2247DPPC   NC348649  13.335  17.573  22.490  0.2054 -0.1120  0.3206
 2247DPPC   PO448650  13.253  17.631  21.974 -0.2278 -0.1163  0.2727
 2247DPPC   GL148651  13.128  18.003  21.876 -0.2746 -0.1809  0.3541
 2247DPPC   GL248652  13.242  18.334  21.854 -0.1317  0.3433  0.0267
 2247DPPC   C1A48653  12.756  18.343  21.707  0.1972 -0.0140  0.2990
 2247DPPC   C2A48654  12.638  18.745  21.424  0.4004 -0.2757  0.0297
 2247DPPC   C3A48655  12.575  18.839  21.002  0.2079  0.1694  0.1014
 2247DPPC   C4A48656  12.558  19.088  20.576  0.0006 -0.0470 -0.1007
 2247DPPC   C1B48657  13.212  18.714  21.540  0.2741 -0.3101  0.2664
 2247DPPC   C2B48658  13.123  19.033  21.282 -0.3499  0.0782  0.1711
 2247DPPC   C3B48659  12.945  19.140  20.846  0.1001 -0.1243 -0.5707
 2247DPPC   C4B48660  13.109  18.842  20.545  0.0401  0.0249 -0.0300
 2248DPPC   NC348661  24.961   4.834  24.460  0.1935  0.0263 -0.1221
 2248DPPC   PO448662  24.639   4.554  24.329  0.0447  0.3636 -0.3699
 2248DPPC   GL148663  24.422   4.827  24.637 -0.1657 -0.1424  0.0128
 2248DPPC   GL248664  24.586   5.071  24.678 -0.3247  0.4396  0.1155
 2248DPPC   C1A48665  24.035   4.985  24.607  0.0458 -0.2385  0.0472
 2248DPPC   C2A48666  23.775   5.328  24.831 -0.2030  0.0172  0.0324
 2248DPPC   C3A48667  23.429   5.437  24.938  0.3371  0.1071  0.0420
 2248DPPC   C4A48668  23.126   5.462  25.082  0.5009  0.0255  0.0143
 2248DPPC   C1B48669  24.298   5.412  24.614  0.0735  0.1292  0.1483
 2248DPPC   C2B48670  24.152   5.878  24.480  0.0533  0.0372 -0.1952
 2248DPPC   C3B48671  23.968   6.304  24.538 -0.0481  0.1552 -0.0131
 2248DPPC   C4B48672  23.664   6.604  24.671  0.1671  0.0859 -0.0849
 2249DPPC   NC348673   1.242  12.843  33.006  0.1931  0.1137  0.0043
 2249DPPC   PO448674   0.920  12.584  33.312 -0.2745 -0.3071 -0.2207
 2249DPPC   GL148675   0.592  12.350  33.279  0.1686  0.0200 -0.1279
 2249DPPC   GL248676   0.360  12.387  33.574 -0.0401 -0.1286 -0.0654
 2249DPPC   C1A48677   0.305  12.007  33.073 -0.1261  0.2313 -0.0614
 2249DPPC   C2A48678  27.037  11.751  33.130 -0.0886  0.1918 -0.1262
 2249DPPC   C3A48679  26.919  11.469  33.556 -0.0080  0.0451  0.1925
 2249DPPC   C4A48680  26.541  11.124  33.820 -0.0961 -0.2412 -0.1332
 2249DPPC   C1B48681   0.005  12.364  33.336 -0.3624  0.2159  0.2249
 2249DPPC   C2B48682  26.727  12.514  33.371  0.0686 -0.0959 -0.0615
 2249DPPC   C3B48683  26.430  12.686  33.062 -0.4098 -0.2127  0.3780
 2249DPPC   C4B48684  26.033  12.471  33.008 -0.0741  0.1376 -0.1030
 2250DPPC   NC348685  17.739  18.229  22.581  0.1008 -0.0798 -0.0289
 2250DPPC   PO448686  18.224  18.165  22.556 -0.0063  0.0854 -0.2509
 2250DPPC   GL148687  18.574  18.537  22.359  0.1364 -0.1361 -0.2330
 2250DPPC   GL248688  18.688  18.487  22.100  0.3021 -0.0167 -0.4600
 2250DPPC   C1A48689  18.874  19.014  22.412 -0.0285  0.0850  0.1632
 2250DPPC   C2A48690  18.919  19.382  22.379 -0.0505  0.2737 -0.0382
 2250DPPC   C3A48691  18.757  19.734  22.049  0.1887 -0.0729  0.0508
 2250DPPC   C4A48692  18.328  19.878  21.988 -0.1007  0.1012  0.2084
 2250DPPC   C1B48693  18.822  18.821  21.921 -0.1687 -0.0093  0.0642
 2250DPPC   C2B48694  19.065  19.269  21.932 -0.0727  0.0861  0.1449
 2250DPPC   C3B48695  19.224  19.719  21.807  0.0077 -0.1062 -0.1167
 2250DPPC   C4B48696  19.149  20.042  21.981  0.1011  0.0792 -0.1394
 2251DPPC   NC348697   3.856   9.842  31.918  0.0141 -0.5301  0.1567
 2251DPPC   PO448698   3.975   9.516  31.664 -0.1085  0.0811 -0.1016
 2251DPPC   GL148699   4.288   9.778  31.641 -0.0320  0.3914 -0.0561
 2251DPPC   GL248700   4.318   9.827  31.370 -0.0902  0.0719  0.1792
 2251DPPC   C1A48701   4.616  10.087  31.684 -0.1932 -0.0407 -0.0799
 2251DPPC   C2A48702   5.026  10.160  31.523  0.0223 -0.2776  0.2727
 2251DPPC   C3A48703   5.308  10.299  31.335  0.0095  0.0642 -0.2868
 2251DPPC   C4A48704   5.655  10.198  31.533 -0.2084 -0.0256  0.1713
 2251DPPC   C1B48705   4.668   9.949  31.172 -0.0151  0.0835 -0.0778
 2251DPPC   C2B48706   5.009  10.204  30.941 -0.0704 -0.1171  0.2669
 2251DPPC   C3B48707   5.198  10.591  30.758 -0.0781  0.0924 -0.2433
 2251DPPC   C4B48708   5.552  10.830  30.519  0.0831  0.2622  0.2573
 2252DPPC   NC348709  16.782  19.602  26.088  0.1118  0.0159  0.2002
 2252DPPC   PO448710  16.687  20.073  26.050  0.0730 -0.2564 -0.0743
 2252DPPC   GL148711  16.663  20.468  25.759  0.0648  0.1087 -0.1884
 2252DPPC   GL248712  16.628  20.605  25.382  0.0567  0.0146  0.0175
 2252DPPC   C1A48713  16.609  20.957  25.840  0.1396 -0.3385  0.0706
 2252DPPC   C2A48714  16.566  21.370  25.919  0.1674  0.0100 -0.1049
 2252DPPC   C3A48715  16.643  21.769  26.137  0.2219  0.1290  0.0330
 2252DPPC   C4A48716  16.650  22.130  26.156  0.0632 -0.2148  0.1159
 2252DPPC   C1B48717  16.661  21.057  25.313 -0.3813  0.0041  0.2700
 2252DPPC   C2B48718  16.752  21.461  25.396 -0.1344 -0.0804  0.0969
 2252DPPC   C3B48719  16.750  21.760  25.673  0.0878 -0.2603  0.1010
 2252DPPC   C4B48720  16.936  22.096  25.739 -0.0581  0.1646  0.0078
 2253DPPC   NC348721  19.371  10.349  19.108 -0.1178  0.2169  0.0488
 2253DPPC   PO448722  18.930  10.504  19.307  0.0027 -0.1482 -0.0644
 2253DPPC   GL148723  18.877  10.392  18.835 -0.0995 -0.1940  0.0912
 2253DPPC   GL248724  19.115  10.526  18.621  0.1290 -0.2679 -0.0568
 2253DPPC   C1A48725  18.640  10.187  18.490 -0.1231 -0.1402  0.0882
 2253DPPC   C2A48726  18.364  10.120  18.103  0.1415 -0.2179  0.1616
 2253DPPC   C3A48727  18.078   9.969  17.830 -0.0158 -0.1269 -0.4442
 2253DPPC   C4A48728  18.036  10.188  17.511 -0.2977 -0.2371  0.0747
 2253DPPC   C1B48729  18.957  10.543  18.263  0.1662  0.3589 -0.1021
 2253DPPC   C2B48730  19.252  10.707  17.989 -0.2927 -0.0186 -0.2060
 2253DPPC   C3B48731  19.419  10.418  17.643 -0.1282  0.0261  0.0314
 2253DPPC   C4B48732  19.414  10.108  17.369 -0.1747  0.0580  0.2406
 2254DPPC   NC348733   7.212   6.263  36.596  0.1705  0.0234 -0.0355
 2254DPPC   PO448734   6.908   6.497  36.370  0.2139  0.0185 -0.4661
 2254DPPC   GL148735   7.382   6.663  36.324  0.0689  0.2595  0.2274
 2254DPPC   GL248736   7.277   6.828  36.385  0.0015  0.1555  0.1774
 2254DPPC   C1A48737   7.721   6.761  36.169 -0.1026  0.2015  0.0241
 2254DPPC   C2A48738   8.020   7.111  36.227  0.0164 -0.1205 -0.0284
 2254DPPC   C3A48739   8.004   7.566  36.024 -0.0711  0.2038  0.1250
 2254DPPC   C4A48740   8.085   7.904  35.794  0.1303 -0.3749 -0.2478
 2254DPPC   C1B48741   7.546   7.214  36.379 -0.1157 -0.0120  0.0343
 2254DPPC   C2B48742   7.568   7.630  36.351 -0.0042  0.1176 -0.2314
 2254DPPC   C3B48743   7.749   8.012  36.219 -0.2772 -0.0809 -0.2458
 2254DPPC   C4B48744   7.994   8.393  36.046  0.1737  0.2331 -0.0938
 2255DPPC   NC348745  22.880   9.807  22.744 -0.0410  0.2780 -0.3672
 2255DPPC   PO448746  22.710  10.029  23.250  0.0055  0.0134 -0.0362
 2255DPPC   GL148747  23.209   9.992  23.096 -0.0894  0.1630 -0.3565
 2255DPPC   GL248748  23.332   9.986  22.774  0.0666 -0.3117  0.0889
 2255DPPC   C1A48749  23.693   9.976  23.130  0.2217 -0.1036 -0.0422
 2255DPPC   C2A48750  24.065   9.944  23.235 -0.3114  0.2392 -0.0598
 2255DPPC   C3A48751  24.458   9.829  23.093  0.3679  0.2069  0.0441
 2255DPPC   C4A48752  24.786   9.569  23.082 -0.1252 -0.0829 -0.0635
 2255DPPC   C1B48753  23.721  10.223  22.437  0.3558  0.2324 -0.0066
 2255DPPC   C2B48754  24.042  10.660  22.371 -0.0012  0.2591 -0.0559
 2255DPPC   C3B48755  24.464  10.874  22.410  0.0011  0.2505 -0.3319
 2255DPPC   C4B48756  24.795  10.654  22.741  0.0327 -0.0604  0.2060
 2256DPPC   NC348757  20.509  15.396  27.162  0.2691 -0.3702  0.0146
 2256DPPC   PO448758  20.841  15.066  26.952  0.3932  0.2024 -0.3350
 2256DPPC   GL148759  20.894  15.311  26.642 -0.1990  0.3090 -0.0911
 2256DPPC   GL248760  20.751  15.518  26.719  0.1320 -0.0004 -0.0524
 2256DPPC   C1A48761  20.959  15.482  26.264 -0.0227 -0.2642 -0.2079
 2256DPPC   C2A48762  20.956  15.714  25.958  0.1089 -0.1171 -0.2321
 2256DPPC   C3A48763  21.074  15.746  25.547  0.1645 -0.0634  0.3683
 2256DPPC   C4A48764  21.386  15.932  25.301 -0.2145  0.2187  0.2119
 2256DPPC   C1B48765  20.787  15.880  26.433  0.0477  0.0421  0.4381
 2256DPPC   C2B48766  20.937  16.198  26.093  0.2882 -0.3971 -0.0014
 2256DPPC   C3B48767  21.382  16.307  25.856  0.0001  0.3259  0.1198
 2256DPPC   C4B48768  21.731  16.200  25.580 -0.2006  0.2150  0.0701
 2257DPPC   NC348769  10.986  12.779  43.341 -0.3208 -0.3411  0.0538
 2257DPPC   PO448770  10.886  12.382  43.245 -0.0424  0.1301  0.0629
 2257DPPC   GL148771  11.092  12.379  42.843 -0.0628  0.0908 -0.0660
 2257DPPC   GL248772  11.374  12.222  42.776 -0.0992 -0.1080 -0.1148
 2257DPPC   C1A48773  10.977  12.443  42.413 -0.2286  0.0912  0.0212
 2257DPPC   C2A48774  11.136  12.593  42.070 -0.0074 -0.1321 -0.0994
 2257DPPC   C3A48775  11.304  12.824  41.708 -0.3410  0.1132  0.1634
 2257DPPC   C4A48776  11.433  12.788  41.370 -0.3003  0.1499  0.1656
 2257DPPC   C1B48777  11.621  12.396  42.375 -0.0640  0.0904 -0.0150
 2257DPPC   C2B48778  11.885  12.343  42.015  0.2014  0.0389  0.0877
 2257DPPC   C3B48779  12.125  12.405  41.602 -0.0516  0.0690  0.1953
 2257DPPC   C4B48780  12.186  12.085  41.277 -0.0429  0.2089 -0.0172
 2258DPPC   NC348781  19.371  15.555  20.387  0.0934  0.4750 -0.2169
 2258DPPC   PO448782  19.470  15.740  20.755  0.0284 -0.3076  0.3858
 2258DPPC   GL148783  19.762  15.853  20.505 -0.1762 -0.0171 -0.2224
 2258DPPC   GL248784  19.993  16.061  20.729  0.0961 -0.1800  0.0939
 2258DPPC   C1A48785  20.006  16.081  20.146 -0.2532  0.0872  0.3755
 2258DPPC   C2A48786  20.199  16.149  19.791 -0.2060 -0.3015  0.2926
 2258DPPC   C3A48787  20.076  16.496  19.444  0.1203  0.1459  0.0827
 2258DPPC   C4A48788  19.721  16.774  19.408 -0.3081 -0.0178  0.2408
 2258DPPC   C1B48789  20.215  16.524  20.792 -0.0729  0.2062 -0.2168
 2258DPPC   C2B48790  20.390  16.962  20.714 -0.1717  0.2391 -0.0374
 2258DPPC   C3B48791  20.342  17.371  20.574 -0.0396  0.0380 -0.3048
 2258DPPC   C4B48792  20.256  17.858  20.633  0.1340 -0.1223 -0.0333
 2259DPPC   NC348793  26.184   5.276  33.045  0.1071  0.3286 -0.2237
 2259DPPC   PO448794  25.953   5.688  33.066 -0.1624  0.0467 -0.1015
 2259DPPC   GL148795  25.512   5.901  33.218  0.2478  0.0929 -0.0686
 2259DPPC   GL248796  25.213   5.802  33.156 -0.1392  0.1121  0.0285
 2259DPPC   C1A48797  25.171   6.207  33.397  0.0587  0.0232  0.0203
 2259DPPC   C2A48798  25.002   6.652  33.438  0.1577  0.0886 -0.0619
 2259DPPC   C3A48799  24.906   7.053  33.420 -0.3241 -0.0991  0.0160
 2259DPPC   C4A48800  24.805   7.459  33.255 -0.0495 -0.1534 -0.1974
 2259DPPC   C1B48801  24.739   5.766  33.036 -0.0418 -0.0613 -0.0886
 2259DPPC   C2B48802  24.527   6.136  32.811 -0.0323 -0.1212  0.0369
 2259DPPC   C3B48803  24.334   6.049  32.372 -0.1474 -0.0383  0.1174
 2259DPPC   C4B48804  24.107   5.684  32.202  0.0449  0.3607  0.2179
 2260DPPC   NC348805   9.110   3.943  35.852  0.0031 -0.3297 -0.2310
 2260DPPC   PO448806   9.126   4.216  36.295 -0.1550 -0.1632 -0.0791
 2260DPPC   GL148807   9.249   4.602  36.309 -0.3260 -0.4013 -0.4773
 2260DPPC   GL248808   9.297   4.827  36.595  0.0370  0.2760  0.2504
 2260DPPC   C1A48809   9.164   4.944  36.089  0.0575  0.0179 -0.0495
 2260DPPC   C2A48810   9.027   5.058  35.730  0.2398  0.0871 -0.0070
 2260DPPC   C3A48811   9.157   5.362  35.542  0.0663 -0.0928 -0.1344
 2260DPPC   C4A48812   9.029   5.690  35.234  0.0677  0.3288  0.3677
 2260DPPC   C1B48813   9.679   5.068  36.600 -0.2231  0.0101 -0.2264
 2260DPPC   C2B48814   9.982   5.405  36.838  0.0145 -0.1284 -0.4581
 2260DPPC   C3B48815  10.384   5.593  37.007  0.2187  0.2468 -0.3134
 2260DPPC   C4B48816  10.726   5.734  37.271 -0.1491 -0.0272 -0.1066
 2261DPPC   NC348817  14.019  18.707  22.084  0.2301 -0.1032 -0.0530
 2261DPPC   PO448818  14.070  18.499  21.730  0.1200 -0.0754  0.0747
 2261DPPC   GL148819  13.679  18.518  21.512  0.0244 -0.0494 -0.2430
 2261DPPC   GL248820  13.422  18.253  21.392  0.1864 -0.1683  0.1521
 2261DPPC   C1A48821  13.528  18.728  21.166  0.1485 -0.1537 -0.1925
 2261DPPC   C2A48822  13.483  19.106  20.837  0.1155  0.2665 -0.0357
 2261DPPC   C3A48823  13.464  19.474  20.668  0.3911 -0.0079 -0.1402
 2261DPPC   C4A48824  13.750  19.865  20.579 -0.3196  0.2492 -0.0609
 2261DPPC   C1B48825  13.545  18.294  21.002  0.0169  0.3060  0.1511
 2261DPPC   C2B48826  13.506  18.172  20.508 -0.0714  0.0800  0.0044
 2261DPPC   C3B48827  13.505  17.801  20.282  0.2801  0.1611  0.3844
 2261DPPC   C4B48828  13.688  17.691  19.849  0.1999  0.0852  0.0400
 2262DPPC   NC348829  16.327  17.341  20.377  0.1134  0.0953  0.5611
 2262DPPC   PO448830  16.826  17.532  20.410  0.2061 -0.2107 -0.0271
 2262DPPC   GL148831  16.938  17.612  20.035  0.2202 -0.0676  0.0560
 2262DPPC   GL248832  17.245  17.551  20.116 -0.2038  0.1634 -0.1438
 2262DPPC   C1A48833  16.886  17.830  19.650  0.0365 -0.0349  0.1565
 2262DPPC   C2A48834  16.914  17.867  19.212 -0.2137  0.1518 -0.0755
 2262DPPC   C3A48835  16.869  18.189  18.916  0.0698  0.1428  0.0056
 2262DPPC   C4A48836  16.433  18.101  18.775 -0.2614  0.1212  0.0941
 2262DPPC   C1B48837  17.301  17.485  19.662  0.1557  0.0602 -0.1784
 2262DPPC   C2B48838  17.400  17.896  19.394 -0.2023  0.0302  0.1875
 2262DPPC   C3B48839  17.431  18.231  19.203  0.1680 -0.1858  0.0313
 2262DPPC   C4B48840  17.427  18.401  18.806 -0.1372  0.2919  0.2946
 2263DPPC   NC348841  17.144  19.375  22.701 -0.0398  0.0239 -0.3199
 2263DPPC   PO448842  17.360  19.376  22.315  0.2266  0.1282 -0.0983
 2263DPPC   GL148843  17.433  19.837  22.349  0.1010  0.0245 -0.1805
 2263DPPC   GL248844  17.300  19.879  22.142 -0.0903  0.0793 -0.1785
 2263DPPC   C1A48845  17.552  20.341  22.371  0.2874 -0.0884 -0.1194
 2263DPPC   C2A48846  17.490  20.742  22.572  0.0724  0.0375 -0.1478
 2263DPPC   C3A48847  17.494  21.079  22.869  0.3082  0.1277  0.1109
 2263DPPC   C4A48848  17.200  21.474  23.121 -0.0082  0.1606  0.0925
 2263DPPC   C1B48849  17.247  20.242  21.876 -0.0892 -0.0559  0.0444
 2263DPPC   C2B48850  16.895  20.511  21.929 -0.3616  0.0617  0.3486
 2263DPPC   C3B48851  16.534  20.574  22.051 -0.0449 -0.2629 -0.1211
 2263DPPC   C4B48852  16.275  20.338  22.315 -0.2098  0.2652  0.0011
 2264DPPC   NC348853  16.433   1.486  21.235 -0.1720 -0.1641 -0.4860
 2264DPPC   PO448854  16.435   2.030  21.046  0.0395  0.1537 -0.2345
 2264DPPC   GL148855  16.377   2.355  21.377 -0.2441 -0.2100 -0.0433
 2264DPPC   GL248856  16.630   2.366  21.612  0.0974  0.1568  0.0029
 2264DPPC   C1A48857  16.092   2.658  21.524  0.0864 -0.0848  0.0370
 2264DPPC   C2A48858  15.814   2.730  21.829  0.1418 -0.0011 -0.0905
 2264DPPC   C3A48859  15.725   2.962  22.109 -0.0440 -0.3074 -0.0052
 2264DPPC   C4A48860  15.353   2.968  22.254  0.1682  0.2474 -0.4080
 2264DPPC   C1B48861  16.955   2.637  21.631 -0.2037 -0.3139 -0.2031
 2264DPPC   C2B48862  17.120   2.927  21.426 -0.2110  0.0982  0.1456
 2264DPPC   C3B48863  17.291   3.315  21.466  0.2809 -0.1249  0.0745
 2264DPPC   C4B48864  17.299   3.755  21.408 -0.0140 -0.0125  0.3695
 2265DPPC   NC348865   5.684  19.817  25.455  0.1138 -0.3351 -0.0123
 2265DPPC   PO448866   5.693  20.124  25.859 -0.0321  0.0300  0.0846
 2265DPPC   GL148867   6.034  19.791  25.861  0.0656  0.1754  0.1336
 2265DPPC   GL248868   6.129  19.633  25.618  0.2169 -0.1118 -0.1325
 2265DPPC   C1A48869   6.485  19.837  25.924  0.3708  0.0320 -0.1500
 2265DPPC   C2A48870   6.900  19.843  25.943 -0.0788 -0.3274  0.0057
 2265DPPC   C3A48871   7.340  19.775  25.761 -0.0416 -0.2679 -0.0122
 2265DPPC   C4A48872   7.701  19.486  25.558 -0.0851 -0.2220  0.0085
 2265DPPC   C1B48873   6.358  19.360  25.261  0.0656  0.1272 -0.1010
 2265DPPC   C2B48874   6.663  19.144  25.234  0.2412 -0.3494 -0.1079
 2265DPPC   C3B48875   6.940  18.914  25.131  0.2106 -0.2373 -0.0442
 2265DPPC   C4B48876   7.217  18.607  25.046 -0.2660 -0.1112 -0.4394
 2266DPPC   NC348877  17.855  24.454  26.362 -0.0762  0.1478 -0.1680
 2266DPPC   PO448878  17.552  24.372  26.648 -0.0687  0.0980  0.2893
 2266DPPC   GL148879  17.224  24.093  26.777 -0.0507  0.0105  0.2550
 2266DPPC   GL248880  16.924  24.168  26.713 -0.4568  0.0520 -0.0905
 2266DPPC   C1A48881  17.144  23.695  27.054  0.2277 -0.0262 -0.0909
 2266DPPC   C2A48882  16.991  23.258  27.170  0.2032  0.3289  0.1047
 2266DPPC   C3A48883  16.771  22.961  27.417 -0.0651  0.0041 -0.0026
 2266DPPC   C4A48884  16.434  22.768  27.622 -0.2035 -0.2438  0.3952
 2266DPPC   C1B48885  16.945  23.781  26.549  0.0564  0.3116  0.1015
 2266DPPC   C2B48886  17.031  23.398  26.645 -0.1391 -0.0902 -0.3465
 2266DPPC   C3B48887  16.682  23.195  26.576 -0.3028  0.1505 -0.1156
 2266DPPC   C4B48888  16.399  22.800  26.529 -0.1278  0.0337  0.0516
 2267DPPC   NC348889  26.358  12.441  37.318  0.0838  0.2773  0.0407
 2267DPPC   PO448890  26.449  12.111  37.011  0.0998 -0.1620 -0.3102
 2267DPPC   GL148891  26.357  12.122  36.596 -0.0918 -0.1711 -0.0626
 2267DPPC   GL248892  26.294  12.318  36.393  0.2343 -0.1216  0.4287
 2267DPPC   C1A48893  26.177  11.776  36.245 -0.0945  0.2544 -0.1067
 2267DPPC   C2A48894  25.930  11.402  36.100 -0.0300 -0.0402 -0.2318
 2267DPPC   C3A48895  25.526  11.349  36.242  0.1298  0.1387 -0.0563
 2267DPPC   C4A48896  25.297  10.884  36.364 -0.3980 -0.1179 -0.1758
 2267DPPC   C1B48897  26.104  12.419  35.909  0.0444 -0.0815 -0.1977
 2267DPPC   C2B48898  26.222  12.703  35.616  0.1735  0.2025  0.1983
 2267DPPC   C3B48899  25.874  12.782  35.365 -0.1328  0.0765 -0.0537
 2267DPPC   C4B48900  25.446  12.661  35.270 -0.1811  0.2004 -0.2478
 2268DPPC   NC348901  15.998  11.771  44.208  0.1548  0.0592  0.2164
 2268DPPC   PO448902  16.050  12.059  43.869  0.3356 -0.0325 -0.2742
 2268DPPC   GL148903  16.284  11.840  43.558  0.0413 -0.0566  0.0212
 2268DPPC   GL248904  16.489  11.523  43.555 -0.0170 -0.2083  0.2440
 2268DPPC   C1A48905  16.160  11.762  43.186 -0.4640 -0.1281  0.1267
 2268DPPC   C2A48906  16.143  11.478  42.918  0.0239 -0.0979 -0.3354
 2268DPPC   C3A48907  16.347  11.058  42.938  0.3028 -0.3992 -0.2283
 2268DPPC   C4A48908  16.329  10.761  42.594 -0.3197 -0.2740  0.1781
 2268DPPC   C1B48909  16.609  11.624  43.061 -0.0502 -0.0847 -0.0276
 2268DPPC   C2B48910  16.452  11.792  42.691 -0.2771 -0.0505  0.3060
 2268DPPC   C3B48911  16.624  11.894  42.357  0.2305  0.0839 -0.2976
 2268DPPC   C4B48912  16.668  12.026  41.923  0.0569 -0.2711  0.2822
 2269DPPC   NC348913  18.320  12.969  18.954  0.2609  0.2658 -0.0669
 2269DPPC   PO448914  18.750  13.166  18.875  0.1416 -0.1255 -0.0706
 2269DPPC   GL148915  18.722  12.908  18.550  0.0974 -0.0982 -0.1518
 2269DPPC   GL248916  18.659  13.122  18.314 -0.0141  0.1254 -0.2002
 2269DPPC   C1A48917  18.675  12.489  18.301 -0.1072 -0.3138  0.1151
 2269DPPC   C2A48918  18.773  12.351  17.855 -0.1370  0.3380  0.1643
 2269DPPC   C3A48919  18.926  12.039  17.498 -0.0303 -0.1315  0.1382
 2269DPPC   C4A48920  19.121  12.105  17.104  0.0348  0.1179  0.0258
 2269DPPC   C1B48921  18.630  13.407  17.950 -0.1034  0.1536  0.1408
 2269DPPC   C2B48922  18.808  13.731  17.855  0.2302  0.1746  0.3015
 2269DPPC   C3B48923  18.904  13.866  17.438  0.1783  0.0832  0.1735
 2269DPPC   C4B48924  18.779  14.090  16.989  0.2187  0.1187  0.3065
 2270DPPC   NC348925  19.114  16.109  20.573 -0.0426  0.1058  0.1027
 2270DPPC   PO448926  18.917  15.741  20.406  0.2412  0.1041 -0.0841
 2270DPPC   GL148927  19.185  16.040  20.110 -0.1642 -0.1632 -0.0728
 2270DPPC   GL248928  19.454  16.141  20.142 -0.2536 -0.2800 -0.0847
 2270DPPC   C1A48929  19.194  16.270  19.678 -0.1074  0.4582 -0.2568
 2270DPPC   C2A48930  19.206  16.623  19.561 -0.3907  0.1536  0.1274
 2270DPPC   C3A48931  19.146  16.923  19.352 -0.0712 -0.1127  0.3382
 2270DPPC   C4A48932  19.150  17.244  18.965 -0.2676  0.2068 -0.2320
 2270DPPC   C1B48933  19.723  16.243  19.687  0.0038 -0.3071 -0.1334
 2270DPPC   C2B48934  19.562  16.282  19.303 -0.2546  0.2434  0.0421
 2270DPPC   C3B48935  19.427  16.192  18.873 -0.0647 -0.5835  0.1139
 2270DPPC   C4B48936  19.421  16.527  18.479 -0.1186 -0.0376  0.0231
 2271DPPC   NC348937   5.686  20.802  28.363 -0.2236 -0.1592  0.2265
 2271DPPC   PO448938   5.481  21.093  28.743 -0.1365  0.0234  0.1040
 2271DPPC   GL148939   5.728  20.652  28.849  0.4079  0.1109 -0.0423
 2271DPPC   GL248940   5.765  20.371  28.615  0.1300 -0.1243 -0.2522
 2271DPPC   C1A48941   6.037  20.506  29.085  0.2495 -0.0895 -0.1852
 2271DPPC   C2A48942   6.412  20.523  29.052 -0.2125  0.1709 -0.0977
 2271DPPC   C3A48943   6.857  20.474  29.111  0.0628  0.1684  0.1818
 2271DPPC   C4A48944   7.022  20.175  29.051  0.0253  0.1503 -0.0638
 2271DPPC   C1B48945   6.204  20.223  28.700  0.3452 -0.1017 -0.1429
 2271DPPC   C2B48946   6.469  19.908  28.947  0.2217  0.0333 -0.2288
 2271DPPC   C3B48947   6.865  19.643  28.908  0.2395  0.2825  0.1538
 2271DPPC   C4B48948   7.163  19.234  28.842 -0.3111 -0.1238  0.2307
 2272DPPC   NC348949  26.607   6.164  31.125 -0.0793  0.1531 -0.0966
 2272DPPC   PO448950  26.585   6.133  30.701 -0.1712 -0.1340  0.1214
 2272DPPC   GL148951  26.186   6.339  30.821 -0.2487  0.0416  0.0873
 2272DPPC   GL248952  26.301   6.513  30.955  0.0028  0.1860  0.2387
 2272DPPC   C1A48953  25.812   6.524  30.993 -0.1913  0.0993  0.3651
 2272DPPC   C2A48954  25.300   6.475  31.057 -0.0104 -0.1261 -0.0142
 2272DPPC   C3A48955  24.881   6.574  31.183 -0.0233  0.2033 -0.1325
 2272DPPC   C4A48956  24.571   6.751  31.394 -0.3952  0.0990 -0.1720
 2272DPPC   C1B48957  26.129   6.870  31.202  0.2532 -0.3024  0.2486
 2272DPPC   C2B48958  25.617   6.909  31.102 -0.2142 -0.2786  0.1312
 2272DPPC   C3B48959  25.274   6.994  30.961  0.3699 -0.4711 -0.1382
 2272DPPC   C4B48960  24.801   6.997  30.900 -0.2584 -0.2403  0.5339
 2273DPPC   NC348961  14.312  20.728  33.720  0.0410  0.0185  0.4976
 2273DPPC   PO448962  14.710  20.848  33.740  0.0652  0.3637 -0.1877
 2273DPPC   GL148963  15.055  21.008  33.942 -0.3779 -0.0908  0.0163
 2273DPPC   GL248964  15.351  20.918  33.990 -0.0865  0.1148 -0.1366
 2273DPPC   C1A48965  15.196  21.370  34.193  0.0693 -0.1952  0.0958
 2273DPPC   C2A48966  15.405  21.602  34.536 -0.0616  0.0024  0.1719
 2273DPPC   C3A48967  15.697  21.756  34.772  0.0596 -0.1283 -0.3248
 2273DPPC   C4A48968  15.796  21.698  35.225 -0.0459  0.3669 -0.0617
 2273DPPC   C1B48969  15.553  21.334  33.877 -0.2140 -0.1043  0.3068
 2273DPPC   C2B48970  15.716  21.673  33.688  0.1758 -0.0455 -0.1475
 2273DPPC   C3B48971  15.643  22.057  33.772 -0.2852 -0.0902  0.0770
 2273DPPC   C4B48972  15.860  22.338  34.093 -0.1045  0.3940  0.1715
 2274DPPC   NC348973  18.869  12.772  19.100 -0.0199 -0.0919  0.1741
 2274DPPC   PO448974  19.229  12.483  19.068  0.5166  0.1748  0.1857
 2274DPPC   GL148975  19.130  12.573  18.533 -0.1807 -0.2182  0.1114
 2274DPPC   GL248976  19.464  12.583  18.406  0.1325  0.1678  0.0839
 2274DPPC   C1A48977  19.070  12.713  18.088 -0.1841 -0.2492 -0.0313
 2274DPPC   C2A48978  19.058  12.716  17.577 -0.1738  0.4207  0.2214
 2274DPPC   C3A48979  18.840  12.486  17.366 -0.1791 -0.2984  0.2894
 2274DPPC   C4A48980  18.494  12.142  17.164  0.3038 -0.2572  0.0612
 2274DPPC   C1B48981  19.665  12.683  17.966 -0.1644 -0.0027 -0.1328
 2274DPPC   C2B48982  19.996  12.812  17.682 -0.2130  0.1994 -0.0463
 2274DPPC   C3B48983  20.229  13.037  17.406  0.2751 -0.2404 -0.1128
 2274DPPC   C4B48984  20.668  13.011  17.263 -0.0602  0.0001  0.0873
 2275DPPC   NC348985  18.484   4.862  41.897  0.1421  0.0580  0.2038
 2275DPPC   PO448986  18.772   5.292  41.721 -0.2763 -0.1576 -0.2108
 2275DPPC   GL148987  18.698   5.391  41.309 -0.1362  0.1626  0.3190
 2275DPPC   GL248988  18.397   5.243  41.200  0.0375  0.0159 -0.5205
 2275DPPC   C1A48989  18.945   5.383  40.870  0.1195  0.1599  0.3464
 2275DPPC   C2A48990  19.136   5.481  40.417  0.0562 -0.2374 -0.0537
 2275DPPC   C3A48991  18.990   5.787  40.132 -0.1081 -0.3719  0.1507
 2275DPPC   C4A48992  18.921   5.992  39.731 -0.2707  0.0992 -0.3692
 2275DPPC   C1B48993  18.427   5.564  40.925 -0.1586 -0.2201  0.0389
 2275DPPC   C2B48994  18.701   5.811  40.585  0.3901  0.0973  0.1839
 2275DPPC   C3B48995  19.037   6.106  40.497  0.4252  0.0722  0.1853
 2275DPPC   C4B48996  19.168   6.314  40.128  0.0915 -0.1914 -0.3630
 2276DPPC   NC348997  10.441   5.276  20.325  0.2034 -0.1280  0.3227
 2276DPPC   PO448998  10.526   4.865  20.442  0.1028  0.0625 -0.0199
 2276DPPC   GL148999  10.680   5.116  20.748 -0.0946 -0.4924 -0.1957
 2276DPPC   GL249000  10.521   5.154  21.133  0.3229  0.0913  0.1282
 2276DPPC   C1A49001  10.635   5.522  20.854  0.1876 -0.2550 -0.1974
 2276DPPC   C2A49002  10.612   6.066  21.073  0.1029  0.0308  0.1270
 2276DPPC   C3A49003  10.358   6.274  21.359 -0.2216 -0.0021  0.1156
 2276DPPC   C4A49004  10.080   6.485  21.669  0.1403  0.0697  0.3601
 2276DPPC   C1B49005  10.736   5.376  21.499  0.2514 -0.1847  0.0765
 2276DPPC   C2B49006  10.878   5.504  21.881 -0.1565 -0.0639  0.0895
 2276DPPC   C3B49007  10.975   5.574  22.305  0.1233  0.1299  0.1073
 2276DPPC   C4B49008  11.189   5.393  22.682  0.1028  0.0120 -0.0430
 2277DPPC   NC349009   7.648  23.196  28.589  0.1188  0.0826  0.0656
 2277DPPC   PO449010   7.964  23.336  28.332  0.0300 -0.1113  0.1992
 2277DPPC   GL149011   8.350  23.110  28.106  0.2106  0.1511 -0.1609
 2277DPPC   GL249012   8.133  22.752  28.000 -0.0008 -0.1798 -0.3489
 2277DPPC   C1A49013   8.512  22.721  28.353  0.1181  0.0865  0.5183
 2277DPPC   C2A49014   8.790  22.251  28.343 -0.1752  0.3030  0.0711
 2277DPPC   C3A49015   9.149  22.174  28.137  0.0654 -0.2094  0.0273
 2277DPPC   C4A49016   9.305  21.819  28.160 -0.1617 -0.1439  0.2637
 2277DPPC   C1B49017   8.411  22.448  27.941 -0.0288  0.1919  0.2482
 2277DPPC   C2B49018   8.800  22.161  27.801  0.1061  0.4233  0.0727
 2277DPPC   C3B49019   9.105  21.818  27.697 -0.0772 -0.1342 -0.5590
 2277DPPC   C4B49020   9.272  21.491  27.506  0.2556 -0.1516  0.1006
 2278DPPC   NC349021  16.933  14.400  19.379  0.0927 -0.1597  0.0446
 2278DPPC   PO449022  16.952  14.645  19.091  0.2824  0.0383  0.2350
 2278DPPC   GL149023  16.822  14.867  18.659 -0.3717 -0.1083  0.1208
 2278DPPC   GL249024  16.820  15.118  18.769 -0.0601 -0.2543  0.1831
 2278DPPC   C1A49025  16.584  14.928  18.254 -0.1287  0.2300  0.1459
 2278DPPC   C2A49026  16.228  15.068  18.011 -0.2670 -0.4106  0.0070
 2278DPPC   C3A49027  15.914  15.138  17.806  0.2202 -0.2660  0.3062
 2278DPPC   C4A49028  15.610  15.570  17.704  0.0735  0.4562 -0.0277
 2278DPPC   C1B49029  16.736  15.633  18.733  0.2871 -0.2069  0.0324
 2278DPPC   C2B49030  17.134  15.825  18.622 -0.0354 -0.2093 -0.1372
 2278DPPC   C3B49031  17.512  16.074  18.434  0.2367 -0.1582 -0.1071
 2278DPPC   C4B49032  17.666  16.014  17.998 -0.1363 -0.2201 -0.2419
 2279DPPC   NC349033  26.683  12.986  22.010  0.3727 -0.2616 -0.1091
 2279DPPC   PO449034  26.234  12.800  22.050  0.1532  0.2826 -0.0799
 2279DPPC   GL149035  26.030  12.627  22.375  0.1036  0.2281 -0.0245
 2279DPPC   GL249036  26.070  12.532  22.678 -0.1547  0.0236 -0.0229
 2279DPPC   C1A49037  25.688  12.789  22.518 -0.2036  0.2968 -0.1749
 2279DPPC   C2A49038  25.271  12.925  22.762  0.1445  0.0779 -0.0931
 2279DPPC   C3A49039  24.798  12.850  22.775 -0.0466 -0.0142  0.0594
 2279DPPC   C4A49040  24.396  12.969  22.878  0.0928  0.1440  0.1068
 2279DPPC   C1B49041  25.639  12.282  22.630  0.2928 -0.3188 -0.0775
 2279DPPC   C2B49042  25.390  12.074  22.831 -0.0820  0.1213  0.1867
 2279DPPC   C3B49043  25.254  11.822  23.293 -0.4348 -0.0220 -0.1654
 2279DPPC   C4B49044  25.536  11.684  23.468  0.5554  0.0120  0.1812
 2280DPPC   NC349045   0.287   8.944  24.801  0.0410 -0.0809  0.2281
 2280DPPC   PO449046  26.936   9.174  24.824 -0.0507  0.0917 -0.1142
 2280DPPC   GL149047  26.873   9.475  25.181  0.3263  0.1772 -0.1749
 2280DPPC   GL249048  26.894   9.789  25.221  0.2320  0.1389 -0.1831
 2280DPPC   C1A49049  26.413   9.601  25.248 -0.2261  0.0967 -0.0299
 2280DPPC   C2A49050  26.105   9.605  25.531  0.0406 -0.1091 -0.1445
 2280DPPC   C3A49051  25.620   9.677  25.676  0.1625 -0.0118  0.2974
 2280DPPC   C4A49052  25.105   9.615  25.468 -0.1651 -0.2056 -0.1096
 2280DPPC   C1B49053  26.563  10.027  24.990 -0.4668 -0.0509  0.2683
 2280DPPC   C2B49054  26.288  10.385  24.894 -0.0838  0.0352 -0.2346
 2280DPPC   C3B49055  25.944  10.395  24.950 -0.1352 -0.1464 -0.0815
 2280DPPC   C4B49056  25.894  10.533  25.347 -0.0911  0.0817 -0.1339
 2281DPPC   NC349057  10.753   6.942  33.558  0.1170 -0.1228 -0.2690
 2281DPPC   PO449058  11.054   6.576  33.757  0.0816  0.0056  0.3342
 2281DPPC   GL149059  10.823   6.423  34.059 -0.2315 -0.3502  0.2573
 2281DPPC   GL249060  10.902   6.111  34.339  0.0425 -0.0432 -0.1991
 2281DPPC   C1A49061  10.486   6.266  33.986 -0.1393  0.1124  0.1508
 2281DPPC   C2A49062  10.184   5.972  34.075 -0.1540 -0.2465 -0.3502
 2281DPPC   C3A49063   9.913   5.719  34.311 -0.1074 -0.2684  0.2426
 2281DPPC   C4A49064   9.700   5.806  34.678 -0.1261 -0.0419  0.0226
 2281DPPC   C1B49065  10.483   5.843  34.463 -0.0450 -0.0516  0.1441
 2281DPPC   C2B49066  10.239   5.986  34.797  0.1720  0.3882  0.0182
 2281DPPC   C3B49067  10.444   6.215  35.051 -0.1797  0.2567 -0.0475
 2281DPPC   C4B49068  10.350   6.352  35.391 -0.0063 -0.5026 -0.3203
 2282DPPC   NC349069  17.138  17.859  21.268  0.2197  0.4243  0.0152
 2282DPPC   PO449070  17.387  18.118  21.546 -0.1497 -0.2356 -0.2729
 2282DPPC   GL149071  17.269  18.289  21.073 -0.0837  0.0331 -0.0329
 2282DPPC   GL249072  17.391  18.024  20.885  0.1459  0.2438  0.1627
 2282DPPC   C1A49073  17.346  18.660  20.755 -0.2072  0.3123 -0.2426
 2282DPPC   C2A49074  17.756  18.926  20.820  0.2011 -0.0745  0.0136
 2282DPPC   C3A49075  18.010  19.110  20.619  0.0406  0.1918  0.1790
 2282DPPC   C4A49076  18.407  19.065  20.272 -0.0102  0.1998 -0.0594
 2282DPPC   C1B49077  17.561  18.311  20.500 -0.1964 -0.4225  0.1119
 2282DPPC   C2B49078  17.560  18.436  20.100 -0.1422 -0.1378  0.1315
 2282DPPC   C3B49079  17.600  18.595  19.556  0.0632  0.0557 -0.1682
 2282DPPC   C4B49080  17.550  18.768  19.191 -0.0484 -0.3703 -0.2340
 2283DPPC   NC349081  24.715  19.360  27.128 -0.1396 -0.2022  0.0363
 2283DPPC   PO449082  24.570  18.894  27.219  0.0635  0.4330 -0.0561
 2283DPPC   GL149083  24.222  18.596  27.234  0.0026 -0.1169 -0.3177
 2283DPPC   GL249084  24.075  18.662  27.503  0.1569  0.0722 -0.0853
 2283DPPC   C1A49085  23.927  18.248  27.410  0.0411 -0.1053 -0.0752
 2283DPPC   C2A49086  23.557  18.116  27.594  0.0430  0.0028  0.0074
 2283DPPC   C3A49087  23.147  17.950  27.722  0.0965  0.2741  0.1891
 2283DPPC   C4A49088  22.735  18.055  27.659  0.3166  0.1703  0.2451
 2283DPPC   C1B49089  23.755  18.704  27.820 -0.0116 -0.0140  0.2529
 2283DPPC   C2B49090  23.453  18.293  28.036 -0.1792  0.3985 -0.3514
 2283DPPC   C3B49091  23.223  17.916  28.290  0.0898  0.2882 -0.1038
 2283DPPC   C4B49092  22.752  17.922  28.330 -0.4117  0.1218 -0.0155
 2284DPPC   NC349093  21.777  10.909  22.238  0.1326  0.0138 -0.1844
 2284DPPC   PO449094  22.257  11.036  22.171  0.0903  0.0951  0.0100
 2284DPPC   GL149095  22.499  10.980  21.762  0.0351 -0.3361 -0.3707
 2284DPPC   GL249096  22.583  10.634  21.731 -0.1171 -0.2427 -0.2350
 2284DPPC   C1A49097  22.826  11.099  21.433 -0.1414 -0.0142 -0.1685
 2284DPPC   C2A49098  23.026  10.844  21.056 -0.2661  0.0118  0.2185
 2284DPPC   C3A49099  23.330  10.910  20.816  0.0177  0.2277  0.1605
 2284DPPC   C4A49100  23.695  11.121  20.857  0.0597 -0.1441  0.1055
 2284DPPC   C1B49101  22.878  10.476  21.497 -0.2331  0.3361 -0.0237
 2284DPPC   C2B49102  23.183  10.268  21.257  0.4150  0.0229  0.0201
 2284DPPC   C3B49103  23.434   9.993  21.178  0.1498 -0.0081 -0.3957
 2284DPPC   C4B49104  23.668   9.704  21.212 -0.2131  0.2606  0.0133
 2285DPPC   NC349105   3.732  17.180  33.199  0.3212 -0.0741  0.0860
 2285DPPC   PO449106   3.630  16.844  33.445 -0.2336 -0.2244  0.0524
 2285DPPC   GL149107   4.017  16.831  33.586  0.1052  0.2080  0.1232
 2285DPPC   GL249108   4.159  16.626  33.880  0.0025  0.0831 -0.3193
 2285DPPC   C1A49109   4.445  16.766  33.433 -0.0987 -0.0820 -0.0235
 2285DPPC   C2A49110   4.805  16.590  33.135 -0.2770 -0.2583 -0.2323
 2285DPPC   C3A49111   5.158  16.393  33.004 -0.0822  0.1219  0.0220
 2285DPPC   C4A49112   5.440  16.293  32.683 -0.1929  0.0519  0.3202
 2285DPPC   C1B49113   4.228  16.279  33.923 -0.0147 -0.0375  0.2060
 2285DPPC   C2B49114   4.550  16.077  33.954  0.0512  0.1781  0.2405
 2285DPPC   C3B49115   4.898  15.958  33.799  0.1139 -0.0549  0.1918
 2285DPPC   C4B49116   5.275  15.894  33.401  0.2564 -0.1254  0.1980
 2286DPPC   NC349117  18.367  17.887  24.240  0.2184  0.0334 -0.0059
 2286DPPC   PO449118  18.619  18.014  24.513  0.1919 -0.1163 -0.0016
 2286DPPC   GL149119  19.033  18.164  24.540  0.0457 -0.0117 -0.3644
 2286DPPC   GL249120  19.158  17.914  24.335 -0.4157 -0.0886 -0.0903
 2286DPPC   C1A49121  19.142  18.531  24.419 -0.1574 -0.3412 -0.1836
 2286DPPC   C2A49122  19.224  18.764  24.167  0.0567 -0.0694  0.1793
 2286DPPC   C3A49123  19.462  18.984  23.818  0.1068 -0.3166 -0.2122
 2286DPPC   C4A49124  19.679  19.454  23.680  0.0205 -0.0923  0.1414
 2286DPPC   C1B49125  19.562  18.189  24.417  0.1961 -0.4627 -0.1624
 2286DPPC   C2B49126  19.953  18.349  24.506  0.2194  0.2694  0.2069
 2286DPPC   C3B49127  20.114  18.731  24.572 -0.1368  0.1270  0.0827
 2286DPPC   C4B49128  20.178  18.837  24.188  0.2054 -0.1163  0.3659
 2287DPPC   NC349129  22.478  19.896  38.370  0.3407  0.2459  0.1502
 2287DPPC   PO449130  22.134  19.693  38.549 -0.0753  0.1267  0.2676
 2287DPPC   GL149131  22.148  19.233  38.727  0.1241 -0.0293  0.2886
 2287DPPC   GL249132  22.385  18.929  38.681 -0.2011  0.4391 -0.0208
 2287DPPC   C1A49133  21.698  19.076  38.693 -0.1512  0.0745  0.5779
 2287DPPC   C2A49134  21.299  19.125  38.382 -0.0559 -0.0367 -0.1365
 2287DPPC   C3A49135  21.077  19.282  38.099  0.1072 -0.0681  0.3243
 2287DPPC   C4A49136  20.752  19.273  37.738  0.2653  0.1092 -0.0289
 2287DPPC   C1B49137  22.150  18.750  38.265 -0.1693  0.0917  0.0591
 2287DPPC   C2B49138  21.699  18.604  38.155  0.0088 -0.2622 -0.3268
 2287DPPC   C3B49139  21.385  18.515  37.873  0.3157 -0.1738  0.3439
 2287DPPC   C4B49140  21.151  18.419  37.541  0.1347 -0.0047 -0.0721
 2288DPPC   NC349141  24.664  15.782  19.126  0.2453  0.0282  0.1913
 2288DPPC   PO449142  24.403  15.472  19.061  0.0405 -0.0826  0.0394
 2288DPPC   GL149143  23.999  15.396  19.053 -0.0243  0.3823  0.1366
 2288DPPC   GL249144  23.876  15.189  18.879  0.1824 -0.2101 -0.0975
 2288DPPC   C1A49145  23.720  14.980  19.285 -0.1046  0.4472 -0.1771
 2288DPPC   C2A49146  23.347  14.881  19.306  0.3215  0.2388 -0.0750
 2288DPPC   C3A49147  22.971  14.885  19.435  0.2238  0.1015  0.0337
 2288DPPC   C4A49148  22.757  15.255  19.718 -0.0402 -0.2084  0.1376
 2288DPPC   C1B49149  23.593  14.881  18.808 -0.0506 -0.0355  0.0204
 2288DPPC   C2B49150  23.136  14.663  18.768  0.2114 -0.0522 -0.1791
 2288DPPC   C3B49151  23.016  14.332  18.660 -0.2584  0.2900  0.0714
 2288DPPC   C4B49152  23.055  13.997  18.478 -0.2253  0.6161 -0.1648
 2289DPPC   NC349153  19.386  23.815  30.830  0.0753  0.2056 -0.4019
 2289DPPC   PO449154  19.669  23.512  30.947 -0.3073  0.0930 -0.0508
 2289DPPC   GL149155  19.478  23.156  30.842  0.1495 -0.0546 -0.2468
 2289DPPC   GL249156  19.334  23.034  31.207 -0.1513  0.6253  0.2959
 2289DPPC   C1A49157  19.480  22.740  30.780  0.1789 -0.1147  0.2636
 2289DPPC   C2A49158  19.232  22.243  30.795 -0.0787 -0.0027  0.1713
 2289DPPC   C3A49159  19.121  21.810  30.774 -0.0930 -0.3182  0.2409
 2289DPPC   C4A49160  19.334  21.574  31.154 -0.1477 -0.3300 -0.1521
 2289DPPC   C1B49161  19.060  22.633  31.191 -0.1011  0.0587 -0.0387
 2289DPPC   C2B49162  18.815  22.484  31.525 -0.0249 -0.1183 -0.1714
 2289DPPC   C3B49163  18.658  22.155  31.792 -0.0797 -0.0713  0.3171
 2289DPPC   C4B49164  18.619  21.755  31.932  0.0161  0.0541 -0.0903
 2290DPPC   NC349165  26.121  14.363  24.687  0.2562 -0.0945 -0.0800
 2290DPPC   PO449166  26.154  14.086  24.426  0.1380 -0.1711 -0.0099
 2290DPPC   GL149167  25.952  13.689  24.472  0.0050  0.2301  0.1144
 2290DPPC   GL249168  25.646  13.817  24.330  0.0079  0.0659 -0.1040
 2290DPPC   C1A49169  25.602  13.508  24.738 -0.2614 -0.1013  0.0529
 2290DPPC   C2A49170  25.520  13.495  25.149 -0.3963 -0.2231  0.1853
 2290DPPC   C3A49171  25.257  13.151  25.280 -0.2448  0.2866  0.1228
 2290DPPC   C4A49172  24.926  12.866  25.453  0.2021  0.0935 -0.0387
 2290DPPC   C1B49173  25.317  13.485  24.276 -0.2605 -0.0246 -0.0682
 2290DPPC   C2B49174  25.063  13.224  24.328  0.1831  0.3945  0.1374
 2290DPPC   C3B49175  24.957  12.811  24.554  0.1297  0.3890  0.1138
 2290DPPC   C4B49176  24.493  12.675  24.731  0.0231 -0.4517  0.0959
 2291DPPC   NC349177   5.487  21.332  30.769  0.1516 -0.3620  0.2167
 2291DPPC   PO449178   5.726  20.891  30.672 -0.1479 -0.0408 -0.0540
 2291DPPC   GL149179   6.070  20.724  30.874 -0.1583 -0.0518 -0.0636
 2291DPPC   GL249180   5.931  20.677  31.242  0.1889  0.0211  0.2853
 2291DPPC   C1A49181   6.298  20.373  31.025  0.0752  0.0957 -0.1342
 2291DPPC   C2A49182   6.603  20.101  30.889  0.3204 -0.0707 -0.0565
 2291DPPC   C3A49183   6.860  19.801  30.907 -0.1275 -0.1710 -0.1395
 2291DPPC   C4A49184   7.055  19.380  30.701 -0.3568  0.3787  0.3095
 2291DPPC   C1B49185   6.061  20.362  31.483  0.1016  0.0768  0.0018
 2291DPPC   C2B49186   6.411  20.128  31.517 -0.0911 -0.2639  0.3374
 2291DPPC   C3B49187   6.673  19.824  31.345 -0.0339  0.0960 -0.1429
 2291DPPC   C4B49188   6.673  19.422  31.225 -0.1423 -0.4162  0.0508
 2292DPPC   NC349189  17.413  13.573  19.199 -0.0645  0.0216 -0.2292
 2292DPPC   PO449190  17.458  13.596  18.749  0.2727  0.0024  0.2101
 2292DPPC   GL149191  17.583  13.502  18.411 -0.1180 -0.1109 -0.0061
 2292DPPC   GL249192  17.861  13.618  18.432  0.3946 -0.2161 -0.0581
 2292DPPC   C1A49193  17.683  13.430  17.950 -0.1748  0.3464 -0.2751
 2292DPPC   C2A49194  17.843  13.499  17.588  0.0744  0.0347  0.2128
 2292DPPC   C3A49195  18.117  13.389  17.231  0.0940 -0.3169 -0.2899
 2292DPPC   C4A49196  18.313  13.299  16.890  0.1078 -0.1450  0.0909
 2292DPPC   C1B49197  18.113  13.718  17.957 -0.0966 -0.1040 -0.0965
 2292DPPC   C2B49198  18.359  13.688  17.616  0.3440  0.0028  0.1379
 2292DPPC   C3B49199  18.595  13.671  17.117  0.2587  0.1280 -0.2224
 2292DPPC   C4B49200  18.974  13.569  16.839  0.1684  0.0559  0.0449
 2293DPPC   NC349201   3.620  15.147  25.827 -0.0722  0.3932  0.0338
 2293DPPC   PO449202   3.769  14.910  26.317 -0.0559 -0.0607 -0.0849
 2293DPPC   GL149203   4.154  14.922  26.551  0.2511  0.1689  0.2017
 2293DPPC   GL249204   4.141  14.974  26.836  0.1926  0.1724 -0.0834
 2293DPPC   C1A49205   4.558  14.723  26.669  0.1739  0.0041 -0.1115
 2293DPPC   C2A49206   4.943  14.671  26.509 -0.0111 -0.2238  0.1323
 2293DPPC   C3A49207   5.321  14.661  26.668 -0.0771 -0.0945  0.1725
 2293DPPC   C4A49208   5.765  14.553  26.878 -0.4215 -0.0954 -0.0394
 2293DPPC   C1B49209   4.469  14.922  27.130 -0.2089  0.0835 -0.2180
 2293DPPC   C2B49210   4.956  14.741  27.099 -0.2092  0.3759 -0.1710
 2293DPPC   C3B49211   5.251  14.703  27.266 -0.1265 -0.1917  0.0775
 2293DPPC   C4B49212   5.573  14.876  27.449  0.4724 -0.3494  0.0657
 2294DPPC   NC349213  20.445  14.382  23.173  0.1870  0.1502  0.0018
 2294DPPC   PO449214  20.788  14.699  23.366 -0.2060  0.1340 -0.1150
 2294DPPC   GL149215  21.187  14.977  23.192 -0.1022 -0.2452 -0.2998
 2294DPPC   GL249216  21.422  15.076  23.381 -0.3062  0.1366  0.4349
 2294DPPC   C1A49217  21.240  15.477  23.164 -0.0214  0.4251 -0.1256
 2294DPPC   C2A49218  21.270  15.870  23.139 -0.1081 -0.2305 -0.0134
 2294DPPC   C3A49219  21.199  16.196  22.936 -0.1112  0.0159 -0.2879
 2294DPPC   C4A49220  21.108  16.495  22.573 -0.0271 -0.1103 -0.1407
 2294DPPC   C1B49221  21.359  15.017  23.829 -0.0354 -0.0868 -0.3373
 2294DPPC   C2B49222  21.488  14.878  24.231  0.1360  0.1163 -0.0024
 2294DPPC   C3B49223  21.301  14.958  24.502  0.2155  0.1375 -0.1661
 2294DPPC   C4B49224  21.134  15.384  24.606  0.2849  0.1598  0.0973
 2295DPPC   NC349225   0.943  10.805  28.757 -0.1938 -0.1852  0.0939
 2295DPPC   PO449226   0.669  10.548  29.080 -0.0737 -0.2436 -0.0369
 2295DPPC   GL149227   0.258  10.388  29.268 -0.3847  0.1379 -0.1710
 2295DPPC   GL249228   0.048  10.175  28.883 -0.4643 -0.0493  0.1054
 2295DPPC   C1A49229  26.798  10.250  29.218  0.1313  0.1751 -0.0863
 2295DPPC   C2A49230  26.489  10.108  28.955 -0.3451 -0.0126 -0.2041
 2295DPPC   C3A49231  26.054   9.958  28.702  0.1236 -0.0980 -0.2179
 2295DPPC   C4A49232  25.509   9.783  28.652  0.2828  0.0687  0.0486
 2295DPPC   C1B49233  26.810  10.082  28.559 -0.0276  0.1515  0.0664
 2295DPPC   C2B49234  26.432  10.188  28.223 -0.1926  0.2549  0.0561
 2295DPPC   C3B49235  25.995  10.274  28.327 -0.1400  0.0705  0.0608
 2295DPPC   C4B49236  25.801  10.482  28.702  0.2908 -0.0578  0.0424
 2296DPPC   NC349237  22.308  12.553  23.507 -0.1687  0.1394  0.2208
 2296DPPC   PO449238  22.325  12.210  23.242 -0.1129  0.1230 -0.1276
 2296DPPC   GL149239  22.724  12.462  23.226 -0.0523 -0.0343  0.2722
 2296DPPC   GL249240  22.913  12.177  23.291 -0.0029 -0.1056  0.0178
 2296DPPC   C1A49241  23.159  12.593  23.321  0.0286 -0.3660  0.3065
 2296DPPC   C2A49242  23.324  12.897  23.608 -0.7057 -0.1399 -0.3151
 2296DPPC   C3A49243  23.641  13.086  23.971  0.1552 -0.1859 -0.0181
 2296DPPC   C4A49244  23.965  12.955  24.275  0.3962 -0.3314  0.2759
 2296DPPC   C1B49245  23.234  12.332  23.697  0.0439  0.0518 -0.2854
 2296DPPC   C2B49246  23.636  12.462  23.834 -0.0386 -0.2172 -0.1733
 2296DPPC   C3B49247  24.044  12.504  24.043  0.1585 -0.1323  0.2371
 2296DPPC   C4B49248  24.367  12.594  24.277 -0.2606  0.2149 -0.1258
 2297DPPC   NC349249  20.815  13.866  23.822  0.3799 -0.0565 -0.2232
 2297DPPC   PO449250  20.713  13.807  24.205  0.1390 -0.4511  0.1070
 2297DPPC   GL149251  20.679  14.185  24.447  0.1396 -0.0674 -0.0658
 2297DPPC   GL249252  20.623  14.437  24.347  0.0868  0.0364 -0.1291
 2297DPPC   C1A49253  20.826  14.576  24.731  0.0582 -0.5081  0.0177
 2297DPPC   C2A49254  20.621  14.561  25.183  0.1241  0.0096 -0.1113
 2297DPPC   C3A49255  20.231  14.943  25.214  0.1245 -0.2492  0.2699
 2297DPPC   C4A49256  20.274  15.386  25.333 -0.0333 -0.1612  0.0468
 2297DPPC   C1B49257  20.782  14.916  24.384  0.1197  0.0160  0.0085
 2297DPPC   C2B49258  20.676  15.313  24.487  0.0680 -0.2161 -0.0739
 2297DPPC   C3B49259  20.698  15.556  24.805  0.0242  0.1871  0.0751
 2297DPPC   C4B49260  20.748  15.607  25.138  0.2497 -0.1374 -0.2105
 2298DPPC   NC349261  15.110  24.828  24.185  0.2037 -0.0935  0.1362
 2298DPPC   PO449262  14.993  24.720  24.571  0.1775  0.0585  0.0757
 2298DPPC   GL149263  15.114  24.337  24.792 -0.3081 -0.2943 -0.1332
 2298DPPC   GL249264  14.962  24.169  25.046  0.0337 -0.3889  0.1643
 2298DPPC   C1A49265  15.429  24.056  24.890  0.1312 -0.2252  0.1447
 2298DPPC   C2A49266  15.376  23.644  25.010  0.1612 -0.0964  0.1184
 2298DPPC   C3A49267  15.232  23.252  25.363 -0.0577  0.0009  0.0208
 2298DPPC   C4A49268  15.158  23.122  25.739 -0.1341  0.0321  0.1807
 2298DPPC   C1B49269  14.653  23.916  25.272 -0.0718  0.2475 -0.0110
 2298DPPC   C2B49270  14.474  23.898  25.649  0.3150 -0.4124 -0.0366
 2298DPPC   C3B49271  14.380  23.585  25.881  0.0545 -0.0371  0.1801
 2298DPPC   C4B49272  14.046  23.254  25.807 -0.0425 -0.0540 -0.3763
 2299DPPC   NC349273   7.591  15.748  19.487 -0.0574 -0.0628 -0.0452
 2299DPPC   PO449274   7.591  15.346  19.760 -0.1742  0.1102  0.4579
 2299DPPC   GL149275   7.906  15.292  20.107  0.0478  0.0151  0.0891
 2299DPPC   GL249276   8.085  15.435  19.793  0.0487  0.0893 -0.0863
 2299DPPC   C1A49277   8.408  15.290  20.192  0.1342  0.2862  0.0728
 2299DPPC   C2A49278   8.701  15.239  20.357  0.0167  0.0229 -0.1014
 2299DPPC   C3A49279   8.986  15.079  20.665 -0.1061 -0.2530  0.0267
 2299DPPC   C4A49280   9.240  14.863  21.025 -0.0039  0.0625 -0.0356
 2299DPPC   C1B49281   8.367  15.025  19.804  0.0800  0.0540  0.1467
 2299DPPC   C2B49282   8.521  14.692  20.115  0.1452  0.1995  0.2964
 2299DPPC   C3B49283   8.719  14.480  20.513 -0.0295 -0.1857  0.0418
 2299DPPC   C4B49284   8.966  14.461  20.848  0.1698  0.0469  0.2908
 2300DPPC   NC349285  26.119   6.225  24.030  0.0099  0.2040 -0.1824
 2300DPPC   PO449286  25.836   5.974  23.714  0.1214 -0.0301 -0.0062
 2300DPPC   GL149287  25.516   6.355  23.841  0.1610  0.2629  0.2863
 2300DPPC   GL249288  25.115   6.181  23.622  0.0594  0.1973 -0.0780
 2300DPPC   C1A49289  25.233   6.710  23.635 -0.1267 -0.2556 -0.2031
 2300DPPC   C2A49290  25.017   7.151  23.674  0.0765 -0.0150 -0.0031
 2300DPPC   C3A49291  24.650   7.395  23.806  0.0786  0.0656  0.0528
 2300DPPC   C4A49292  24.270   7.331  23.625  0.0691  0.5336 -0.1668
 2300DPPC   C1B49293  24.837   6.371  23.765  0.2025 -0.0318 -0.1551
 2300DPPC   C2B49294  24.471   6.482  24.054  0.0678  0.0249  0.2534
 2300DPPC   C3B49295  24.259   6.652  24.307  0.0389 -0.5258 -0.1246
 2300DPPC   C4B49296  24.043   6.954  24.482  0.2522  0.2728  0.2752
 2301DPPC   NC349297  14.703   0.686  23.970  0.3569  0.0775  0.1250
 2301DPPC   PO449298  14.745   0.848  24.397  0.0116 -0.2493  0.0084
 2301DPPC   GL149299  14.834   1.161  24.646  0.1169 -0.3798 -0.1701
 2301DPPC   GL249300  15.133   1.156  24.460  0.1698  0.1771 -0.4953
 2301DPPC   C1A49301  14.971   1.543  24.729 -0.2228 -0.1220  0.2284
 2301DPPC   C2A49302  15.110   1.805  25.055  0.0362  0.2383 -0.0539
 2301DPPC   C3A49303  15.415   2.119  25.226  0.6434 -0.0570  0.4298
 2301DPPC   C4A49304  15.466   2.508  25.347  0.0888 -0.1296  0.0053
 2301DPPC   C1B49305  15.380   1.210  24.776  0.0194 -0.0890 -0.2709
 2301DPPC   C2B49306  15.491   1.457  25.116 -0.2350  0.0003  0.1543
 2301DPPC   C3B49307  15.411   1.627  25.552 -0.0410  0.2638  0.1317
 2301DPPC   C4B49308  15.339   2.160  25.715  0.1556 -0.1619  0.0837
 2302DPPC   NC349309  22.316   9.923  42.136  0.0155 -0.0114 -0.4262
 2302DPPC   PO449310  22.076   9.954  42.492 -0.0888  0.1014 -0.1155
 2302DPPC   GL149311  21.721  10.001  42.196  0.0046  0.3286 -0.4211
 2302DPPC   GL249312  21.839   9.923  41.908  0.0282 -0.2898  0.1702
 2302DPPC   C1A49313  21.197  10.094  42.136  0.1876 -0.0109  0.1293
 2302DPPC   C2A49314  21.049  10.105  41.701  0.0338  0.1192  0.1253
 2302DPPC   C3A49315  21.095  10.051  41.283 -0.1911 -0.2989  0.1154
 2302DPPC   C4A49316  20.779   9.959  40.906 -0.0552 -0.1233 -0.0766
 2302DPPC   C1B49317  21.496  10.229  41.795  0.1816  0.0588 -0.0060
 2302DPPC   C2B49318  21.453  10.420  41.440  0.1499  0.2228  0.2906
 2302DPPC   C3B49319  21.395  10.606  41.005 -0.0939 -0.1414 -0.0208
 2302DPPC   C4B49320  21.041  10.429  40.704  0.3301  0.1580 -0.1257
 2303DPPC   NC349321  15.178  15.763  26.268 -0.0740 -0.2350  0.2130
 2303DPPC   PO449322  15.325  15.814  26.665 -0.0321 -0.0100  0.0144
 2303DPPC   GL149323  15.515  15.410  26.348  0.1227  0.1129 -0.3092
 2303DPPC   GL249324  15.759  15.541  26.268  0.2246  0.0702 -0.0887
 2303DPPC   C1A49325  15.809  15.030  26.220  0.0744 -0.3035  0.0443
 2303DPPC   C2A49326  16.012  14.843  25.915  0.0645 -0.0429 -0.0925
 2303DPPC   C3A49327  16.441  14.530  25.800  0.1686  0.0371 -0.0802
 2303DPPC   C4A49328  16.833  14.490  25.649  0.0284 -0.0948 -0.3637
 2303DPPC   C1B49329  15.969  15.406  25.961 -0.0397  0.0150  0.5198
 2303DPPC   C2B49330  16.249  15.289  25.507  0.0611  0.1496  0.1783
 2303DPPC   C3B49331  16.603  15.326  25.272 -0.0198  0.0034  0.1841
 2303DPPC   C4B49332  16.978  15.518  25.330  0.1747  0.1168  0.2028
 2304DPPC   NC349333  20.037  23.227  26.279  0.3186 -0.1115  0.2894
 2304DPPC   PO449334  19.827  23.355  26.622  0.1977 -0.0375 -0.3533
 2304DPPC   GL149335  19.695  22.974  26.693  0.3290  0.0083  0.0302
 2304DPPC   GL249336  19.813  22.805  27.014  0.0968  0.1501 -0.0696
 2304DPPC   C1A49337  19.509  22.653  26.704  0.1513  0.0660  0.0578
 2304DPPC   C2A49338  19.203  22.437  26.880  0.2569 -0.0126 -0.0629
 2304DPPC   C3A49339  18.921  22.129  26.870 -0.0412  0.5896  0.0370
 2304DPPC   C4A49340  18.768  21.764  27.131  0.2088 -0.2828 -0.0276
 2304DPPC   C1B49341  19.694  22.322  27.048  0.2250 -0.0914  0.1500
 2304DPPC   C2B49342  19.438  21.909  27.078 -0.0506  0.1099 -0.1550
 2304DPPC   C3B49343  19.264  21.642  26.862 -0.1116 -0.1664 -0.0979
 2304DPPC   C4B49344  18.868  21.709  26.628  0.0883  0.1587  0.1330
 2305DPPC   NC349345  18.742   8.650  20.284  0.3512 -0.0626 -0.2822
 2305DPPC   PO449346  18.841   8.261  20.349  0.1317  0.3581  0.0316
 2305DPPC   GL149347  18.814   8.166  20.008 -0.2795 -0.0858  0.0835
 2305DPPC   GL249348  18.878   8.435  19.848  0.1417 -0.1209 -0.1449
 2305DPPC   C1A49349  18.818   7.818  19.771  0.0003 -0.0279 -0.0246
 2305DPPC   C2A49350  18.729   7.448  19.867 -0.1284 -0.0780  0.1054
 2305DPPC   C3A49351  18.901   7.053  19.735  0.0099  0.4292  0.1956
 2305DPPC   C4A49352  18.846   6.644  19.532  0.2551  0.0198  0.0538
 2305DPPC   C1B49353  18.991   8.180  19.536  0.2581 -0.1973  0.2686
 2305DPPC   C2B49354  19.008   7.932  19.315  0.4618  0.2700 -0.1840
 2305DPPC   C3B49355  18.867   7.522  19.143 -0.1731  0.2958  0.0477
 2305DPPC   C4B49356  18.695   7.112  19.295  0.0522 -0.2966 -0.0868
 2306DPPC   NC349357  13.198  25.649  28.783 -0.1008  0.0095  0.1122
 2306DPPC   PO449358  13.353  25.478  28.486 -0.0142  0.0086 -0.1022
 2306DPPC   GL149359  13.279  25.018  28.294 -0.1229  0.0213  0.2734
 2306DPPC   GL249360  13.209  24.796  28.027 -0.1658 -0.0070  0.0861
 2306DPPC   C1A49361  13.458  24.589  28.451  0.1979 -0.1626 -0.0911
 2306DPPC   C2A49362  13.700  24.331  28.288 -0.0210 -0.0111  0.2311
 2306DPPC   C3A49363  13.960  24.017  28.196 -0.1755  0.0547 -0.1621
 2306DPPC   C4A49364  14.284  23.682  28.100  0.1826 -0.0022  0.2321
 2306DPPC   C1B49365  13.226  24.295  28.072  0.2094  0.2109  0.0487
 2306DPPC   C2B49366  13.395  23.890  28.105 -0.2193  0.0067 -0.0402
 2306DPPC   C3B49367  13.301  23.504  27.922 -0.0217 -0.0609 -0.1824
 2306DPPC   C4B49368  13.500  23.034  28.063 -0.0763 -0.0021  0.0848
 2307DPPC   NC349369  26.296  12.607  38.363 -0.2987  0.2926  0.0851
 2307DPPC   PO449370  25.893  12.380  38.358  0.2554  0.2100 -0.1792
 2307DPPC   GL149371  25.511  12.388  38.294 -0.2315 -0.1767  0.1037
 2307DPPC   GL249372  25.450  12.062  38.335  0.3080 -0.3344 -0.1964
 2307DPPC   C1A49373  25.156  12.488  38.089  0.2241  0.1413  0.2764
 2307DPPC   C2A49374  24.695  12.521  38.181  0.5447  0.1009 -0.3551
 2307DPPC   C3A49375  24.227  12.375  38.021 -0.2395  0.0583  0.0669
 2307DPPC   C4A49376  23.746  12.471  37.859  0.1777  0.0721 -0.1047
 2307DPPC   C1B49377  25.192  11.997  38.055  0.1476 -0.0686 -0.1694
 2307DPPC   C2B49378  24.937  11.788  37.727  0.2651 -0.0329 -0.0780
 2307DPPC   C3B49379  24.768  11.809  37.318 -0.3333  0.0673  0.1025
 2307DPPC   C4B49380  24.785  11.474  37.042 -0.0804 -0.1102 -0.4486
 2308DPPC   NC349381  17.598  15.198  19.562 -0.2347 -0.0315  0.1012
 2308DPPC   PO449382  17.599  15.346  19.175 -0.0208  0.0311  0.1221
 2308DPPC   GL149383  17.864  15.476  18.967 -0.1469 -0.1608 -0.2695
 2308DPPC   GL249384  18.256  15.345  18.901 -0.0092  0.1570 -0.1322
 2308DPPC   C1A49385  17.924  15.833  18.809  0.0287 -0.5641 -0.2897
 2308DPPC   C2A49386  18.035  16.141  18.402  0.1752  0.1788 -0.1311
 2308DPPC   C3A49387  17.794  16.412  18.285 -0.1295  0.0470 -0.1809
 2308DPPC   C4A49388  17.685  16.533  17.779 -0.0935 -0.1296 -0.0050
 2308DPPC   C1B49389  18.059  15.463  18.544 -0.1356  0.5639  0.2418
 2308DPPC   C2B49390  18.069  15.672  18.171 -0.0149 -0.2807  0.0792
 2308DPPC   C3B49391  18.120  15.610  17.770 -0.0379 -0.1072  0.1008
 2308DPPC   C4B49392  17.895  15.461  17.487  0.1095  0.1318  0.1014
 2309DPPC   NC349393  11.411  11.527  17.112 -0.1473  0.0632 -0.1578
 2309DPPC   PO449394  11.703  11.563  16.837 -0.1421 -0.0432 -0.2178
 2309DPPC   GL149395  11.913  11.945  17.037  0.2108 -0.1001 -0.1107
 2309DPPC   GL249396  12.147  11.705  17.159 -0.0478  0.0052  0.3073
 2309DPPC   C1A49397  12.185  12.217  17.183 -0.5628  0.1767 -0.0148
 2309DPPC   C2A49398  12.576  12.406  17.321  0.1907  0.1511  0.1372
 2309DPPC   C3A49399  12.949  12.485  17.488 -0.0507  0.1461 -0.6222
 2309DPPC   C4A49400  13.332  12.622  17.482 -0.0326 -0.0376 -0.0962
 2309DPPC   C1B49401  12.461  11.453  17.201 -0.0946 -0.1448 -0.1840
 2309DPPC   C2B49402  12.680  11.051  17.307  0.3031 -0.2205  0.0939
 2309DPPC   C3B49403  12.940  10.776  17.482 -0.0231  0.0019  0.2582
 2309DPPC   C4B49404  13.320  10.522  17.655  0.2601 -0.0506  0.1236
 2310DPPC   NC349405  10.798  12.777  16.889 -0.1522  0.0271  0.2336
 2310DPPC   PO449406  10.583  12.522  17.231 -0.2428  0.2013 -0.0344
 2310DPPC   GL149407  10.791  12.419  17.676 -0.0378  0.0510  0.3647
 2310DPPC   GL249408  10.977  12.259  17.595 -0.3198  0.3706 -0.1780
 2310DPPC   C1A49409  10.727  12.102  18.029  0.2143  0.0560 -0.2664
 2310DPPC   C2A49410  10.923  12.240  18.435 -0.0706 -0.1276 -0.1810
 2310DPPC   C3A49411  11.312  12.258  18.563  0.1525  0.0975 -0.0818
 2310DPPC   C4A49412  11.462  12.598  18.738  0.1042  0.0644  0.1848
 2310DPPC   C1B49413  11.183  12.639  17.826 -0.0497 -0.3390 -0.1409
 2310DPPC   C2B49414  11.368  13.064  18.028 -0.1030  0.0286  0.1552
 2310DPPC   C3B49415  11.635  13.223  18.213  0.0307  0.3348 -0.2316
 2310DPPC   C4B49416  11.854  13.348  17.936 -0.2857  0.2224 -0.1044
 2311DPPC   NC349417  16.250  21.528  18.937 -0.3459  0.3982 -0.1954
 2311DPPC   PO449418  16.642  21.631  18.852 -0.2226  0.2244  0.0271
 2311DPPC   GL149419  16.635  21.274  19.146 -0.1987  0.1715 -0.0767
 2311DPPC   GL249420  16.913  21.270  19.325  0.1171 -0.2666  0.3916
 2311DPPC   C1A49421  16.524  20.834  19.444 -0.0020 -0.2241  0.1293
 2311DPPC   C2A49422  16.457  20.419  19.716 -0.2443 -0.4702  0.1155
 2311DPPC   C3A49423  16.653  20.054  19.755 -0.0907 -0.0268 -0.1036
 2311DPPC   C4A49424  16.923  19.789  20.027 -0.1355 -0.0808 -0.0596
 2311DPPC   C1B49425  16.487  21.322  19.609 -0.0743  0.0328 -0.1640
 2311DPPC   C2B49426  16.065  21.147  19.630 -0.0319 -0.4389 -0.0993
 2311DPPC   C3B49427  16.007  20.661  19.733  0.0101  0.1664  0.2473
 2311DPPC   C4B49428  16.045  20.233  19.786  0.2296 -0.1313 -0.1401
 2312DPPC   NC349429  14.748   2.032  22.637 -0.2795 -0.0672 -0.1033
 2312DPPC   PO449430  14.610   2.044  22.240  0.1069 -0.0114  0.2671
 2312DPPC   GL149431  14.628   2.449  22.244 -0.4000 -0.0103  0.1334
 2312DPPC   GL249432  14.676   2.497  22.542  0.2967 -0.1524 -0.2481
 2312DPPC   C1A49433  14.848   2.886  22.313 -0.2915 -0.0790  0.1181
 2312DPPC   C2A49434  14.816   3.297  22.495  0.0600 -0.2157  0.1929
 2312DPPC   C3A49435  14.878   3.587  22.843 -0.1169  0.2158 -0.0154
 2312DPPC   C4A49436  14.511   3.778  22.933 -0.0168  0.3923 -0.1834
 2312DPPC   C1B49437  14.884   2.685  22.995  0.0222  0.1320 -0.1447
 2312DPPC   C2B49438  15.125   2.995  23.269 -0.3074  0.2057  0.1715
 2312DPPC   C3B49439  15.256   3.462  23.166  0.0856  0.1633  0.0243
 2312DPPC   C4B49440  15.219   3.994  23.225  0.0216 -0.1130 -0.1593
 2313DPPC   NC349441  19.053  17.668  26.670  0.0273  0.1820  0.1303
 2313DPPC   PO449442  19.250  17.923  26.497 -0.0605 -0.5863 -0.1378
 2313DPPC   GL149443  19.479  17.797  26.203  0.1120  0.2606  0.1510
 2313DPPC   GL249444  19.719  18.102  26.255  0.0489 -0.0262  0.3484
 2313DPPC   C1A49445  19.687  17.478  25.918 -0.4552 -0.2088 -0.2019
 2313DPPC   C2A49446  20.113  17.446  25.672  0.2999  0.0883 -0.0473
 2313DPPC   C3A49447  20.261  17.342  25.256 -0.0043  0.0217  0.0456
 2313DPPC   C4A49448  20.611  17.106  25.121 -0.0897  0.2314  0.0950
 2313DPPC   C1B49449  19.865  18.478  25.896  0.0032 -0.1655 -0.2476
 2313DPPC   C2B49450  20.175  18.708  25.517 -0.0048  0.1450 -0.2334
 2313DPPC   C3B49451  20.620  18.982  25.483 -0.0398 -0.0629  0.3221
 2313DPPC   C4B49452  20.931  19.325  25.534  0.0226  0.3092  0.1201
 2314DPPC   NC349453  17.647  19.080  25.773 -0.4528 -0.1312 -0.2398
 2314DPPC   PO449454  17.903  19.309  25.430  0.4017  0.1151  0.0484
 2314DPPC   GL149455  18.182  19.652  25.492  0.1105  0.0755 -0.0940
 2314DPPC   GL249456  18.329  19.702  25.176  0.2181 -0.1419 -0.1919
 2314DPPC   C1A49457  18.585  19.815  25.633  0.1436 -0.4344 -0.1487
 2314DPPC   C2A49458  18.927  19.846  25.813 -0.1288 -0.3192 -0.1520
 2314DPPC   C3A49459  19.184  19.943  26.165 -0.1821  0.4009  0.2889
 2314DPPC   C4A49460  19.321  20.274  26.428 -0.2120 -0.3656 -0.1392
 2314DPPC   C1B49461  18.593  19.757  24.820 -0.3305 -0.1054  0.4337
 2314DPPC   C2B49462  18.864  20.018  24.867  0.2240  0.0342 -0.2181
 2314DPPC   C3B49463  18.798  20.423  24.950  0.0847  0.0245  0.1184
 2314DPPC   C4B49464  18.677  20.980  24.868 -0.3264  0.0677 -0.1698
 2315DPPC   NC349465   6.714   5.417  36.051 -0.0079 -0.1233  0.0893
 2315DPPC   PO449466   6.768   5.787  35.731 -0.1179 -0.1579 -0.4513
 2315DPPC   GL149467   6.903   6.119  35.631 -0.4475  0.2082 -0.0232
 2315DPPC   GL249468   6.855   6.312  35.392 -0.0939  0.1602 -0.3140
 2315DPPC   C1A49469   7.369   6.237  35.555 -0.2991 -0.4181 -0.0636
 2315DPPC   C2A49470   7.486   6.603  35.592 -0.5626 -0.3668 -0.0494
 2315DPPC   C3A49471   7.885   6.871  35.468 -0.1841  0.0302 -0.0556
 2315DPPC   C4A49472   8.248   7.114  35.243 -0.0332 -0.1750 -0.3181
 2315DPPC   C1B49473   7.055   6.425  35.109  0.2295 -0.0259  0.0761
 2315DPPC   C2B49474   7.374   6.348  34.830 -0.1498  0.2833 -0.1581
 2315DPPC   C3B49475   7.722   6.414  34.450  0.0863  0.2792  0.0452
 2315DPPC   C4B49476   7.860   6.574  34.055 -0.3264  0.1590  0.0758
 2316DPPC   NC349477  20.781  22.909  31.275 -0.0611 -0.1382 -0.1492
 2316DPPC   PO449478  20.990  22.677  31.145  0.0537 -0.0967 -0.2221
 2316DPPC   GL149479  20.704  22.375  31.257 -0.0360 -0.3142  0.1386
 2316DPPC   GL249480  20.653  22.444  31.662 -0.0911 -0.0328  0.4465
 2316DPPC   C1A49481  20.556  22.060  31.248 -0.0088  0.3797 -0.1860
 2316DPPC   C2A49482  20.528  21.701  31.173  0.0547  0.1973  0.4183
 2316DPPC   C3A49483  20.350  21.341  31.483 -0.1097 -0.4119 -0.2520
 2316DPPC   C4A49484  20.309  20.857  31.558 -0.1027  0.0290  0.3673
 2316DPPC   C1B49485  20.258  22.303  31.560  0.0542  0.2934  0.1545
 2316DPPC   C2B49486  20.163  21.877  31.542 -0.0207  0.4385  0.0231
 2316DPPC   C3B49487  19.972  21.545  31.235 -0.3067 -0.2923 -0.1550
 2316DPPC   C4B49488  20.039  21.110  31.145 -0.1646  0.1533  0.2646
 2317DPPC   NC349489  20.238  13.657  24.254 -0.0777 -0.1733 -0.1764
 2317DPPC   PO449490  19.953  13.881  24.106 -0.0088  0.1396  0.0532
 2317DPPC   GL149491  20.140  14.146  24.443 -0.0576 -0.0880  0.0748
 2317DPPC   GL249492  19.783  14.206  24.527 -0.2045 -0.2350  0.1241
 2317DPPC   C1A49493  20.364  14.288  24.791  0.1563 -0.0366 -0.1598
 2317DPPC   C2A49494  20.160  14.354  25.197 -0.3083  0.3406 -0.1486
 2317DPPC   C3A49495  20.257  14.386  25.606 -0.1858  0.1214  0.1951
 2317DPPC   C4A49496  20.143  14.564  25.900  0.1803 -0.1386 -0.2308
 2317DPPC   C1B49497  19.998  14.666  24.494 -0.0212  0.4249 -0.2484
 2317DPPC   C2B49498  20.245  14.829  24.719  0.1062 -0.0381  0.0335
 2317DPPC   C3B49499  20.272  15.307  24.817 -0.2029  0.1914  0.0432
 2317DPPC   C4B49500  20.284  15.748  24.983  0.0158  0.0256  0.1677
 2318DPPC   NC349501  24.494  19.030  28.608 -0.3916  0.1550  0.0098
 2318DPPC   PO449502  24.922  18.945  28.587 -0.2169  0.0865  0.0532
 2318DPPC   GL149503  24.611  18.514  28.687  0.0360  0.0404 -0.0078
 2318DPPC   GL249504  24.474  18.487  28.506 -0.3156  0.0961  0.0797
 2318DPPC   C1A49505  24.129  18.298  28.737  0.2027  0.0732  0.1440
 2318DPPC   C2A49506  23.778  18.224  28.986 -0.2714 -0.0789 -0.1027
 2318DPPC   C3A49507  23.496  17.972  29.054 -0.1558  0.0587  0.1436
 2318DPPC   C4A49508  23.156  17.804  28.987  0.1300 -0.0292  0.5214
 2318DPPC   C1B49509  24.359  18.060  28.341  0.0798  0.0088 -0.4021
 2318DPPC   C2B49510  24.051  17.750  28.392  0.3687 -0.3846  0.1095
 2318DPPC   C3B49511  23.966  17.644  28.869 -0.1218  0.0411  0.0831
 2318DPPC   C4B49512  23.889  17.774  29.265  0.0082 -0.1791  0.1994
 2319DPPC   NC349513  25.011  13.302  19.031  0.1082  0.1174 -0.0219
 2319DPPC   PO449514  25.148  12.855  18.993  0.1266 -0.1430 -0.3071
 2319DPPC   GL149515  24.875  12.953  19.393 -0.2757  0.0338 -0.2927
 2319DPPC   GL249516  24.877  13.200  19.602  0.0754  0.2448  0.1232
 2319DPPC   C1A49517  24.491  12.960  19.364 -0.1255 -0.2217  0.1669
 2319DPPC   C2A49518  24.089  13.058  19.160  0.0285 -0.2180  0.0054
 2319DPPC   C3A49519  23.749  13.014  18.833 -0.0598  0.3278  0.0529
 2319DPPC   C4A49520  23.272  12.984  18.843 -0.0372  0.0139 -0.0417
 2319DPPC   C1B49521  24.444  13.317  19.786 -0.0194 -0.2623  0.1929
 2319DPPC   C2B49522  24.153  13.533  19.902  0.4331 -0.1700 -0.1084
 2319DPPC   C3B49523  24.059  13.969  20.084 -0.1866  0.0450 -0.2608
 2319DPPC   C4B49524  24.188  14.372  19.998  0.1549  0.4085 -0.0139
 2320DPPC   NC349525  10.543   2.818  36.870  0.3415  0.1537 -0.3012
 2320DPPC   PO449526  10.439   3.219  36.825 -0.1587 -0.0339  0.1816
 2320DPPC   GL149527  10.867   3.282  36.538 -0.1497 -0.1354  0.0665
 2320DPPC   GL249528  10.789   3.486  36.210  0.2043 -0.0441 -0.1483
 2320DPPC   C1A49529  11.321   3.234  36.364  0.2006  0.2089  0.1118
 2320DPPC   C2A49530  11.660   3.429  36.091  0.1471  0.0427  0.1423
 2320DPPC   C3A49531  11.707   3.675  35.763 -0.1852  0.3292 -0.2275
 2320DPPC   C4A49532  12.039   3.951  35.408 -0.1484  0.1571  0.0940
 2320DPPC   C1B49533  11.084   3.637  35.919 -0.1422  0.0573  0.1461
 2320DPPC   C2B49534  11.022   3.868  35.502 -0.1901  0.1129 -0.1179
 2320DPPC   C3B49535  11.117   4.133  35.222 -0.0031  0.2156 -0.4034
 2320DPPC   C4B49536  11.029   4.554  34.924  0.2492  0.0882 -0.1443
 2321DPPC   NC349537  21.404  10.554  20.308  0.1080  0.1406 -0.1037
 2321DPPC   PO449538  21.627  10.485  20.760 -0.2429 -0.1856 -0.0244
 2321DPPC   GL149539  21.898  10.519  20.301 -0.0187 -0.2268  0.0251
 2321DPPC   GL249540  21.872  10.221  20.340 -0.1136 -0.3481  0.0066
 2321DPPC   C1A49541  22.032  10.415  19.782  0.1395 -0.0042  0.0696
 2321DPPC   C2A49542  22.082  10.091  19.507  0.4477  0.0376  0.2458
 2321DPPC   C3A49543  22.309  10.193  19.073  0.0226 -0.1176  0.3105
 2321DPPC   C4A49544  22.408  10.608  18.870  0.0704 -0.0117  0.5604
 2321DPPC   C1B49545  22.365  10.140  20.167  0.1088 -0.0870  0.4469
 2321DPPC   C2B49546  22.831  10.002  20.145  0.0583 -0.0118  0.2837
 2321DPPC   C3B49547  23.305  10.244  20.170 -0.0411  0.1673 -0.0711
 2321DPPC   C4B49548  23.789  10.249  20.333 -0.2907 -0.6461  0.1271
 2322DPPC   NC349549  19.055  24.915  29.110  0.4182 -0.0935  0.4002
 2322DPPC   PO449550  18.813  24.514  29.041  0.0998  0.0312 -0.1575
 2322DPPC   GL149551  18.630  24.195  29.264  0.1053  0.2387  0.0482
 2322DPPC   GL249552  18.338  24.216  29.172 -0.4084  0.1871 -0.1152
 2322DPPC   C1A49553  18.566  23.882  29.674  0.2163  0.0681 -0.3757
 2322DPPC   C2A49554  18.392  23.502  29.803  0.0423 -0.1347 -0.0683
 2322DPPC   C3A49555  18.427  23.091  30.013 -0.1677  0.2342 -0.0545
 2322DPPC   C4A49556  18.644  22.784  30.267 -0.1228 -0.0479  0.1312
 2322DPPC   C1B49557  18.516  23.648  28.920 -0.0232 -0.1893 -0.0461
 2322DPPC   C2B49558  18.446  23.178  28.971 -0.0514  0.1613 -0.0478
 2322DPPC   C3B49559  18.272  22.738  29.092 -0.0565  0.0757 -0.0611
 2322DPPC   C4B49560  18.357  22.211  29.204  0.0054  0.0541 -0.1051
 2323DPPC   NC349561   9.887  12.583  42.515 -0.1667 -0.0424  0.5522
 2323DPPC   PO449562  10.391  12.643  42.571  0.2443 -0.3368 -0.5791
 2323DPPC   GL149563  10.653  12.893  42.238  0.0276  0.0018  0.2336
 2323DPPC   GL249564  10.565  13.219  42.286  0.1686 -0.1104  0.0197
 2323DPPC   C1A49565  10.761  12.798  41.774  0.1846 -0.3527  0.1445
 2323DPPC   C2A49566  10.861  12.777  41.420  0.0172 -0.0178  0.0336
 2323DPPC   C3A49567  11.062  13.012  41.099 -0.0714  0.2442  0.2676
 2323DPPC   C4A49568  11.196  13.164  40.746  0.1684  0.0443  0.0628
 2323DPPC   C1B49569  10.461  13.181  41.864 -0.0094  0.1058  0.1755
 2323DPPC   C2B49570  10.655  13.222  41.511  0.1001 -0.2373  0.1787
 2323DPPC   C3B49571  10.971  13.322  41.428 -0.1003 -0.0124 -0.3371
 2323DPPC   C4B49572  11.223  13.556  41.165 -0.0680  0.0703 -0.1974
 2324DPPC   NC349573  14.902  10.028  26.662  0.0145 -0.2720  0.0877
 2324DPPC   PO449574  15.069  10.475  26.807 -0.0078 -0.0825  0.2208
 2324DPPC   GL149575  15.332  10.823  26.801 -0.0449 -0.4103 -0.1815
 2324DPPC   GL249576  15.396  10.862  27.117 -0.0587 -0.0428  0.0076
 2324DPPC   C1A49577  15.595  10.972  26.550  0.0707  0.4418  0.1693
 2324DPPC   C2A49578  16.032  11.154  26.360  0.1345 -0.0895  0.0772
 2324DPPC   C3A49579  16.409  11.416  26.124 -0.0634  0.0213 -0.0299
 2324DPPC   C4A49580  16.618  11.735  26.106 -0.1334 -0.2138 -0.2810
 2324DPPC   C1B49581  15.456  11.272  27.023 -0.2215 -0.0437  0.4449
 2324DPPC   C2B49582  15.663  11.536  26.703  0.0456  0.0669 -0.0090
 2324DPPC   C3B49583  15.824  11.838  26.452  0.1215 -0.2573 -0.1937
 2324DPPC   C4B49584  16.032  11.769  26.105 -0.1273  0.0148  0.0975
 2325DPPC   NC349585  13.607  14.779  25.252  0.3109 -0.0019 -0.0747
 2325DPPC   PO449586  13.463  14.425  25.540 -0.0291 -0.3575  0.1302
 2325DPPC   GL149587  13.740  14.145  25.535 -0.5764  0.0737  0.0126
 2325DPPC   GL249588  13.752  13.978  25.280  0.0278 -0.2421  0.3245
 2325DPPC   C1A49589  14.135  14.160  25.624  0.0293  0.0308  0.1714
 2325DPPC   C2A49590  14.369  13.760  25.522  0.1638 -0.1290 -0.0294
 2325DPPC   C3A49591  14.614  13.605  25.180 -0.0395 -0.3692 -0.3300
 2325DPPC   C4A49592  14.862  13.295  25.072 -0.1803  0.0566  0.0846
 2325DPPC   C1B49593  13.835  13.652  25.469 -0.1297  0.2581  0.1894
 2325DPPC   C2B49594  14.044  13.330  25.384 -0.2696 -0.1440 -0.0110
 2325DPPC   C3B49595  14.228  13.220  25.046 -0.2139  0.1024 -0.0086
 2325DPPC   C4B49596  14.459  13.335  24.641 -0.3633  0.1049  0.2299
 2326DPPC   NC349597  24.788  12.469  18.222 -0.0817  0.2092 -0.4162
 2326DPPC   PO449598  24.981  12.150  18.393  0.2033  0.1373 -0.1057
 2326DPPC   GL149599  24.658  12.302  18.732  0.4283  0.2224 -0.0484
 2326DPPC   GL249600  24.660  12.626  19.016  0.0834 -0.3969  0.2445
 2326DPPC   C1A49601  24.454  12.109  18.918 -0.2003  0.1822 -0.0776
 2326DPPC   C2A49602  24.122  11.866  18.969  0.1191  0.0945  0.2013
 2326DPPC   C3A49603  23.614  11.937  18.910  0.1331  0.2771  0.3437
 2326DPPC   C4A49604  23.152  12.087  18.984  0.1487 -0.0682  0.1348
 2326DPPC   C1B49605  24.286  12.504  19.265  0.0005 -0.1026  0.1828
 2326DPPC   C2B49606  24.032  12.614  19.421  0.1127  0.2031  0.1046
 2326DPPC   C3B49607  23.603  12.851  19.257  0.1259 -0.0167  0.0100
 2326DPPC   C4B49608  23.244  12.639  19.292  0.3111  0.1128 -0.2358
 2327DPPC   NC349609  20.420  11.068  19.448  0.2238  0.0739 -0.1874
 2327DPPC   PO449610  20.733  10.859  19.290  0.1546  0.2290  0.1145
 2327DPPC   GL149611  20.827  10.691  18.921  0.1260  0.1122  0.1018
 2327DPPC   GL249612  20.606  10.458  18.716 -0.0613  0.0035 -0.1204
 2327DPPC   C1A49613  21.098  10.499  18.642 -0.1523  0.0370 -0.1093
 2327DPPC   C2A49614  21.358  10.511  18.316  0.1443 -0.0881 -0.2437
 2327DPPC   C3A49615  21.429  10.415  17.953 -0.0326 -0.0436  0.0814
 2327DPPC   C4A49616  21.523  10.075  17.748 -0.0118 -0.2809 -0.4205
 2327DPPC   C1B49617  20.431  10.033  18.633 -0.0492 -0.2578 -0.1976
 2327DPPC   C2B49618  20.533   9.704  18.553 -0.1014 -0.1087 -0.0551
 2327DPPC   C3B49619  20.779   9.440  18.308  0.0365 -0.0991 -0.0470
 2327DPPC   C4B49620  20.853   9.305  17.873  0.0517  0.1559  0.2068
 2328DPPC   NC349621   7.640  18.971  38.751  0.0249  0.0563 -0.5279
 2328DPPC   PO449622   7.287  18.820  38.430 -0.3207 -0.0543 -0.0166
 2328DPPC   GL149623   7.784  18.802  38.222 -0.0387  0.0713 -0.2339
 2328DPPC   GL249624   7.914  18.848  37.938 -0.0852  0.0440  0.3829
 2328DPPC   C1A49625   8.053  18.342  38.192 -0.1310 -0.0290  0.0279
 2328DPPC   C2A49626   8.218  18.135  37.901 -0.0789  0.2182  0.1087
 2328DPPC   C3A49627   8.118  17.735  37.776 -0.2784  0.1316  0.4907
 2328DPPC   C4A49628   8.169  17.347  37.547 -0.1141  0.0700 -0.1109
 2328DPPC   C1B49629   8.200  18.578  37.733  0.0508 -0.1531 -0.2322
 2328DPPC   C2B49630   8.452  18.381  37.398 -0.0480  0.0451  0.2804
 2328DPPC   C3B49631   8.839  18.237  37.168 -0.0012  0.2200 -0.1829
 2328DPPC   C4B49632   9.190  18.146  37.030  0.0252 -0.3290  0.2098
 2329DPPC   NC349633  17.098  18.517  21.457 -0.2226  0.2068 -0.1044
 2329DPPC   PO449634  16.760  18.409  21.272 -0.1652 -0.1700  0.2023
 2329DPPC   GL149635  16.831  18.641  20.873 -0.0637  0.0442 -0.1197
 2329DPPC   GL249636  16.803  18.495  20.590 -0.1844  0.0008 -0.1758
 2329DPPC   C1A49637  16.562  19.071  20.624 -0.0150 -0.1404  0.0383
 2329DPPC   C2A49638  16.682  19.373  20.330  0.2085  0.2132 -0.0741
 2329DPPC   C3A49639  16.350  19.186  20.024 -0.1212  0.0726  0.0689
 2329DPPC   C4A49640  16.338  19.074  19.574 -0.3775  0.0714  0.0325
 2329DPPC   C1B49641  16.874  18.880  20.290  0.0740  0.0014 -0.0514
 2329DPPC   C2B49642  16.805  19.080  19.846 -0.0223  0.0211 -0.4518
 2329DPPC   C3B49643  17.117  19.447  19.660 -0.1208  0.2611  0.4660
 2329DPPC   C4B49644  17.313  19.495  19.194 -0.0009  0.1610  0.1075
 2330DPPC   NC349645  18.594  27.037  32.263  0.1052  0.1905 -0.1765
 2330DPPC   PO449646  18.198   0.162  32.237 -0.2447 -0.0321 -0.0520
 2330DPPC   GL149647  18.369   0.633  32.165 -0.2899 -0.0541  0.0608
 2330DPPC   GL249648  18.060   0.779  32.212  0.0669  0.1727 -0.1404
 2330DPPC   C1A49649  18.539   1.026  32.063 -0.1650 -0.0970 -0.0455
 2330DPPC   C2A49650  18.390   1.427  31.942  0.3114  0.0775  0.1207
 2330DPPC   C3A49651  18.155   1.778  31.840 -0.0714  0.0532  0.3433
 2330DPPC   C4A49652  17.714   2.070  31.816  0.0695 -0.1003  0.3017
 2330DPPC   C1B49653  17.949   1.155  32.011  0.2973 -0.3589  0.1865
 2330DPPC   C2B49654  17.718   1.551  31.861  0.0936  0.2310  0.1832
 2330DPPC   C3B49655  17.338   1.665  31.986 -0.1675 -0.1123 -0.0716
 2330DPPC   C4B49656  17.249   2.087  32.023  0.0522  0.1278  0.2383
 2331DPPC   NC349657  16.213  15.402  19.516  0.2046 -0.1098  0.0038
 2331DPPC   PO449658  16.667  15.462  19.388 -0.0482  0.2042 -0.0704
 2331DPPC   GL149659  16.340  15.708  19.126  0.1475 -0.0415  0.4437
 2331DPPC   GL249660  15.935  15.578  19.062 -0.4051 -0.0707 -0.0733
 2331DPPC   C1A49661  16.138  15.762  18.646 -0.4688 -0.5026 -0.1743
 2331DPPC   C2A49662  16.340  15.827  18.263 -0.2042 -0.2438  0.2187
 2331DPPC   C3A49663  16.487  15.933  17.855  0.0776  0.2567  0.0747
 2331DPPC   C4A49664  16.807  16.266  17.782  0.3739 -0.2398  0.1235
 2331DPPC   C1B49665  15.834  15.351  18.678 -0.0012 -0.0987  0.0433
 2331DPPC   C2B49666  16.033  15.411  18.324  0.2133 -0.2130 -0.0252
 2331DPPC   C3B49667  16.088  15.587  17.958  0.2246  0.1684 -0.1228
 2331DPPC   C4B49668  16.003  15.989  17.712 -0.1236 -0.1580  0.1049
 2332DPPC   NC349669  18.282  18.905  23.093  0.0149 -0.0058  0.1493
 2332DPPC   PO449670  18.506  18.676  22.849  0.1352  0.1449  0.1522
 2332DPPC   GL149671  18.963  18.631  22.827 -0.1332  0.1674 -0.0274
 2332DPPC   GL249672  19.017  18.639  23.123 -0.0096  0.2354  0.0592
 2332DPPC   C1A49673  19.374  18.747  22.736 -0.1680  0.0005 -0.1690
 2332DPPC   C2A49674  19.708  18.573  22.975 -0.3119  0.0246 -0.1001
 2332DPPC   C3A49675  20.025  18.240  23.168 -0.0340 -0.1929 -0.0949
 2332DPPC   C4A49676  20.474  18.372  23.220 -0.2654  0.0500  0.3095
 2332DPPC   C1B49677  19.338  18.987  23.216 -0.0754 -0.1873 -0.2414
 2332DPPC   C2B49678  19.740  18.988  23.421 -0.1378  0.0338 -0.0260
 2332DPPC   C3B49679  19.967  19.063  23.767  0.1863  0.0993 -0.0938
 2332DPPC   C4B49680  20.274  19.292  24.023 -0.1795  0.0608  0.0362
 2333DPPC   NC349681  11.784  24.485  33.460 -0.1601 -0.0886 -0.1537
 2333DPPC   PO449682  12.216  24.435  33.420  0.2063  0.0302 -0.4931
 2333DPPC   GL149683  12.312  24.139  33.095  0.3960  0.0148 -0.3080
 2333DPPC   GL249684  12.026  24.006  33.135  0.3882  0.2167  0.0573
 2333DPPC   C1A49685  12.419  23.774  33.048  0.0462  0.1542  0.5743
 2333DPPC   C2A49686  12.527  23.466  32.673  0.1933  0.2836  0.0535
 2333DPPC   C3A49687  12.895  23.205  32.523 -0.2163 -0.2073 -0.4752
 2333DPPC   C4A49688  13.134  23.112  32.138  0.1623  0.4713 -0.2768
 2333DPPC   C1B49689  11.723  23.704  32.944 -0.1619 -0.1435 -0.3819
 2333DPPC   C2B49690  11.613  23.268  32.830  0.0832 -0.1412  0.1533
 2333DPPC   C3B49691  11.783  22.918  32.655 -0.0611  0.3556 -0.0260
 2333DPPC   C4B49692  11.981  22.527  32.563 -0.2962 -0.0835  0.1490
 2334DPPC   NC349693  21.914  10.284  21.139  0.0714  0.0892 -0.1836
 2334DPPC   PO449694  21.771  10.790  21.166  0.3813 -0.1472 -0.0392
 2334DPPC   GL149695  22.097  10.568  20.780  0.1613 -0.0592 -0.0019
 2334DPPC   GL249696  22.182  10.121  20.701  0.2123  0.1789 -0.0783
 2334DPPC   C1A49697  22.501  10.776  20.571 -0.3134 -0.1400  0.0770
 2334DPPC   C2A49698  22.883  10.942  20.507 -0.0988  0.0129 -0.1914
 2334DPPC   C3A49699  22.995  11.262  20.244 -0.0972 -0.0042 -0.3689
 2334DPPC   C4A49700  22.738  11.535  20.020 -0.0640 -0.0298 -0.1082
 2334DPPC   C1B49701  22.579  10.215  20.599 -0.0805 -0.1739 -0.1469
 2334DPPC   C2B49702  22.891  10.452  20.350  0.1054  0.1767 -0.0271
 2334DPPC   C3B49703  23.245  10.752  20.249 -0.1878  0.4516  0.0270
 2334DPPC   C4B49704  23.690  10.754  20.444  0.0876  0.4212  0.2785
 2335DPPC   NC349705  17.581  20.385  18.080  0.0070  0.1150 -0.3435
 2335DPPC   PO449706  17.561  20.326  17.637 -0.0205 -0.1922 -0.1601
 2335DPPC   GL149707  17.444  20.014  17.790  0.1914 -0.0272 -0.2080
 2335DPPC   GL249708  17.331  19.704  17.605  0.0384  0.0238  0.1273
 2335DPPC   C1A49709  17.721  19.654  17.893  0.1315 -0.0550 -0.1428
 2335DPPC   C2A49710  17.570  19.309  18.073  0.2420  0.1342  0.2947
 2335DPPC   C3A49711  17.538  18.899  18.158 -0.1391 -0.1055  0.2896
 2335DPPC   C4A49712  17.390  18.540  18.326  0.1368  0.0200  0.1803
 2335DPPC   C1B49713  17.277  19.264  17.678  0.1704 -0.2866  0.2468
 2335DPPC   C2B49714  17.136  18.967  17.895  0.2991 -0.2564  0.0238
 2335DPPC   C3B49715  16.893  18.984  18.281  0.0729 -0.0678 -0.0143
 2335DPPC   C4B49716  16.786  19.055  18.656  0.2176 -0.2258 -0.1027
 2336DPPC   NC349717   5.435  21.751  32.829  0.2050 -0.1293 -0.0994
 2336DPPC   PO449718   5.927  21.674  32.935 -0.1568  0.0705 -0.0141
 2336DPPC   GL149719   6.237  21.593  32.651 -0.1692  0.2480  0.4899
 2336DPPC   GL249720   6.362  21.383  32.499 -0.0144  0.4140 -0.0566
 2336DPPC   C1A49721   6.799  21.729  32.671  0.0316  0.1372 -0.0061
 2336DPPC   C2A49722   7.242  21.612  32.526 -0.1539  0.1327 -0.0104
 2336DPPC   C3A49723   7.531  21.598  32.120  0.0697  0.1025  0.3268
 2336DPPC   C4A49724   7.831  21.646  31.808  0.2536 -0.0921  0.2537
 2336DPPC   C1B49725   6.331  20.931  32.553 -0.3312 -0.2458  0.1587
 2336DPPC   C2B49726   6.610  20.697  32.701  0.0013 -0.2592  0.1102
 2336DPPC   C3B49727   6.836  20.349  32.900  0.3434 -0.1444  0.2571
 2336DPPC   C4B49728   6.931  20.021  32.798  0.3530 -0.0032 -0.1847
 2337DPPC   NC349729  22.454   9.433  22.349 -0.0750 -0.1013 -0.0189
 2337DPPC   PO449730  22.810   9.447  22.466 -0.2242 -0.0480 -0.2413
 2337DPPC   GL149731  23.161   9.439  22.367 -0.3394  0.1115  0.0967
 2337DPPC   GL249732  23.314   9.521  22.647 -0.3600  0.0110  0.2643
 2337DPPC   C1A49733  23.260   9.128  22.073 -0.0007  0.0108 -0.0618
 2337DPPC   C2A49734  23.448   8.785  22.100  0.2931  0.1859  0.0784
 2337DPPC   C3A49735  23.630   8.426  22.224 -0.0644 -0.0048 -0.1863
 2337DPPC   C4A49736  23.663   7.936  22.027 -0.0736 -0.2367 -0.1807
 2337DPPC   C1B49737  23.668   9.674  22.346  0.2155  0.0126  0.0359
 2337DPPC   C2B49738  24.095   9.512  22.371 -0.0565  0.3047 -0.0940
 2337DPPC   C3B49739  24.352   9.192  22.380  0.0249  0.3989  0.0446
 2337DPPC   C4B49740  24.555   8.814  22.584 -0.4845  0.1108 -0.1605
 2338DPPC   NC349741  21.654  17.928  40.542 -0.2195 -0.0410 -0.1801
 2338DPPC   PO449742  21.786  17.886  40.067 -0.2582  0.0778 -0.3865
 2338DPPC   GL149743  21.555  17.775  39.619  0.2777 -0.0842  0.1135
 2338DPPC   GL249744  21.267  17.983  39.646  0.1186  0.2138  0.0310
 2338DPPC   C1A49745  21.409  17.528  39.231  0.0739  0.0849 -0.1584
 2338DPPC   C2A49746  21.125  17.276  38.977 -0.1200 -0.0753 -0.1925
 2338DPPC   C3A49747  21.060  16.836  39.053 -0.2281 -0.0620  0.1466
 2338DPPC   C4A49748  20.833  16.523  38.860  0.1086 -0.1277  0.3309
 2338DPPC   C1B49749  21.098  17.636  39.663 -0.0773  0.2278  0.1033
 2338DPPC   C2B49750  20.679  17.542  39.646  0.1508  0.1045 -0.0937
 2338DPPC   C3B49751  20.309  17.434  39.587 -0.2583 -0.0315  0.1145
 2338DPPC   C4B49752  19.958  17.099  39.668 -0.1104 -0.2354  0.3833
 2339DPPC   NC349753  11.856   8.558  17.491  0.0108  0.0212  0.1277
 2339DPPC   PO449754  11.441   8.598  17.712 -0.0379 -0.2870  0.0886
 2339DPPC   GL149755  11.722   8.660  18.043  0.0505 -0.2877  0.0400
 2339DPPC   GL249756  11.988   8.547  18.057 -0.0144 -0.1956  0.5861
 2339DPPC   C1A49757  11.926   8.879  18.426  0.0841  0.1870 -0.1859
 2339DPPC   C2A49758  12.279   8.574  18.678 -0.3115 -0.0679  0.0750
 2339DPPC   C3A49759  12.697   8.752  18.831  0.0153 -0.1711 -0.1765
 2339DPPC   C4A49760  13.139   8.857  18.940 -0.1768  0.0196  0.0310
 2339DPPC   C1B49761  11.932   8.289  18.389  0.0791  0.2490  0.0881
 2339DPPC   C2B49762  11.851   8.328  18.857  0.2055  0.0510 -0.2511
 2339DPPC   C3B49763  12.029   8.418  19.285 -0.1693  0.0692 -0.2454
 2339DPPC   C4B49764  12.139   8.624  19.644  0.1033  0.1227  0.2897
 2340DPPC   NC349765   8.457  12.624  19.039  0.1462  0.3240 -0.1335
 2340DPPC   PO449766   8.227  13.022  19.311 -0.1596 -0.1663  0.2023
 2340DPPC   GL149767   8.201  13.035  19.734 -0.0247 -0.0924  0.0855
 2340DPPC   GL249768   8.078  12.717  19.759 -0.4085 -0.0293  0.0037
 2340DPPC   C1A49769   8.305  13.037  20.172 -0.0627  0.4008 -0.0883
 2340DPPC   C2A49770   8.736  13.009  20.484 -0.2173 -0.2961  0.1251
 2340DPPC   C3A49771   8.774  12.992  21.063  0.0240 -0.1469  0.1687
 2340DPPC   C4A49772   8.865  12.943  21.458  0.0140 -0.1279  0.0916
 2340DPPC   C1B49773   8.461  12.663  19.884 -0.2920  0.5215  0.0075
 2340DPPC   C2B49774   8.558  12.514  20.377 -0.0584 -0.0578  0.0502
 2340DPPC   C3B49775   8.834  12.535  20.767  0.3170  0.0429  0.0159
 2340DPPC   C4B49776   9.034  12.446  21.189  0.0434 -0.1688 -0.0328
 2341DPPC   NC349777   3.426   9.429  30.783 -0.1724  0.0797  0.0413
 2341DPPC   PO449778   3.496   9.738  30.430 -0.1470  0.2675  0.3478
 2341DPPC   GL149779   3.969   9.735  30.306 -0.1171 -0.0968 -0.1647
 2341DPPC   GL249780   4.041   9.909  30.067  0.2165 -0.0070 -0.0213
 2341DPPC   C1A49781   4.253   9.572  30.629  0.0094  0.1815 -0.0037
 2341DPPC   C2A49782   4.637   9.476  30.949  0.4369 -0.1336  0.3218
 2341DPPC   C3A49783   5.098   9.595  31.155 -0.0354 -0.0034 -0.0485
 2341DPPC   C4A49784   5.452   9.794  31.284 -0.0549  0.2220 -0.1966
 2341DPPC   C1B49785   4.446  10.146  29.919 -0.0878  0.3059  0.0238
 2341DPPC   C2B49786   4.764  10.179  29.736  0.1966  0.2279  0.3052
 2341DPPC   C3B49787   5.091  10.272  29.559 -0.2876  0.5343 -0.2242
 2341DPPC   C4B49788   5.400  10.443  29.611  0.1572 -0.1302 -0.1182
 2342DPPC   NC349789  11.287  14.923  16.290 -0.1326  0.1045  0.1073
 2342DPPC   PO449790  11.528  15.083  16.699 -0.0800 -0.2455  0.0585
 2342DPPC   GL149791  11.654  15.030  17.103 -0.0435  0.2262  0.1131
 2342DPPC   GL249792  11.723  15.417  17.122  0.0886 -0.2197 -0.1297
 2342DPPC   C1A49793  11.880  14.972  17.531 -0.1111  0.0788 -0.3824
 2342DPPC   C2A49794  12.082  14.951  17.879  0.0357 -0.0931 -0.1875
 2342DPPC   C3A49795  12.144  14.798  18.268 -0.4027  0.1686  0.1469
 2342DPPC   C4A49796  12.372  15.092  18.511  0.0142 -0.0170  0.1061
 2342DPPC   C1B49797  11.884  15.463  17.489  0.4852  0.1841 -0.0272
 2342DPPC   C2B49798  12.331  15.615  17.738  0.2294  0.2090 -0.0730
 2342DPPC   C3B49799  12.722  15.769  17.884 -0.3636 -0.1673 -0.1767
 2342DPPC   C4B49800  13.006  15.941  17.712 -0.1872  0.1587 -0.0386
 2343DPPC   NC349801  16.840  10.557  19.178  0.1737  0.1101  0.0603
 2343DPPC   PO449802  16.717  10.937  19.292  0.0170 -0.1437 -0.2241
 2343DPPC   GL149803  16.678  11.030  18.882  0.1855  0.0818  0.3018
 2343DPPC   GL249804  16.589  11.242  18.685 -0.2174  0.3014  0.0085
 2343DPPC   C1A49805  16.700  10.849  18.423 -0.1697 -0.1689  0.2265
 2343DPPC   C2A49806  16.411  10.789  18.077 -0.2026 -0.2046 -0.5351
 2343DPPC   C3A49807  16.542  10.592  17.681  0.2075 -0.1271  0.4610
 2343DPPC   C4A49808  16.311  10.282  17.456 -0.0643  0.1251 -0.0836
 2343DPPC   C1B49809  16.233  11.323  18.372  0.0476 -0.0424 -0.0898
 2343DPPC   C2B49810  16.175  11.106  17.823  0.1436 -0.0466 -0.1663
 2343DPPC   C3B49811  16.064  11.016  17.445  0.0667  0.1932  0.2168
 2343DPPC   C4B49812  15.914  11.237  16.998 -0.1451 -0.1547  0.1634
 2344DPPC   NC349813  17.526   0.889  25.148  0.1538  0.1430  0.1062
 2344DPPC   PO449814  17.958   0.835  24.998 -0.0516 -0.1866  0.1039
 2344DPPC   GL149815  18.039   1.231  25.030 -0.2187  0.0589 -0.4109
 2344DPPC   GL249816  17.720   1.356  25.023  0.0450 -0.1841 -0.0677
 2344DPPC   C1A49817  18.033   1.545  25.429 -0.1553 -0.2421  0.1816
 2344DPPC   C2A49818  17.842   1.853  25.617 -0.1501 -0.0023 -0.3664
 2344DPPC   C3A49819  17.951   2.290  25.559  0.2986 -0.3112 -0.0286
 2344DPPC   C4A49820  18.126   2.635  25.290 -0.0262  0.1054  0.3331
 2344DPPC   C1B49821  17.547   1.495  25.352 -0.0765  0.2136 -0.2492
 2344DPPC   C2B49822  17.326   1.695  25.601 -0.0227 -0.0805 -0.0993
 2344DPPC   C3B49823  17.474   2.050  25.861  0.1280  0.0084 -0.0051
 2344DPPC   C4B49824  17.317   2.224  26.185 -0.1622 -0.2267  0.3244
 2345DPPC   NC349825  17.124  17.167  24.575 -0.0342  0.0504  0.1567
 2345DPPC   PO449826  17.309  16.920  24.701 -0.0607  0.1221 -0.0384
 2345DPPC   GL149827  17.542  16.727  24.934  0.0479  0.0325 -0.1610
 2345DPPC   GL249828  17.346  16.328  24.927 -0.0831 -0.2963 -0.3241
 2345DPPC   C1A49829  17.666  16.583  25.271  0.1129  0.1336  0.1049
 2345DPPC   C2A49830  17.757  16.145  25.425  0.1370 -0.4550 -0.1270
 2345DPPC   C3A49831  18.117  15.898  25.364 -0.1662  0.0669 -0.2936
 2345DPPC   C4A49832  18.286  15.632  25.198 -0.0790 -0.2586 -0.0036
 2345DPPC   C1B49833  17.914  16.338  24.920 -0.1083 -0.0775 -0.1034
 2345DPPC   C2B49834  18.350  16.156  24.895  0.0814  0.2708  0.1099
 2345DPPC   C3B49835  18.693  15.905  25.061  0.2065 -0.0998 -0.2402
 2345DPPC   C4B49836  19.091  16.014  25.007  0.2025 -0.3511  0.3807
 2346DPPC   NC349837   5.878  18.243  23.166 -0.0915 -0.2626  0.1271
 2346DPPC   PO449838   6.382  18.273  23.180 -0.1102  0.1864 -0.2029
 2346DPPC   GL149839   6.888  18.244  23.286 -0.0864 -0.0818  0.1622
 2346DPPC   GL249840   6.845  18.454  23.506 -0.0548  0.2904 -0.0347
 2346DPPC   C1A49841   7.011  18.029  23.683  0.4614  0.1072 -0.2431
 2346DPPC   C2A49842   6.898  17.767  23.945  0.1894 -0.2343  0.0308
 2346DPPC   C3A49843   7.205  17.264  24.054 -0.1061 -0.2035 -0.1070
 2346DPPC   C4A49844   7.205  16.877  23.970  0.0687 -0.0465  0.1692
 2346DPPC   C1B49845   7.228  18.491  23.540 -0.0245  0.1113  0.2085
 2346DPPC   C2B49846   7.711  18.551  23.655  0.0190  0.1325  0.2598
 2346DPPC   C3B49847   7.963  18.767  23.833 -0.0037 -0.4874 -0.3844
 2346DPPC   C4B49848   8.180  19.200  23.912  0.1121 -0.0864  0.1044
 2347DPPC   NC349849  17.556   6.262  23.903 -0.1388  0.0716 -0.1667
 2347DPPC   PO449850  18.064   6.212  23.795 -0.1734  0.0998  0.0281
 2347DPPC   GL149851  18.173   5.852  23.586  0.0395  0.0422  0.1056
 2347DPPC   GL249852  18.158   5.962  23.187 -0.3499 -0.1649 -0.1672
 2347DPPC   C1A49853  18.260   5.511  23.396  0.1959  0.5070  0.0387
 2347DPPC   C2A49854  18.226   5.090  23.442 -0.0039  0.3766  0.0957
 2347DPPC   C3A49855  18.116   4.781  23.325 -0.0513 -0.1398 -0.0147
 2347DPPC   C4A49856  18.175   4.351  23.183 -0.0020  0.1351  0.0069
 2347DPPC   C1B49857  18.439   5.560  22.943  0.1592  0.0672  0.1966
 2347DPPC   C2B49858  18.511   5.075  22.958  0.1758  0.0666 -0.2770
 2347DPPC   C3B49859  18.573   4.592  23.003  0.1436 -0.0758 -0.0118
 2347DPPC   C4B49860  18.836   4.164  23.096 -0.1519 -0.1602  0.1171
 2348DPPC   NC349861   9.642  15.678  42.343 -0.1126 -0.1417 -0.0512
 2348DPPC   PO449862   9.618  15.322  42.201 -0.0831 -0.1232 -0.0371
 2348DPPC   GL149863   9.898  15.075  41.978  0.1934  0.0012  0.0895
 2348DPPC   GL249864   9.991  14.746  41.954 -0.3931  0.0061  0.3429
 2348DPPC   C1A49865  10.351  15.189  41.788  0.0153 -0.2214 -0.4522
 2348DPPC   C2A49866  10.467  15.311  41.360 -0.2069 -0.1082  0.1985
 2348DPPC   C3A49867  10.578  15.132  40.948  0.1361  0.0853 -0.0197
 2348DPPC   C4A49868  10.860  15.357  40.732  0.0512 -0.1116  0.1941
 2348DPPC   C1B49869  10.021  14.983  41.524  0.2590 -0.4480  0.1167
 2348DPPC   C2B49870   9.975  15.255  41.190 -0.3618 -0.0160  0.0803
 2348DPPC   C3B49871  10.093  15.365  40.734 -0.2367  0.1644 -0.1939
 2348DPPC   C4B49872  10.487  15.413  40.418  0.1157  0.6728 -0.1261
 2349DPPC   NC349873  26.007  11.324  20.162 -0.0995  0.0194  0.0391
 2349DPPC   PO449874  25.668  11.364  19.919 -0.0970  0.1311 -0.0345
 2349DPPC   GL149875  25.419  11.544  20.216 -0.0638 -0.0873  0.0724
 2349DPPC   GL249876  25.132  11.637  20.070  0.0030  0.0374 -0.3558
 2349DPPC   C1A49877  25.336  11.597  20.637 -0.3105  0.0258  0.1910
 2349DPPC   C2A49878  25.003  11.703  20.834 -0.0946  0.1365 -0.2063
 2349DPPC   C3A49879  24.816  12.102  21.004  0.4032  0.1987  0.0045
 2349DPPC   C4A49880  24.920  12.509  21.042 -0.4799 -0.0071  0.1070
 2349DPPC   C1B49881  24.778  11.511  20.242  0.0215 -0.0860  0.0859
 2349DPPC   C2B49882  24.682  11.102  20.225  0.3017 -0.2030  0.2260
 2349DPPC   C3B49883  24.534  10.792  19.997  0.0719 -0.1123 -0.0329
 2349DPPC   C4B49884  24.677  10.501  19.667  0.1050  0.0329 -0.1433
 2350DPPC   NC349885  13.950  14.232  21.026  0.3189 -0.1502  0.1154
 2350DPPC   PO449886  13.846  14.324  20.631 -0.0305 -0.0612 -0.1022
 2350DPPC   GL149887  13.524  14.451  20.248 -0.2011 -0.0823 -0.2683
 2350DPPC   GL249888  13.805  14.519  20.057 -0.0961  0.0050 -0.0750
 2350DPPC   C1A49889  13.263  14.620  19.861  0.1417  0.3322 -0.2193
 2350DPPC   C2A49890  12.961  14.902  19.554  0.0123  0.0793  0.0929
 2350DPPC   C3A49891  12.644  15.092  19.449 -0.1386 -0.0560 -0.2145
 2350DPPC   C4A49892  12.505  15.158  18.999  0.3469 -0.1584  0.2042
 2350DPPC   C1B49893  13.668  14.306  19.720  0.4110 -0.0648  0.2903
 2350DPPC   C2B49894  13.362  14.393  19.339 -0.3564 -0.3552  0.0142
 2350DPPC   C3B49895  12.968  14.467  19.200 -0.0481  0.3487  0.0760
 2350DPPC   C4B49896  12.695  14.220  18.954  0.0857 -0.0225 -0.1401
 2351DPPC   NC349897  14.732   6.971  16.262  0.0514 -0.1218  0.0085
 2351DPPC   PO449898  14.797   7.231  16.633  0.1366  0.1437  0.2299
 2351DPPC   GL149899  14.957   7.580  16.917 -0.2322  0.0145  0.1326
 2351DPPC   GL249900  14.759   7.771  17.069 -0.0321 -0.1975  0.1524
 2351DPPC   C1A49901  15.273   7.744  17.130 -0.1072  0.2535  0.2821
 2351DPPC   C2A49902  15.554   7.731  17.424  0.0957 -0.3091 -0.1711
 2351DPPC   C3A49903  15.651   7.904  17.889  0.1927  0.0730  0.0566
 2351DPPC   C4A49904  15.802   7.859  18.269 -0.2890 -0.1329  0.0624
 2351DPPC   C1B49905  14.982   7.965  17.439 -0.0403  0.1629 -0.2722
 2351DPPC   C2B49906  15.272   8.223  17.538  0.0402 -0.3916 -0.3547
 2351DPPC   C3B49907  15.478   8.435  17.818  0.0384  0.2088  0.0018
 2351DPPC   C4B49908  15.830   8.573  17.959  0.1220  0.3231  0.1010
 2352DPPC   NC349909  15.117  19.823  23.222  0.0809  0.0078 -0.0262
 2352DPPC   PO449910  15.044  19.534  22.868  0.1794  0.3469  0.1415
 2352DPPC   GL149911  14.976  19.942  22.751 -0.2355 -0.1940  0.0707
 2352DPPC   GL249912  14.799  19.840  22.520  0.2111  0.2709 -0.1814
 2352DPPC   C1A49913  15.136  20.269  22.404  0.0940 -0.0963  0.0846
 2352DPPC   C2A49914  15.241  20.373  21.957  0.1280 -0.4114 -0.0838
 2352DPPC   C3A49915  15.442  20.621  21.632 -0.0021  0.0596 -0.2362
 2352DPPC   C4A49916  15.510  20.922  21.234  0.1469 -0.3712  0.0563
 2352DPPC   C1B49917  14.639  20.029  22.204  0.2426  0.0273  0.2227
 2352DPPC   C2B49918  14.737  20.186  21.968 -0.2335  0.0733 -0.1247
 2352DPPC   C3B49919  14.789  20.541  21.761  0.0960 -0.1958  0.1608
 2352DPPC   C4B49920  15.079  20.841  21.974 -0.1751  0.2899  0.1993
 2353DPPC   NC349921  13.737  14.962  26.184  0.2034 -0.2782 -0.0950
 2353DPPC   PO449922  13.968  15.032  26.628  0.1646 -0.0733 -0.1518
 2353DPPC   GL149923  14.319  14.963  26.343  0.0519  0.0104  0.1716
 2353DPPC   GL249924  14.464  15.269  26.186 -0.3827 -0.1533  0.2653
 2353DPPC   C1A49925  14.632  14.968  25.849 -0.0717 -0.2525 -0.2549
 2353DPPC   C2A49926  14.932  15.120  25.661 -0.0310 -0.1115  0.1066
 2353DPPC   C3A49927  15.194  14.969  25.267 -0.3182  0.0743 -0.1469
 2353DPPC   C4A49928  15.489  14.624  25.222 -0.0345  0.0930 -0.0184
 2353DPPC   C1B49929  14.894  15.044  26.242 -0.0394 -0.0361 -0.2445
 2353DPPC   C2B49930  15.058  14.735  26.030 -0.1619  0.1343 -0.0842
 2353DPPC   C3B49931  14.854  14.527  25.820  0.0497  0.0803 -0.1189
 2353DPPC   C4B49932  14.527  14.147  25.927 -0.0017  0.2912 -0.2314
 2354DPPC   NC349933  13.331   2.871  21.448 -0.1140  0.3312 -0.1450
 2354DPPC   PO449934  13.516   2.719  21.620  0.0695 -0.0197  0.0837
 2354DPPC   GL149935  13.800   2.919  21.704 -0.1638 -0.2471  0.1000
 2354DPPC   GL249936  13.796   3.150  22.026  0.0915  0.1975  0.0067
 2354DPPC   C1A49937  13.596   3.432  21.702 -0.2733  0.0692 -0.0379
 2354DPPC   C2A49938  13.839   3.729  21.454 -0.0990 -0.2074  0.1217
 2354DPPC   C3A49939  14.087   3.896  21.342  0.2429 -0.0062 -0.2611
 2354DPPC   C4A49940  14.386   3.936  20.947  0.2984 -0.0745 -0.0294
 2354DPPC   C1B49941  13.783   3.628  22.103  0.1507  0.1445  0.0492
 2354DPPC   C2B49942  13.875   4.015  22.255 -0.3756  0.1932 -0.1347
 2354DPPC   C3B49943  13.896   4.244  22.601 -0.0705  0.0323  0.0322
 2354DPPC   C4B49944  13.631   4.589  22.441  0.1127 -0.1629  0.0390
 2355DPPC   NC349945  24.556  16.513  21.898 -0.4833  0.0637  0.1514
 2355DPPC   PO449946  24.110  16.561  21.809  0.3207 -0.1498  0.1967
 2355DPPC   GL149947  23.860  16.239  21.836  0.1564 -0.0546  0.1434
 2355DPPC   GL249948  23.717  16.365  22.079  0.2597 -0.1069 -0.0546
 2355DPPC   C1A49949  23.707  15.842  21.728 -0.2055 -0.1221 -0.1361
 2355DPPC   C2A49950  23.314  15.772  21.809 -0.0587  0.0570  0.1018
 2355DPPC   C3A49951  22.999  15.593  21.493  0.0272 -0.0590 -0.1384
 2355DPPC   C4A49952  22.709  15.817  21.204 -0.1050  0.1371  0.4429
 2355DPPC   C1B49953  23.489  15.996  22.217  0.0264  0.2418  0.1013
 2355DPPC   C2B49954  23.154  15.780  22.392  0.1350  0.0769 -0.2312
 2355DPPC   C3B49955  23.037  15.405  22.399  0.1218  0.0005 -0.1254
 2355DPPC   C4B49956  22.640  15.220  22.292 -0.1249 -0.1998 -0.0361
 2356DPPC   NC349957  17.373  12.665  43.980  0.0159 -0.1449  0.0713
 2356DPPC   PO449958  17.691  12.917  43.685  0.1537 -0.3753 -0.4363
 2356DPPC   GL149959  17.631  13.258  43.355 -0.0690  0.0087  0.3777
 2356DPPC   GL249960  17.837  13.123  43.207 -0.0890 -0.0382  0.1229
 2356DPPC   C1A49961  17.463  13.551  43.170 -0.1716  0.1362  0.0314
 2356DPPC   C2A49962  17.483  13.581  42.703 -0.1603 -0.1607 -0.1137
 2356DPPC   C3A49963  17.485  13.463  42.239  0.3007 -0.2111 -0.1689
 2356DPPC   C4A49964  17.447  13.403  41.712 -0.1939  0.0101  0.2683
 2356DPPC   C1B49965  17.436  12.947  43.007  0.2519 -0.0979  0.3943
 2356DPPC   C2B49966  17.071  13.091  42.904  0.1945  0.0099  0.1077
 2356DPPC   C3B49967  16.756  13.084  42.694 -0.0627 -0.0309 -0.0093
 2356DPPC   C4B49968  16.550  12.679  42.603  0.4304  0.0377 -0.0339
 2357DPPC   NC349969   4.580  10.826  25.337 -0.3321 -0.1641  0.1203
 2357DPPC   PO449970   4.402  11.221  25.124  0.1705  0.1000 -0.0589
 2357DPPC   GL149971   4.920  11.317  25.276 -0.1767 -0.0361  0.3405
 2357DPPC   GL249972   5.019  11.177  25.630 -0.1642  0.1486  0.2177
 2357DPPC   C1A49973   5.345  11.360  25.078 -0.1785 -0.0658  0.1161
 2357DPPC   C2A49974   5.801  11.327  25.054 -0.1416  0.1191  0.1699
 2357DPPC   C3A49975   6.278  11.366  25.084  0.2688  0.1753 -0.3042
 2357DPPC   C4A49976   6.780  11.406  25.173  0.2941 -0.0464  0.4092
 2357DPPC   C1B49977   5.348  11.307  25.968  0.0613  0.1431  0.0795
 2357DPPC   C2B49978   5.762  11.445  25.927  0.0147 -0.0188 -0.0446
 2357DPPC   C3B49979   6.130  11.493  26.080 -0.1911  0.0466  0.0576
 2357DPPC   C4B49980   6.290  11.881  26.035  0.4410 -0.2223  0.0064
 2358DPPC   NC349981  16.488  16.766  24.900  0.0251 -0.0425 -0.0543
 2358DPPC   PO449982  16.757  16.862  24.533  0.1571  0.0290 -0.1768
 2358DPPC   GL149983  16.950  16.579  24.918 -0.3701 -0.2171  0.0891
 2358DPPC   GL249984  16.834  16.365  24.919 -0.1181  0.1363  0.0408
 2358DPPC   C1A49985  17.020  16.475  25.353 -0.0618 -0.1006 -0.0581
 2358DPPC   C2A49986  16.868  16.484  25.806 -0.1959 -0.1015  0.2365
 2358DPPC   C3A49987  16.731  16.038  25.861  0.2813 -0.1775  0.2452
 2358DPPC   C4A49988  16.703  15.584  25.706  0.2889  0.2063 -0.5150
 2358DPPC   C1B49989  16.731  16.018  24.561  0.1485 -0.1658  0.0244
 2358DPPC   C2B49990  16.808  15.642  24.432 -0.2507  0.1077 -0.0450
 2358DPPC   C3B49991  16.798  15.188  24.294  0.0636  0.1793  0.1199
 2358DPPC   C4B49992  17.122  14.823  24.517  0.2975  0.0086 -0.2352
 2359DPPC   NC349993  16.166  15.523  20.349 -0.1879  0.2630  0.0054
 2359DPPC   PO449994  16.034  15.739  19.911  0.1383 -0.1324  0.1209
 2359DPPC   GL149995  15.968  15.884  19.453 -0.1121 -0.1990 -0.2737
 2359DPPC   GL249996  15.667  15.856  19.385  0.3018 -0.1179 -0.0349
 2359DPPC   C1A49997  15.945  16.080  18.977 -0.3094  0.2488 -0.2368
 2359DPPC   C2A49998  15.708  15.980  18.627 -0.0580 -0.0518 -0.2591
 2359DPPC   C3A49999  15.824  15.958  18.251  0.0978 -0.0614 -0.0169
 2359DPPC   C4A50000  15.862  16.296  18.048 -0.0263 -0.0465  0.1639
 2359DPPC   C1B50001  15.450  16.247  19.207 -0.0920 -0.1371 -0.1652
 2359DPPC   C2B50002  15.059  16.502  19.029  0.0841  0.0821 -0.2505
 2359DPPC   C3B50003  14.901  16.845  18.714 -0.0294 -0.3614 -0.1422
 2359DPPC   C4B50004  14.821  17.293  18.491  0.0014  0.0055  0.2320
 2360DPPC   NC350005  18.393   5.987  42.079 -0.0295 -0.0846 -0.1916
 2360DPPC   PO450006  18.753   6.236  42.018  0.1693  0.0387 -0.1689
 2360DPPC   GL150007  18.478   6.354  41.620  0.0991  0.2575 -0.3666
 2360DPPC   GL250008  18.274   6.018  41.616 -0.1093 -0.4015 -0.0272
 2360DPPC   C1A50009  18.359   6.423  41.291 -0.0400  0.0247 -0.2178
 2360DPPC   C2A50010  18.294   6.574  40.846 -0.2697 -0.1857  0.1660
 2360DPPC   C3A50011  18.109   6.682  40.397  0.3155  0.0967 -0.1029
 2360DPPC   C4A50012  17.859   7.019  40.275 -0.0040  0.1671 -0.1150
 2360DPPC   C1B50013  18.515   5.966  41.254 -0.1992  0.2831 -0.0324
 2360DPPC   C2B50014  18.731   6.149  40.928  0.1630  0.3434  0.0372
 2360DPPC   C3B50015  18.810   6.540  40.622 -0.0652 -0.1484  0.1247
 2360DPPC   C4B50016  18.715   6.711  40.209 -0.1590 -0.0852  0.3273
 2361DPPC   NC350017  20.207   9.464  19.780  0.2972 -0.0374 -0.2797
 2361DPPC   PO450018  19.839   9.534  19.555  0.4581 -0.0277  0.0723
 2361DPPC   GL150019  19.968   9.613  19.218 -0.1926 -0.1654  0.1265
 2361DPPC   GL250020  20.213   9.614  19.320 -0.2907 -0.1935  0.1608
 2361DPPC   C1A50021  20.105   9.692  18.827  0.0334  0.0276 -0.0542
 2361DPPC   C2A50022  20.106   9.427  18.444  0.2742 -0.0469  0.0156
 2361DPPC   C3A50023  20.283   9.439  18.046 -0.0161  0.0228 -0.0901
 2361DPPC   C4A50024  20.442   9.402  17.597  0.0918  0.0771 -0.1315
 2361DPPC   C1B50025  20.603   9.511  19.106  0.1148 -0.1840 -0.5483
 2361DPPC   C2B50026  20.748   9.169  18.783  0.0321  0.1597  0.0877
 2361DPPC   C3B50027  20.954   8.776  18.776 -0.0275  0.0534  0.3854
 2361DPPC   C4B50028  21.124   8.418  19.058 -0.1461  0.1944 -0.0881
 2362DPPC   NC350029  16.981  14.017  22.967 -0.1115 -0.1508 -0.2851
 2362DPPC   PO450030  16.672  13.757  23.022  0.3126 -0.1840 -0.0370
 2362DPPC   GL150031  16.854  13.821  23.439  0.0881  0.0240 -0.0828
 2362DPPC   GL250032  17.039  13.513  23.620  0.0541 -0.1510  0.1595
 2362DPPC   C1A50033  16.882  13.932  23.926  0.0343  0.0619 -0.0271
 2362DPPC   C2A50034  16.731  14.009  24.372  0.3756  0.2074 -0.2251
 2362DPPC   C3A50035  16.972  13.892  24.807  0.2108 -0.1510 -0.0546
 2362DPPC   C4A50036  17.344  14.010  25.115 -0.2907  0.0556 -0.1529
 2362DPPC   C1B50037  17.016  13.374  24.050  0.0128 -0.0419 -0.1132
 2362DPPC   C2B50038  16.842  13.481  24.488 -0.2538 -0.2118  0.0205
 2362DPPC   C3B50039  16.615  13.589  24.876  0.0471  0.1467  0.3027
 2362DPPC   C4B50040  16.602  13.667  25.264  0.3103 -0.0441 -0.3896
 2363DPPC   NC350041  21.793  12.089  20.501 -0.3407  0.0800 -0.3165
 2363DPPC   PO450042  21.915  12.475  20.458 -0.0663  0.1128  0.1692
 2363DPPC   GL150043  22.203  12.814  20.368  0.2676 -0.2220 -0.0791
 2363DPPC   GL250044  22.315  12.885  20.579  0.1738  0.1980  0.0539
 2363DPPC   C1A50045  22.438  13.230  20.279 -0.0321  0.4304  0.3075
 2363DPPC   C2A50046  22.779  13.382  20.066  0.0531 -0.2067 -0.0234
 2363DPPC   C3A50047  23.228  13.489  19.963 -0.1326  0.3171 -0.1640
 2363DPPC   C4A50048  23.609  13.758  19.974 -0.0800 -0.1017 -0.2705
 2363DPPC   C1B50049  22.669  13.020  20.731 -0.3196  0.2836  0.3343
 2363DPPC   C2B50050  22.928  13.346  20.936 -0.2081  0.0205 -0.0314
 2363DPPC   C3B50051  23.107  13.507  21.246  0.1322 -0.0463  0.1694
 2363DPPC   C4B50052  23.289  13.637  21.699 -0.0336 -0.0921  0.1008
 2364DPPC   NC350053  16.930  19.879  23.185 -0.0323  0.1193  0.0624
 2364DPPC   PO450054  16.443  19.871  23.303  0.3728 -0.0809  0.0586
 2364DPPC   GL150055  16.610  20.272  23.167 -0.0127  0.0894  0.2195
 2364DPPC   GL250056  16.883  20.316  22.880  0.0595 -0.2752 -0.0350
 2364DPPC   C1A50057  16.568  20.671  23.108  0.1431  0.2562 -0.0695
 2364DPPC   C2A50058  16.706  21.051  23.140 -0.3098  0.3445 -0.0568
 2364DPPC   C3A50059  16.694  21.521  23.309 -0.3004  0.0778 -0.0808
 2364DPPC   C4A50060  16.847  21.929  23.337 -0.1206  0.0103 -0.0849
 2364DPPC   C1B50061  16.654  20.615  22.613  0.1671  0.0995  0.2581
 2364DPPC   C2B50062  16.673  20.992  22.348 -0.1519  0.1966 -0.0965
 2364DPPC   C3B50063  17.053  21.370  22.348  0.0329 -0.0390  0.0986
 2364DPPC   C4B50064  17.336  21.556  22.642 -0.1634  0.0844  0.1632
 2365DPPC   NC350065  26.176  16.044  35.862 -0.0207  0.0732  0.1322
 2365DPPC   PO450066  26.014  16.294  36.109 -0.0359 -0.0197 -0.3605
 2365DPPC   GL150067  25.685  16.227  36.093 -0.0299 -0.2557 -0.1385
 2365DPPC   GL250068  25.604  16.462  36.384  0.3062 -0.1473  0.0143
 2365DPPC   C1A50069  25.330  16.330  35.836 -0.2905 -0.0124 -0.1178
 2365DPPC   C2A50070  24.906  16.277  35.592  0.0852  0.2577 -0.0781
 2365DPPC   C3A50071  24.700  16.301  35.228 -0.1627 -0.0287  0.2092
 2365DPPC   C4A50072  24.895  16.291  34.823  0.2806 -0.1767  0.1963
 2365DPPC   C1B50073  25.242  16.232  36.411 -0.2243  0.1775  0.0745
 2365DPPC   C2B50074  24.824  16.248  36.452  0.0753  0.2809 -0.0493
 2365DPPC   C3B50075  24.366  16.210  36.451 -0.0261 -0.0697 -0.1342
 2365DPPC   C4B50076  23.923  16.362  36.168  0.0172  0.1253 -0.3111
 2366DPPC   NC350077  22.070   8.432  23.849  0.2109 -0.1329  0.3420
 2366DPPC   PO450078  22.336   8.302  23.455 -0.2682 -0.1114  0.1693
 2366DPPC   GL150079  22.577   7.983  23.450  0.2582 -0.0469 -0.2668
 2366DPPC   GL250080  22.980   8.073  23.490  0.1000 -0.3075  0.0291
 2366DPPC   C1A50081  22.406   7.555  23.354  0.1229 -0.2930 -0.1095
 2366DPPC   C2A50082  22.237   7.178  23.256 -0.0106  0.0911 -0.3481
 2366DPPC   C3A50083  22.261   6.857  23.009  0.1806  0.0271 -0.1022
 2366DPPC   C4A50084  22.217   6.442  22.861  0.2949  0.1604  0.1466
 2366DPPC   C1B50085  23.134   8.089  23.090  0.3715  0.0370  0.2553
 2366DPPC   C2B50086  23.198   7.809  22.825  0.0184  0.1665 -0.0555
 2366DPPC   C3B50087  22.869   7.505  22.685 -0.1587 -0.2194 -0.1279
 2366DPPC   C4B50088  22.692   7.284  23.023 -0.0140 -0.1228 -0.1343
 2367DPPC   NC350089  21.846  11.291  42.495  0.0609 -0.4331  0.0702
 2367DPPC   PO450090  22.003  11.658  42.341  0.0543 -0.1165  0.0276
 2367DPPC   GL150091  21.787  11.856  42.075  0.2603 -0.1330 -0.0437
 2367DPPC   GL250092  21.891  11.683  41.826  0.0713 -0.1349  0.0738
 2367DPPC   C1A50093  21.332  12.090  42.054 -0.0002  0.0737  0.1523
 2367DPPC   C2A50094  20.852  12.113  41.895 -0.3653 -0.1611  0.0647
 2367DPPC   C3A50095  20.705  12.200  41.466  0.0666  0.0620  0.4374
 2367DPPC   C4A50096  20.230  12.317  41.202  0.0584 -0.3806 -0.1015
 2367DPPC   C1B50097  21.583  11.551  41.645 -0.0855  0.0613  0.0750
 2367DPPC   C2B50098  21.267  11.468  41.295 -0.1548  0.0656  0.2954
 2367DPPC   C3B50099  20.882  11.468  41.099 -0.0043  0.0767  0.2383
 2367DPPC   C4B50100  20.411  11.317  41.347 -0.6005  0.1948 -0.3460
 2368DPPC   NC350101  24.101  17.150  21.842 -0.2378 -0.1083 -0.0466
 2368DPPC   PO450102  24.136  17.073  21.422 -0.2938  0.0888  0.1672
 2368DPPC   GL150103  23.771  16.694  21.411 -0.0760 -0.1375  0.1138
 2368DPPC   GL250104  23.510  16.719  21.680  0.1397 -0.1285  0.2240
 2368DPPC   C1A50105  23.744  16.361  21.347 -0.1231  0.1530 -0.1548
 2368DPPC   C2A50106  24.044  15.992  21.301  0.1293 -0.3073  0.2295
 2368DPPC   C3A50107  24.288  16.031  20.966  0.1389 -0.2613  0.1707
 2368DPPC   C4A50108  24.280  15.809  20.607 -0.2453 -0.3593  0.2291
 2368DPPC   C1B50109  23.301  16.684  22.029 -0.0192 -0.0563  0.2078
 2368DPPC   C2B50110  23.295  16.591  22.517 -0.1395 -0.1583  0.0587
 2368DPPC   C3B50111  22.945  16.685  22.595  0.2060  0.1355 -0.1362
 2368DPPC   C4B50112  22.613  16.485  22.826 -0.0145 -0.0532  0.0556
 2369DPPC   NC350113  18.932  11.066  19.138 -0.1364 -0.2709 -0.1506
 2369DPPC   PO450114  19.161  10.895  18.929 -0.4041  0.2916 -0.1467
 2369DPPC   GL150115  18.856  10.961  18.579  0.1626  0.0298 -0.0618
 2369DPPC   GL250116  18.560  10.756  18.627  0.1684  0.2006  0.1055
 2369DPPC   C1A50117  18.653  11.020  18.174 -0.0613  0.0207  0.2154
 2369DPPC   C2A50118  18.743  10.977  17.792  0.0445 -0.3724 -0.1394
 2369DPPC   C3A50119  18.803  11.025  17.380 -0.0751 -0.0117 -0.1349
 2369DPPC   C4A50120  18.545  11.044  17.066  0.2292 -0.1151 -0.0953
 2369DPPC   C1B50121  18.405  10.582  18.242 -0.1546  0.2725 -0.4963
 2369DPPC   C2B50122  18.691  10.386  17.849 -0.1802 -0.0327  0.2287
 2369DPPC   C3B50123  18.866  10.517  17.414 -0.4112 -0.0313  0.2749
 2369DPPC   C4B50124  18.928  10.772  17.010 -0.1574  0.1691 -0.1432
 2370DPPC   NC350125  20.168  15.653  22.863  0.1236 -0.0698  0.0678
 2370DPPC   PO450126  19.891  15.902  22.630  0.3674  0.0262 -0.0216
 2370DPPC   GL150127  20.413  16.119  22.486 -0.2713 -0.0708  0.2757
 2370DPPC   GL250128  20.411  16.299  22.205 -0.0674 -0.1423  0.1332
 2370DPPC   C1A50129  20.771  16.093  22.626  0.3153  0.2674 -0.1684
 2370DPPC   C2A50130  21.156  15.708  22.686 -0.5397  0.0935 -0.1459
 2370DPPC   C3A50131  21.628  15.660  22.722  0.1925 -0.1228  0.0539
 2370DPPC   C4A50132  22.072  15.785  22.772 -0.0782  0.1197  0.1196
 2370DPPC   C1B50133  20.695  16.532  22.277 -0.2363 -0.1286  0.0224
 2370DPPC   C2B50134  20.911  16.780  22.204  0.1182  0.2507 -0.3107
 2370DPPC   C3B50135  21.188  17.043  22.061  0.1683 -0.1414 -0.0426
 2370DPPC   C4B50136  21.545  17.339  22.112  0.1471  0.1886 -0.1073
 2371DPPC   NC350137  24.915  11.095  17.618  0.1807 -0.0001  0.2626
 2371DPPC   PO450138  24.594  11.070  17.331  0.2818  0.0537 -0.1853
 2371DPPC   GL150139  24.433  11.093  17.709 -0.4132 -0.0988  0.0200
 2371DPPC   GL250140  24.170  10.931  17.731  0.1073  0.1120 -0.2284
 2371DPPC   C1A50141  24.410  10.941  18.186 -0.0356  0.0480 -0.0767
 2371DPPC   C2A50142  24.337  11.220  18.566  0.3515 -0.0549  0.1176
 2371DPPC   C3A50143  24.209  11.326  18.849  0.1870  0.0833  0.0974
 2371DPPC   C4A50144  23.817  11.418  18.998  0.4018  0.0156  0.0942
 2371DPPC   C1B50145  23.889  10.924  17.972 -0.0213  0.0302 -0.0137
 2371DPPC   C2B50146  23.867  11.187  18.324  0.3525 -0.0813 -0.1316
 2371DPPC   C3B50147  23.853  11.008  18.710 -0.0294 -0.1351 -0.0993
 2371DPPC   C4B50148  24.041  10.872  19.179  0.3117  0.0588  0.1496
 2372DPPC   NC350149  26.977  10.880  24.409 -0.0290  0.0890  0.1435
 2372DPPC   PO450150   0.122  11.224  24.717 -0.1220  0.0894  0.3384
 2372DPPC   GL150151  26.765  11.301  24.772 -0.1440 -0.1144  0.2054
 2372DPPC   GL250152  26.665  11.510  25.008 -0.2971 -0.1804  0.2640
 2372DPPC   C1A50153  26.324  11.335  24.726  0.3231  0.1933  0.1669
 2372DPPC   C2A50154  25.874  11.234  24.572  0.1766 -0.0694  0.0867
 2372DPPC   C3A50155  25.760  11.462  24.186 -0.2582  0.2567 -0.0001
 2372DPPC   C4A50156  25.956  11.690  23.802 -0.1722 -0.0112 -0.0245
 2372DPPC   C1B50157  26.225  11.371  25.234  0.0246 -0.0719 -0.2255
 2372DPPC   C2B50158  25.892  11.492  25.432 -0.4152 -0.1992  0.0426
 2372DPPC   C3B50159  25.467  11.595  25.543 -0.2854 -0.0854 -0.0835
 2372DPPC   C4B50160  25.061  11.571  25.726 -0.2488 -0.1774 -0.0388
 2373DPPC   NC350161   6.987  12.386  20.606 -0.1665  0.2130 -0.1718
 2373DPPC   PO450162   6.685  12.511  20.896 -0.0799 -0.3212  0.4302
 2373DPPC   GL150163   6.735  12.805  21.225 -0.0957 -0.2000  0.1524
 2373DPPC   GL250164   6.753  13.160  21.122 -0.2293  0.0048  0.6017
 2373DPPC   C1A50165   7.078  12.832  21.635 -0.0809 -0.0427 -0.0306
 2373DPPC   C2A50166   7.145  13.074  21.876 -0.4075 -0.0285  0.1537
 2373DPPC   C3A50167   7.462  13.098  22.003  0.0837 -0.2848  0.0287
 2373DPPC   C4A50168   7.732  12.856  22.181 -0.0288  0.2584  0.1724
 2373DPPC   C1B50169   7.186  12.999  21.141  0.1554  0.3261 -0.1314
 2373DPPC   C2B50170   7.656  13.127  21.224 -0.1211  0.0504  0.1106
 2373DPPC   C3B50171   8.177  13.039  21.293  0.2716  0.2361 -0.0355
 2373DPPC   C4B50172   8.506  13.342  21.305 -0.2796 -0.0209  0.1713
 2374DPPC   NC350173  21.606  13.626  25.531 -0.1035  0.3032 -0.1812
 2374DPPC   PO450174  21.590  13.589  25.921  0.1409  0.1555  0.2171
 2374DPPC   GL150175  21.987  13.858  25.832 -0.0691  0.0850 -0.0649
 2374DPPC   GL250176  21.757  14.084  25.709 -0.0128 -0.2203 -0.0102
 2374DPPC   C1A50177  22.325  14.156  25.846  0.0240 -0.0932  0.1323
 2374DPPC   C2A50178  22.389  14.545  26.104 -0.1002 -0.3391 -0.1391
 2374DPPC   C3A50179  22.701  14.878  26.183  0.1316  0.2028  0.0423
 2374DPPC   C4A50180  22.950  15.132  26.079  0.2205  0.0098  0.0952
 2374DPPC   C1B50181  21.903  14.364  25.525 -0.0148 -0.0470 -0.2014
 2374DPPC   C2B50182  22.273  14.503  25.390 -0.0562 -0.2236  0.0345
 2374DPPC   C3B50183  22.683  14.709  25.307 -0.1684 -0.3268  0.0044
 2374DPPC   C4B50184  23.062  14.692  25.452 -0.0992  0.0477  0.0886
 2375DPPC   NC350185  19.342  17.724  27.122 -0.0205  0.1139  0.3193
 2375DPPC   PO450186  19.402  17.256  27.111 -0.0890 -0.0583  0.0496
 2375DPPC   GL150187  19.741  17.083  26.803  0.0391  0.1319  0.0134
 2375DPPC   GL250188  19.762  17.043  26.490  0.2688 -0.1498 -0.0499
 2375DPPC   C1A50189  20.129  17.245  26.792 -0.0418 -0.3193 -0.2216
 2375DPPC   C2A50190  20.424  17.223  26.482 -0.1559  0.4043  0.2025
 2375DPPC   C3A50191  20.562  17.465  26.119  0.0530 -0.1215 -0.0016
 2375DPPC   C4A50192  20.613  17.351  25.699  0.0895 -0.3039  0.0571
 2375DPPC   C1B50193  20.025  17.423  26.312 -0.1514  0.0267  0.0316
 2375DPPC   C2B50194  20.094  17.811  26.054 -0.1628  0.1633 -0.0468
 2375DPPC   C3B50195  20.198  18.272  26.230  0.0078  0.2066 -0.0972
 2375DPPC   C4B50196  19.926  18.531  26.455  0.1485 -0.0470  0.1257
 2376DPPC   NC350197  20.529  11.240  18.957 -0.6320 -0.0520  0.3742
 2376DPPC   PO450198  20.250  11.495  18.814  0.1133  0.0025  0.0657
 2376DPPC   GL150199  20.397  11.282  18.451  0.2211  0.1377 -0.2240
 2376DPPC   GL250200  20.589  11.024  18.509 -0.0940  0.1164  0.0271
 2376DPPC   C1A50201  20.454  11.429  18.057 -0.0611 -0.0998 -0.2912
 2376DPPC   C2A50202  20.494  11.531  17.589 -0.1026 -0.2239  0.0744
 2376DPPC   C3A50203  20.687  11.533  17.131 -0.0035 -0.1666 -0.1496
 2376DPPC   C4A50204  20.828  11.808  16.797  0.1240 -0.2808 -0.0828
 2376DPPC   C1B50205  20.391  10.908  18.155  0.1755 -0.0054  0.1505
 2376DPPC   C2B50206  20.149  10.631  17.883  0.1850  0.3234 -0.0754
 2376DPPC   C3B50207  19.874  10.269  17.866  0.0522 -0.3276 -0.1910
 2376DPPC   C4B50208  19.736   9.895  17.971  0.2848  0.0606  0.1155
 2377DPPC   NC350209  17.830  13.871  14.794  0.1947  0.0767 -0.0709
 2377DPPC   PO450210  18.092  13.685  14.852 -0.3866  0.0497 -0.1593
 2377DPPC   GL150211  18.051  13.501  15.140 -0.4650 -0.1970  0.1831
 2377DPPC   GL250212  17.949  13.138  15.038  0.3168 -0.1219 -0.0935
 2377DPPC   C1A50213  18.040  13.579  15.523  0.3229  0.0010  0.0020
 2377DPPC   C2A50214  18.177  13.518  15.940 -0.2787 -0.0485 -0.2248
 2377DPPC   C3A50215  18.171  13.616  16.344  0.1661  0.0428 -0.0536
 2377DPPC   C4A50216  18.576  13.571  16.473 -0.0612 -0.1232 -0.0248
 2377DPPC   C1B50217  18.296  13.101  15.314 -0.0169 -0.1611 -0.0599
 2377DPPC   C2B50218  18.314  13.024  15.689 -0.3149 -0.0347 -0.4200
 2377DPPC   C3B50219  18.758  12.875  15.920 -0.1328 -0.0660 -0.1094
 2377DPPC   C4B50220  19.043  12.480  15.913  0.0514  0.1304  0.1727
 2378DPPC   NC350221   6.864  23.302  28.643 -0.0555  0.0313 -0.0993
 2378DPPC   PO450222   7.242  23.044  28.839 -0.2998  0.0684 -0.0140
 2378DPPC   GL150223   7.532  22.867  29.006 -0.0981  0.2202  0.0282
 2378DPPC   GL250224   7.560  22.454  28.915 -0.2726 -0.3520  0.3907
 2378DPPC   C1A50225   7.901  22.763  29.093  0.1334  0.2353 -0.0862
 2378DPPC   C2A50226   8.057  22.329  28.907  0.1737  0.0635 -0.1914
 2378DPPC   C3A50227   8.420  22.126  28.958  0.2057  0.1284  0.0276
 2378DPPC   C4A50228   8.641  22.026  28.757 -0.1932 -0.1947 -0.0950
 2378DPPC   C1B50229   7.597  22.087  28.653  0.0614 -0.1107 -0.0816
 2378DPPC   C2B50230   7.811  21.703  28.599 -0.3017  0.1244 -0.0544
 2378DPPC   C3B50231   8.102  21.435  28.637  0.2818 -0.0305 -0.2080
 2378DPPC   C4B50232   8.533  21.181  28.510 -0.0020  0.2042 -0.1313
 2379DPPC   NC350233  16.659  18.507  16.429  0.1355  0.1472 -0.1254
 2379DPPC   PO450234  17.114  18.829  16.347 -0.2079  0.0765 -0.2631
 2379DPPC   GL150235  17.168  18.294  16.582  0.2961 -0.3161 -0.0136
 2379DPPC   GL250236  16.851  18.115  16.759 -0.0383  0.1090  0.2687
 2379DPPC   C1A50237  17.259  18.132  17.089 -0.1975  0.0171 -0.1248
 2379DPPC   C2A50238  17.247  18.104  17.479  0.0133  0.2194  0.2836
 2379DPPC   C3A50239  17.147  17.938  17.973  0.2592  0.1397  0.2297
 2379DPPC   C4A50240  17.251  17.544  18.162 -0.0955  0.0647 -0.1518
 2379DPPC   C1B50241  16.766  17.984  17.193 -0.1181 -0.2202 -0.0687
 2379DPPC   C2B50242  16.802  17.814  17.559 -0.1290 -0.1523  0.2003
 2379DPPC   C3B50243  16.870  17.520  17.836  0.0884 -0.4738  0.0194
 2379DPPC   C4B50244  16.625  17.162  17.961 -0.1617  0.1828  0.0969
 2380DPPC   NC350245  20.727  14.157  26.574  0.0168  0.0779 -0.0225
 2380DPPC   PO450246  20.440  14.496  26.487  0.0409 -0.2583  0.2140
 2380DPPC   GL150247  20.579  14.722  26.194  0.1248 -0.1558  0.3720
 2380DPPC   GL250248  20.740  14.958  26.299 -0.2768  0.1216  0.0474
 2380DPPC   C1A50249  20.700  14.682  25.784 -0.1935 -0.2690  0.0332
 2380DPPC   C2A50250  20.931  14.791  25.480 -0.1483 -0.1594  0.1608
 2380DPPC   C3A50251  21.088  15.263  25.359  0.0968 -0.2348  0.0390
 2380DPPC   C4A50252  21.281  15.476  25.114 -0.1672  0.3208  0.1548
 2380DPPC   C1B50253  20.491  15.215  26.035  0.0912  0.2039 -0.1230
 2380DPPC   C2B50254  20.394  15.056  25.663 -0.2540  0.0418 -0.2406
 2380DPPC   C3B50255  20.642  15.093  25.201  0.0667  0.0953  0.0740
 2380DPPC   C4B50256  20.835  15.071  24.914  0.2882  0.0311  0.0060
 2381DPPC   NC350257  16.043   0.366  25.083 -0.1447 -0.4716 -0.2763
 2381DPPC   PO450258  16.280   0.698  25.289  0.0549 -0.3371 -0.4350
 2381DPPC   GL150259  16.286   1.094  25.298 -0.2156 -0.3313 -0.2588
 2381DPPC   GL250260  16.504   1.217  25.030 -0.2126  0.0179 -0.0633
 2381DPPC   C1A50261  16.320   1.358  25.639 -0.2649  0.1121  0.2518
 2381DPPC   C2A50262  16.335   1.792  25.714 -0.1432  0.0568  0.0468
 2381DPPC   C3A50263  16.252   1.993  26.031 -0.0207  0.0159 -0.3660
 2381DPPC   C4A50264  15.976   2.334  26.276  0.0483 -0.0583 -0.0648
 2381DPPC   C1B50265  16.603   1.602  25.113  0.1780 -0.0497 -0.4117
 2381DPPC   C2B50266  16.334   1.940  25.187 -0.2090  0.0709 -0.0130
 2381DPPC   C3B50267  16.136   2.237  25.559  0.1646  0.0812  0.1482
 2381DPPC   C4B50268  16.070   2.738  25.622 -0.1862 -0.3397 -0.3027
 2382DPPC   NC350269  18.844   6.925  21.674  0.4117 -0.1588 -0.0334
 2382DPPC   PO450270  19.272   7.034  21.812  0.1722 -0.2217  0.1159
 2382DPPC   GL150271  19.390   6.649  21.633  0.0186 -0.2871  0.0408
 2382DPPC   GL250272  19.706   6.742  21.711  0.0951  0.0184  0.1028
 2382DPPC   C1A50273  19.167   6.315  21.353  0.1843  0.2067  0.0348
 2382DPPC   C2A50274  19.343   5.913  21.136  0.3331  0.1116 -0.1428
 2382DPPC   C3A50275  19.326   5.825  20.746  0.0087 -0.1178  0.1464
 2382DPPC   C4A50276  19.446   6.099  20.409  0.1762 -0.2345 -0.2917
 2382DPPC   C1B50277  19.771   6.496  21.351  0.1381 -0.3657 -0.0602
 2382DPPC   C2B50278  19.901   6.190  21.149  0.1460 -0.0366  0.1464
 2382DPPC   C3B50279  19.830   5.966  20.762 -0.0324  0.0271 -0.2962
 2382DPPC   C4B50280  19.703   5.573  20.525  0.1848  0.2009  0.0289
 2383DPPC   NC350281  18.310  14.680  19.228  0.0338  0.1552  0.1573
 2383DPPC   PO450282  18.515  15.008  19.322 -0.1942  0.1801 -0.0610
 2383DPPC   GL150283  18.829  15.073  19.039  0.1759  0.1113 -0.1052
 2383DPPC   GL250284  19.126  14.929  19.062  0.0320  0.3326  0.1848
 2383DPPC   C1A50285  18.836  15.417  18.679 -0.1953  0.0102  0.0022
 2383DPPC   C2A50286  19.096  15.722  18.431  0.1425 -0.1167 -0.2707
 2383DPPC   C3A50287  19.254  16.024  18.275 -0.1404  0.1955 -0.1676
 2383DPPC   C4A50288  19.348  16.036  17.729  0.5517  0.1681 -0.3918
 2383DPPC   C1B50289  19.471  14.721  18.919  0.1429 -0.2017  0.1173
 2383DPPC   C2B50290  19.594  14.649  18.492 -0.0395  0.0700  0.0562
 2383DPPC   C3B50291  19.915  14.533  18.231 -0.1491 -0.1468  0.0683
 2383DPPC   C4B50292  19.960  14.399  17.854  0.1213 -0.0409 -0.1197
 2384DPPC   NC350293   7.217   8.465  39.388 -0.0505  0.2000  0.1603
 2384DPPC   PO450294   7.282   8.196  38.997  0.1936 -0.0937  0.2383
 2384DPPC   GL150295   7.601   8.257  38.703  0.0486 -0.2970  0.2007
 2384DPPC   GL250296   7.943   8.056  38.703 -0.3366  0.1847  0.0252
 2384DPPC   C1A50297   7.927   8.496  38.453  0.1261  0.0004  0.1103
 2384DPPC   C2A50298   7.916   8.507  37.977  0.1640 -0.1597  0.0518
 2384DPPC   C3A50299   7.902   8.899  37.704  0.2009 -0.0707 -0.0293
 2384DPPC   C4A50300   8.299   9.162  37.585  0.1933  0.0297  0.2519
 2384DPPC   C1B50301   8.287   8.310  38.827  0.0700  0.1156  0.0685
 2384DPPC   C2B50302   8.477   8.540  38.606  0.0271  0.0366  0.3174
 2384DPPC   C3B50303   8.760   8.861  38.347 -0.0309  0.0375 -0.2275
 2384DPPC   C4B50304   8.694   9.171  38.064 -0.0814 -0.1532  0.0787
 2385DPPC   NC350305  14.627  16.202  20.287 -0.0414 -0.1240 -0.0223
 2385DPPC   PO450306  14.852  15.834  20.188  0.1311 -0.0861 -0.3202
 2385DPPC   GL150307  14.610  15.779  19.845  0.1485 -0.1575 -0.0932
 2385DPPC   GL250308  14.464  15.497  19.898 -0.2834 -0.4938  0.0399
 2385DPPC   C1A50309  14.537  15.883  19.439  0.3359 -0.3068 -0.2601
 2385DPPC   C2A50310  14.585  16.257  19.186 -0.2236 -0.2481 -0.1316
 2385DPPC   C3A50311  14.615  16.384  18.785  0.2542  0.3069 -0.0021
 2385DPPC   C4A50312  14.524  15.980  18.471 -0.1383 -0.1635 -0.1415
 2385DPPC   C1B50313  14.020  15.431  19.673 -0.0872 -0.1097  0.2174
 2385DPPC   C2B50314  13.734  15.542  19.379  0.0779  0.0364 -0.0016
 2385DPPC   C3B50315  13.750  15.545  18.915  0.1583 -0.2857 -0.2479
 2385DPPC   C4B50316  13.921  15.827  18.662 -0.1730 -0.0124 -0.1033
 2386DPPC   NC350317  24.493   7.949  38.799  0.1418 -0.1793 -0.0333
 2386DPPC   PO450318  24.540   7.532  38.591 -0.0514  0.2562  0.0932
 2386DPPC   GL150319  24.422   7.780  38.256  0.2264 -0.1568 -0.1060
 2386DPPC   GL250320  24.535   7.703  37.919  0.0069  0.0042  0.2914
 2386DPPC   C1A50321  24.138   8.061  38.151 -0.0069  0.0119  0.2906
 2386DPPC   C2A50322  23.863   8.342  37.749  0.4393  0.0189  0.1005
 2386DPPC   C3A50323  23.655   8.678  37.571  0.2491  0.0537  0.2542
 2386DPPC   C4A50324  23.542   8.569  37.293  0.3173 -0.2328  0.3390
 2386DPPC   C1B50325  24.265   7.444  37.645 -0.3742 -0.1449 -0.2624
 2386DPPC   C2B50326  23.934   7.331  37.420  0.1733  0.2826  0.0695
 2386DPPC   C3B50327  23.707   7.021  37.290  0.3489  0.0919  0.0191
 2386DPPC   C4B50328  23.607   6.543  37.220  0.4500 -0.0022 -0.1453
 2387DPPC   NC350329  18.064  16.050  15.165 -0.3168  0.2544 -0.1554
 2387DPPC   PO450330  18.091  15.557  15.225  0.1443  0.4119 -0.1464
 2387DPPC   GL150331  17.921  15.359  15.670 -0.3724 -0.0882  0.1348
 2387DPPC   GL250332  18.350  15.316  15.681 -0.1181 -0.0221  0.0606
 2387DPPC   C1A50333  17.877  15.131  16.055  0.1921 -0.0907  0.0739
 2387DPPC   C2A50334  17.694  14.942  16.397  0.0691  0.0556  0.0364
 2387DPPC   C3A50335  17.891  14.628  16.746  0.1298 -0.1072 -0.2752
 2387DPPC   C4A50336  17.857  14.231  17.021  0.0250 -0.0126  0.0785
 2387DPPC   C1B50337  18.288  14.925  15.944  0.1403 -0.1836  0.4392
 2387DPPC   C2B50338  18.196  14.636  16.348  0.1207 -0.0063 -0.0234
 2387DPPC   C3B50339  18.210  14.286  16.644  0.1231  0.1004  0.3509
 2387DPPC   C4B50340  18.318  13.947  16.743 -0.4814  0.0947  0.0461
 2388DPPC   NC350341  26.310  11.640  37.201 -0.0828 -0.2796  0.0793
 2388DPPC   PO450342  26.281  11.979  37.544 -0.1820  0.1301  0.3488
 2388DPPC   GL150343  25.919  12.042  37.165  0.1943  0.2201 -0.0245
 2388DPPC   GL250344  25.730  11.690  37.192  0.0427 -0.4817 -0.0479
 2388DPPC   C1A50345  25.619  12.128  36.903  0.0123  0.2067 -0.2942
 2388DPPC   C2A50346  25.321  12.227  36.419 -0.0565  0.1544 -0.0135
 2388DPPC   C3A50347  25.367  12.420  35.978  0.0087  0.0400  0.1159
 2388DPPC   C4A50348  25.690  12.387  35.645 -0.3603  0.3534  0.0409
 2388DPPC   C1B50349  25.507  12.003  37.475  0.3322  0.0860 -0.3120
 2388DPPC   C2B50350  25.054  12.210  37.413  0.0758  0.5225  0.1309
 2388DPPC   C3B50351  24.647  12.288  37.263  0.0464 -0.3343  0.1513
 2388DPPC   C4B50352  24.305  12.572  37.194  0.0867  0.1725  0.5013
 2389DPPC   NC350353  19.502   1.356  34.790  0.2443 -0.0732  0.1417
 2389DPPC   PO450354  19.172   1.259  34.554 -0.0393 -0.0063  0.2120
 2389DPPC   GL150355  19.109   1.648  34.744  0.1002  0.0277  0.2465
 2389DPPC   GL250356  18.726   1.693  34.756 -0.1124 -0.1073  0.0399
 2389DPPC   C1A50357  19.247   2.080  34.792  0.2180 -0.1745 -0.2414
 2389DPPC   C2A50358  19.268   2.381  35.157  0.0700  0.0917  0.0795
 2389DPPC   C3A50359  19.149   2.786  35.108  0.3078 -0.0609 -0.1550
 2389DPPC   C4A50360  18.823   3.134  35.234  0.0919 -0.0974  0.1346
 2389DPPC   C1B50361  18.802   2.138  34.635  0.1031 -0.1901  0.0587
 2389DPPC   C2B50362  18.929   2.601  34.688  0.0089  0.2197 -0.3270
 2389DPPC   C3B50363  18.938   3.066  34.670  0.3511  0.1217  0.0344
 2389DPPC   C4B50364  18.758   3.501  34.641  0.1897 -0.1900  0.0424
 2390DPPC   NC350365   9.399  23.566  25.144 -0.0540 -0.0022 -0.0115
 2390DPPC   PO450366   9.048  23.346  24.982 -0.0582 -0.0094 -0.3742
 2390DPPC   GL150367   9.187  22.942  25.078  0.0262  0.3603  0.1109
 2390DPPC   GL250368   9.064  22.754  25.284 -0.2248 -0.0476 -0.2074
 2390DPPC   C1A50369   9.598  22.733  25.015 -0.0449  0.0523  0.0088
 2390DPPC   C2A50370   9.886  22.412  25.001  0.2621  0.1988 -0.1965
 2390DPPC   C3A50371  10.045  22.046  25.342  0.0079 -0.1838 -0.0848
 2390DPPC   C4A50372  10.339  21.733  25.470 -0.0950 -0.2237 -0.0017
 2390DPPC   C1B50373   9.345  22.441  25.399 -0.1502  0.0408  0.2347
 2390DPPC   C2B50374   9.552  22.052  25.609 -0.2966 -0.4239 -0.2170
 2390DPPC   C3B50375   9.831  21.730  25.659  0.1037 -0.0156 -0.0556
 2390DPPC   C4B50376  10.149  21.658  25.890 -0.0294 -0.0333  0.0600
 2391DPPC   NC350377  17.933  10.578  14.371  0.1843  0.1152 -0.0330
 2391DPPC   PO450378  17.919  10.382  14.760  0.1967  0.0431 -0.1846
 2391DPPC   GL150379  18.000  10.601  15.129 -0.1202 -0.3028 -0.1319
 2391DPPC   GL250380  17.832  10.815  15.400 -0.0583 -0.0763  0.3512
 2391DPPC   C1A50381  18.112  10.516  15.664  0.1981 -0.0498 -0.1456
 2391DPPC   C2A50382  18.167  10.674  15.963 -0.2182  0.2968 -0.0897
 2391DPPC   C3A50383  18.163  10.790  16.427 -0.2186  0.1055 -0.2054
 2391DPPC   C4A50384  18.066  10.823  16.952  0.1994  0.0217  0.0933
 2391DPPC   C1B50385  17.969  11.182  15.626 -0.2960  0.2445  0.0834
 2391DPPC   C2B50386  17.970  11.498  15.881 -0.0242  0.0594 -0.1062
 2391DPPC   C3B50387  18.195  11.491  16.246 -0.0210  0.0113  0.1684
 2391DPPC   C4B50388  18.074  11.339  16.706  0.0314 -0.2304 -0.0966
 2392DPPC   NC350389  19.536  15.967  22.985  0.3346 -0.1710  0.0990
 2392DPPC   PO450390  19.721  16.190  23.361 -0.2945 -0.2353  0.2154
 2392DPPC   GL150391  20.033  16.550  23.533  0.0573  0.3528  0.3780
 2392DPPC   GL250392  20.139  16.524  23.914  0.1608  0.1038 -0.4574
 2392DPPC   C1A50393  20.138  16.961  23.557 -0.0107  0.0408  0.0320
 2392DPPC   C2A50394  20.528  17.202  23.586 -0.1140 -0.2732 -0.1321
 2392DPPC   C3A50395  20.758  17.441  23.881  0.0821 -0.0256  0.1919
 2392DPPC   C4A50396  20.766  17.824  23.995  0.1256 -0.0250 -0.1240
 2392DPPC   C1B50397  20.459  16.603  24.271  0.1500 -0.0356  0.2072
 2392DPPC   C2B50398  20.763  16.509  24.650  0.2476  0.0180  0.3222
 2392DPPC   C3B50399  20.959  16.741  24.958  0.2776  0.0835 -0.5721
 2392DPPC   C4B50400  21.294  16.984  25.271  0.1611 -0.1726 -0.1185
 2393DPPC   NC350401  22.550  20.327  37.562 -0.1208  0.2047 -0.0310
 2393DPPC   PO450402  22.227  20.655  37.452 -0.1691  0.0298 -0.0546
 2393DPPC   GL150403  21.995  20.398  37.181 -0.0317 -0.3861 -0.1075
 2393DPPC   GL250404  22.196  20.084  37.279 -0.0416  0.2519  0.0245
 2393DPPC   C1A50405  21.590  20.248  37.096 -0.0643  0.2293 -0.2511
 2393DPPC   C2A50406  21.220  20.046  36.852  0.2201 -0.1233 -0.1535
 2393DPPC   C3A50407  21.013  19.743  36.939  0.4615  0.1341 -0.0547
 2393DPPC   C4A50408  20.834  19.342  36.843  0.0570  0.2043  0.0453
 2393DPPC   C1B50409  21.965  19.847  36.993 -0.0351  0.2015  0.2215
 2393DPPC   C2B50410  21.930  19.570  36.580 -0.2407  0.1198 -0.0767
 2393DPPC   C3B50411  21.764  19.167  36.438 -0.0830  0.1949 -0.1621
 2393DPPC   C4B50412  21.414  18.892  36.256 -0.0387 -0.1114 -0.1552
 2394DPPC   NC350413  23.546   8.614  18.047  0.0514 -0.2924 -0.0096
 2394DPPC   PO450414  23.534   8.752  17.459 -0.1370 -0.1366 -0.5159
 2394DPPC   GL150415  23.099   8.974  17.542  0.4083  0.1367  0.0760
 2394DPPC   GL250416  23.090   8.783  17.830 -0.3738  0.0140  0.0327
 2394DPPC   C1A50417  22.723   9.108  17.769  0.2074  0.0022  0.2165
 2394DPPC   C2A50418  22.489   9.258  18.065  0.3205  0.1766 -0.0945
 2394DPPC   C3A50419  22.479   9.350  18.472 -0.0755  0.2381  0.0741
 2394DPPC   C4A50420  22.454   9.315  18.942  0.0324 -0.0759  0.3926
 2394DPPC   C1B50421  22.861   8.884  18.200  0.0412  0.1139 -0.0360
 2394DPPC   C2B50422  22.551   8.878  18.547 -0.0705  0.1242 -0.1008
 2394DPPC   C3B50423  22.381   8.873  19.002 -0.1679  0.2125  0.1496
 2394DPPC   C4B50424  22.393   8.872  19.368 -0.1319  0.2780  0.0747
 2395DPPC   NC350425  19.865  11.724  19.534 -0.2044 -0.3125  0.1887
 2395DPPC   PO450426  19.851  11.670  19.175 -0.0784 -0.3196 -0.0958
 2395DPPC   GL150427  19.641  11.612  18.763 -0.3981 -0.0018 -0.0826
 2395DPPC   GL250428  19.884  11.648  18.511 -0.0764  0.1052 -0.1875
 2395DPPC   C1A50429  19.507  11.295  18.388 -0.2707  0.0999 -0.1892
 2395DPPC   C2A50430  19.527  11.326  18.017  0.1377  0.2843 -0.3339
 2395DPPC   C3A50431  19.257  11.177  17.699 -0.0058  0.0119 -0.2400
 2395DPPC   C4A50432  19.222  10.854  17.449 -0.1989 -0.0126  0.3490
 2395DPPC   C1B50433  19.926  11.593  18.070  0.1938  0.2851 -0.2845
 2395DPPC   C2B50434  19.784  11.570  17.616  0.0136  0.1217 -0.1414
 2395DPPC   C3B50435  19.693  11.615  17.183 -0.1888 -0.0052  0.1617
 2395DPPC   C4B50436  19.359  11.648  16.871 -0.1900  0.0304  0.1508
 2396DPPC   NC350437  12.680  23.771  37.011 -0.2298 -0.1057  0.0692
 2396DPPC   PO450438  12.577  23.693  36.613 -0.0264 -0.0828  0.0193
 2396DPPC   GL150439  12.454  23.463  36.223  0.7595 -0.4479 -0.1346
 2396DPPC   GL250440  12.677  23.432  35.945  0.0888  0.1135 -0.4366
 2396DPPC   C1A50441  12.394  23.051  35.979  0.1019 -0.1061  0.0616
 2396DPPC   C2A50442  12.572  22.646  35.837  0.1230  0.2167  0.1525
 2396DPPC   C3A50443  12.722  22.300  35.533  0.1099 -0.0009 -0.0037
 2396DPPC   C4A50444  12.993  22.228  35.238 -0.0502 -0.0376 -0.0347
 2396DPPC   C1B50445  12.592  23.152  35.531  0.0561 -0.2281 -0.0080
 2396DPPC   C2B50446  12.912  22.804  35.408 -0.1249 -0.3032  0.1856
 2396DPPC   C3B50447  13.264  22.671  35.215  0.5438 -0.2706 -0.1710
 2396DPPC   C4B50448  13.609  22.656  35.117 -0.1802  0.2912 -0.1620
 2397DPPC   NC350449  17.926  18.010  21.116  0.1075 -0.2322 -0.0665
 2397DPPC   PO450450  18.031  17.609  21.015  0.1078  0.1561  0.0102
 2397DPPC   GL150451  18.494  17.694  21.030 -0.3204 -0.3133 -0.2984
 2397DPPC   GL250452  18.682  17.380  21.057  0.3822 -0.2631  0.1761
 2397DPPC   C1A50453  18.877  17.837  21.035  0.4722  0.0357  0.2138
 2397DPPC   C2A50454  19.169  18.095  20.912  0.1626  0.2667  0.1679
 2397DPPC   C3A50455  19.240  18.582  20.942 -0.2094 -0.0308 -0.0486
 2397DPPC   C4A50456  19.297  18.891  21.162  0.1174  0.0131  0.1362
 2397DPPC   C1B50457  18.954  17.431  20.764 -0.0183 -0.1241 -0.0129
 2397DPPC   C2B50458  19.199  17.694  20.579  0.0192  0.1730 -0.0159
 2397DPPC   C3B50459  19.341  18.003  20.311  0.1836  0.1706 -0.2724
 2397DPPC   C4B50460  19.548  18.330  19.976 -0.0093  0.3378  0.0432
 2398DPPC   NC350461  10.071  25.074  29.963  0.1605 -0.2395  0.2835
 2398DPPC   PO450462  10.239  24.943  29.598  0.0047  0.3242 -0.0019
 2398DPPC   GL150463  10.213  24.409  29.422 -0.2254  0.1443  0.0627
 2398DPPC   GL250464  10.011  24.214  29.615 -0.2971  0.2130  0.3115
 2398DPPC   C1A50465  10.608  24.170  29.645  0.0416 -0.2402  0.0721
 2398DPPC   C2A50466  10.805  23.849  29.392 -0.0222  0.0578  0.2312
 2398DPPC   C3A50467  10.869  23.457  29.434 -0.1393 -0.0019 -0.0194
 2398DPPC   C4A50468  10.994  22.949  29.416  0.0918  0.0920  0.3039
 2398DPPC   C1B50469  10.243  23.896  29.437 -0.0452  0.1114 -0.1144
 2398DPPC   C2B50470  10.136  23.489  29.426  0.0574 -0.0318 -0.0029
 2398DPPC   C3B50471  10.374  23.092  29.366  0.0891  0.0465  0.2754
 2398DPPC   C4B50472  10.563  22.706  29.451 -0.1233  0.0579  0.1509
 2399DPPC   NC350473  23.752   6.433  39.041 -0.2629  0.4436  0.1971
 2399DPPC   PO450474  23.948   6.738  38.760  0.0089 -0.2204 -0.2916
 2399DPPC   GL150475  23.573   6.708  38.526  0.2120  0.0977  0.2707
 2399DPPC   GL250476  23.393   6.494  38.517 -0.0557 -0.2345  0.2458
 2399DPPC   C1A50477  23.338   6.964  38.273 -0.2304 -0.0506  0.2801
 2399DPPC   C2A50478  23.083   7.263  38.017 -0.1481  0.2198 -0.0748
 2399DPPC   C3A50479  23.193   7.714  37.893  0.4619 -0.0481  0.0001
 2399DPPC   C4A50480  23.354   8.199  37.762  0.0043  0.0449  0.2044
 2399DPPC   C1B50481  23.075   6.584  38.104  0.0108 -0.1527 -0.0848
 2399DPPC   C2B50482  22.866   6.844  37.802 -0.0713 -0.0401  0.2010
 2399DPPC   C3B50483  22.857   7.185  37.577 -0.1273  0.0567 -0.1050
 2399DPPC   C4B50484  22.795   7.309  37.233 -0.0803  0.1073 -0.4984
 2400DPPC   NC350485  24.855   3.049  32.336 -0.2324 -0.1940 -0.1495
 2400DPPC   PO450486  24.795   3.377  31.919  0.0927 -0.0598 -0.1761
 2400DPPC   GL150487  24.480   3.779  31.952  0.0828 -0.0257 -0.0488
 2400DPPC   GL250488  24.238   3.892  31.789 -0.0147  0.2718 -0.0752
 2400DPPC   C1A50489  24.490   4.140  32.218  0.0297  0.6109  0.1462
 2400DPPC   C2A50490  24.566   4.525  32.188 -0.2236  0.3411 -0.0029
 2400DPPC   C3A50491  24.414   4.848  32.365 -0.1749  0.1517  0.0955
 2400DPPC   C4A50492  24.190   5.275  32.479  0.4242 -0.2188 -0.2182
 2400DPPC   C1B50493  23.827   4.112  31.654  0.1843  0.3923 -0.1526
 2400DPPC   C2B50494  23.556   4.337  31.530  0.1269 -0.0403  0.0333
 2400DPPC   C3B50495  23.205   4.664  31.537 -0.1655 -0.0407 -0.2956
 2400DPPC   C4B50496  22.819   4.638  31.171  0.1047 -0.0617  0.1497
 2401DPPC   NC350497  21.017  14.214  24.128  0.1463  0.1246  0.0950
 2401DPPC   PO450498  21.276  14.222  23.793 -0.0405 -0.0519 -0.1711
 2401DPPC   GL150499  21.641  14.426  23.849 -0.0242 -0.0242  0.1079
 2401DPPC   GL250500  21.661  14.653  23.600  0.0105 -0.1783 -0.0435
 2401DPPC   C1A50501  21.932  14.702  24.149  0.0789  0.2738  0.1000
 2401DPPC   C2A50502  22.209  14.833  24.363 -0.0119  0.1025 -0.0517
 2401DPPC   C3A50503  22.342  15.091  24.477  0.1594 -0.5917 -0.1950
 2401DPPC   C4A50504  22.542  15.395  24.774 -0.1260 -0.0960 -0.3781
 2401DPPC   C1B50505  21.843  14.991  23.656 -0.0539 -0.3464 -0.1113
 2401DPPC   C2B50506  21.827  15.403  23.482  0.1440 -0.1364 -0.0561
 2401DPPC   C3B50507  21.778  15.710  23.199  0.0482 -0.0027  0.1034
 2401DPPC   C4B50508  21.766  16.144  23.121  0.0002  0.0994  0.0428
 2402DPPC   NC350509  19.697  10.585  19.951 -0.1476 -0.2458  0.0601
 2402DPPC   PO450510  19.737  10.394  19.487  0.0275  0.1468  0.0464
 2402DPPC   GL150511  19.933  10.118  19.258  0.2025 -0.0565 -0.0337
 2402DPPC   GL250512  20.139  10.232  19.007 -0.1276 -0.5126 -0.0317
 2402DPPC   C1A50513  19.740  10.003  18.809  0.3521 -0.0963  0.1163
 2402DPPC   C2A50514  19.944   9.915  18.434  0.2618  0.1443  0.0945
 2402DPPC   C3A50515  20.266   9.942  18.161 -0.5475 -0.4064 -0.1650
 2402DPPC   C4A50516  20.653   9.811  17.980 -0.3211  0.2353  0.1677
 2402DPPC   C1B50517  20.595  10.129  19.110 -0.3500  0.2585  0.1419
 2402DPPC   C2B50518  20.915  10.066  18.915 -0.0034 -0.1299 -0.0859
 2402DPPC   C3B50519  21.138   9.968  18.499  0.3053  0.2032  0.3908
 2402DPPC   C4B50520  21.058  10.108  18.125 -0.1512  0.1298  0.0948
 2403DPPC   NC350521  20.489  13.901  20.046 -0.1178 -0.2011  0.2048
 2403DPPC   PO450522  20.806  13.832  20.337 -0.1064 -0.1761 -0.1527
 2403DPPC   GL150523  21.113  14.132  20.356 -0.0473  0.0659  0.1564
 2403DPPC   GL250524  20.903  14.251  20.050 -0.0362  0.3382 -0.0244
 2403DPPC   C1A50525  21.388  14.449  20.166  0.0859  0.3117 -0.1129
 2403DPPC   C2A50526  21.762  14.565  20.187 -0.0834 -0.1615  0.2138
 2403DPPC   C3A50527  22.189  14.372  20.325  0.4438  0.0170 -0.0099
 2403DPPC   C4A50528  22.572  14.265  20.067  0.0148 -0.1630 -0.2708
 2403DPPC   C1B50529  20.718  14.419  19.748 -0.4213  0.0153 -0.0701
 2403DPPC   C2B50530  20.888  14.485  19.295  0.1063  0.0907  0.0205
 2403DPPC   C3B50531  21.263  14.436  18.987  0.0688  0.2649 -0.1771
 2403DPPC   C4B50532  21.608  14.389  18.822  0.2697 -0.1315 -0.0104
 2404DPPC   NC350533   0.316   7.932  28.716 -0.0249  0.0168 -0.1599
 2404DPPC   PO450534   0.372   8.278  29.083 -0.1152 -0.0094  0.0656
 2404DPPC   GL150535  26.989   8.268  28.981 -0.1912 -0.0673 -0.0655
 2404DPPC   GL250536  26.934   8.533  29.085 -0.2530  0.0627 -0.1009
 2404DPPC   C1A50537  26.500   8.222  29.010  0.0078 -0.3079 -0.3352
 2404DPPC   C2A50538  26.141   8.108  29.024 -0.2042 -0.0232  0.3268
 2404DPPC   C3A50539  25.713   8.092  29.384  0.0711  0.2959 -0.4796
 2404DPPC   C4A50540  25.248   8.235  29.390 -0.1570 -0.1925  0.1019
 2404DPPC   C1B50541  26.575   8.764  29.315  0.0583 -0.1716  0.0304
 2404DPPC   C2B50542  26.238   8.894  29.318  0.0182 -0.3097 -0.0831
 2404DPPC   C3B50543  26.022   9.157  29.066  0.1257  0.2368  0.0043
 2404DPPC   C4B50544  25.930   9.446  28.681  0.0461 -0.2881  0.0185
 2405DPPC   NC350545   4.908  12.555  37.541 -0.3017 -0.0640  0.0868
 2405DPPC   PO450546   4.551  12.473  37.201 -0.0122 -0.2496  0.3038
 2405DPPC   GL150547   4.702  12.194  36.870  0.2213 -0.2571  0.0894
 2405DPPC   GL250548   4.930  11.905  36.880  0.0503  0.2370 -0.0009
 2405DPPC   C1A50549   4.946  12.231  36.494 -0.3651  0.0034  0.0469
 2405DPPC   C2A50550   5.385  12.401  36.156  0.1224  0.2192 -0.1104
 2405DPPC   C3A50551   5.761  12.543  36.277  0.3469  0.3351 -0.1923
 2405DPPC   C4A50552   6.015  12.664  36.063 -0.1405  0.1450 -0.4096
 2405DPPC   C1B50553   5.328  11.975  36.558 -0.0824 -0.0291  0.1285
 2405DPPC   C2B50554   5.687  12.146  36.548 -0.1217  0.1902 -0.1985
 2405DPPC   C3B50555   6.078  12.083  36.400 -0.1381  0.0186  0.2484
 2405DPPC   C4B50556   6.301  11.826  36.393  0.1374  0.1039  0.1652
 2406DPPC   NC350557  14.458   4.730  41.493 -0.0403  0.3605  0.1096
 2406DPPC   PO450558  14.206   5.040  41.411 -0.3109  0.2111 -0.3068
 2406DPPC   GL150559  14.308   5.353  41.193  0.3275 -0.3069 -0.0114
 2406DPPC   GL250560  14.324   5.695  41.399 -0.0591  0.3644  0.3357
 2406DPPC   C1A50561  14.666   5.553  40.953 -0.1935 -0.2131  0.0408
 2406DPPC   C2A50562  14.906   5.640  40.656  0.0303  0.0331  0.0933
 2406DPPC   C3A50563  14.946   5.796  40.174  0.2488 -0.1341 -0.4009
 2406DPPC   C4A50564  15.057   5.931  39.768 -0.1608 -0.0215  0.0484
 2406DPPC   C1B50565  14.254   5.802  41.024  0.0754  0.2044 -0.2189
 2406DPPC   C2B50566  14.436   5.917  40.619  0.3505  0.0739  0.1336
 2406DPPC   C3B50567  14.693   6.198  40.470  0.0915  0.0046  0.2572
 2406DPPC   C4B50568  14.849   6.305  40.075 -0.0694  0.2068 -0.2981
 2407DPPC   NC350569   4.281   8.706  33.837  0.2743 -0.2642  0.0072
 2407DPPC   PO450570   4.207   8.969  34.211  0.1718  0.3100 -0.1205
 2407DPPC   GL150571   4.657   9.067  34.345 -0.1484  0.1698 -0.1385
 2407DPPC   GL250572   4.801   9.364  34.376 -0.2958  0.0028 -0.0870
 2407DPPC   C1A50573   5.002   8.882  34.150 -0.0292  0.1965  0.3102
 2407DPPC   C2A50574   5.505   8.875  34.031  0.0267  0.2947 -0.0258
 2407DPPC   C3A50575   5.684   9.171  33.700 -0.0584 -0.0848  0.0738
 2407DPPC   C4A50576   5.955   9.267  33.238 -0.1425 -0.2620 -0.0578
 2407DPPC   C1B50577   5.289   9.423  34.206 -0.0708  0.1455 -0.0017
 2407DPPC   C2B50578   5.667   9.398  34.215 -0.0077 -0.1433 -0.0099
 2407DPPC   C3B50579   5.925   9.558  33.860 -0.1410 -0.0890 -0.0681
 2407DPPC   C4B50580   6.293   9.629  33.540 -0.0919 -0.0136 -0.1918
 2408DPPC   NC350581  18.459  11.354  23.991 -0.0088 -0.0138  0.1244
 2408DPPC   PO450582  18.552  11.229  24.338 -0.3070 -0.6143 -0.1056
 2408DPPC   GL150583  18.520  11.410  24.732 -0.2381 -0.0335 -0.2371
 2408DPPC   GL250584  18.509  11.457  25.021  0.1089  0.1201  0.0062
 2408DPPC   C1A50585  18.535  11.890  24.702 -0.1002 -0.0274  0.1023
 2408DPPC   C2A50586  18.388  12.108  24.875  0.0917 -0.0832  0.0078
 2408DPPC   C3A50587  18.515  12.402  25.164  0.1611 -0.2344  0.3186
 2408DPPC   C4A50588  18.822  12.742  25.204 -0.2220  0.2305  0.0912
 2408DPPC   C1B50589  18.235  11.729  25.164 -0.2048 -0.2289  0.1051
 2408DPPC   C2B50590  18.087  12.063  25.414 -0.0986  0.0530 -0.3580
 2408DPPC   C3B50591  17.834  12.484  25.428 -0.2676  0.0503  0.0071
 2408DPPC   C4B50592  17.621  12.727  25.664  0.1005 -0.3604  0.0662
 2409DPPC   NC350593  18.262  16.962  21.359 -0.1007  0.0942  0.1149
 2409DPPC   PO450594  18.250  17.163  20.951 -0.1720  0.2398 -0.1134
 2409DPPC   GL150595  18.380  17.402  20.663  0.2550  0.0343  0.1933
 2409DPPC   GL250596  18.181  17.460  20.469 -0.0948 -0.3605  0.4338
 2409DPPC   C1A50597  18.688  17.674  20.502  0.1852 -0.2022 -0.0788
 2409DPPC   C2A50598  18.847  18.087  20.503 -0.0735 -0.0179 -0.2821
 2409DPPC   C3A50599  19.162  18.429  20.454 -0.0234 -0.2649  0.1642
 2409DPPC   C4A50600  19.527  18.623  20.404  0.4479  0.1627  0.2014
 2409DPPC   C1B50601  18.167  17.712  20.234 -0.2225  0.0345 -0.1792
 2409DPPC   C2B50602  18.152  17.946  19.838  0.2231 -0.0208  0.1538
 2409DPPC   C3B50603  17.929  18.217  19.487 -0.0577  0.0434  0.1186
 2409DPPC   C4B50604  18.046  18.467  19.228  0.0926 -0.1879  0.0285
 2410DPPC   NC350605  17.155  20.011  41.024  0.1630  0.1073  0.3451
 2410DPPC   PO450606  16.733  20.294  41.015 -0.1771  0.2399  0.2174
 2410DPPC   GL150607  16.566  19.893  40.839 -0.2813  0.1421  0.0061
 2410DPPC   GL250608  16.437  20.046  40.541  0.1463  0.2159 -0.1376
 2410DPPC   C1A50609  16.485  19.486  40.581 -0.1842  0.0991  0.3598
 2410DPPC   C2A50610  16.387  19.088  40.358 -0.1979 -0.2303  0.3345
 2410DPPC   C3A50611  16.467  18.673  40.344  0.3432  0.2493 -0.1964
 2410DPPC   C4A50612  16.583  18.284  40.186 -0.1362 -0.0920  0.2425
 2410DPPC   C1B50613  16.173  20.044  40.132  0.1043 -0.1314  0.0918
 2410DPPC   C2B50614  16.295  19.870  39.772 -0.3392 -0.0618 -0.1314
 2410DPPC   C3B50615  16.407  19.617  39.442 -0.2892  0.0638  0.0694
 2410DPPC   C4B50616  16.165  19.233  39.473 -0.3893 -0.1026 -0.1972
 2411DPPC   NC350617  20.427   6.973  16.775  0.4529 -0.1858  0.0054
 2411DPPC   PO450618  20.389   7.412  16.694  0.0585 -0.1232 -0.0617
 2411DPPC   GL150619  20.218   7.701  16.973  0.0616  0.0799 -0.0006
 2411DPPC   GL250620  20.429   8.050  16.869  0.3568  0.1310 -0.1456
 2411DPPC   C1A50621  20.083   8.021  17.288  0.3750  0.1862 -0.0059
 2411DPPC   C2A50622  20.046   8.175  17.633 -0.0373 -0.0840 -0.1025
 2411DPPC   C3A50623  19.831   8.437  17.960 -0.0057 -0.3731  0.0202
 2411DPPC   C4A50624  19.996   8.661  18.379  0.0357  0.0870  0.2111
 2411DPPC   C1B50625  20.524   8.240  17.251  0.2356 -0.0792  0.0624
 2411DPPC   C2B50626  20.470   8.365  17.675 -0.0695 -0.1806 -0.1296
 2411DPPC   C3B50627  20.278   8.646  17.975  0.1770 -0.2447  0.1944
 2411DPPC   C4B50628  20.151   9.002  18.034 -0.2307 -0.1608 -0.2461
 2412DPPC   NC350629  20.144   6.868  42.465  0.0224  0.0848 -0.2390
 2412DPPC   PO450630  20.312   6.931  42.050 -0.2092  0.1943 -0.0710
 2412DPPC   GL150631  20.245   7.114  41.675 -0.0456  0.0193 -0.1648
 2412DPPC   GL250632  20.090   7.031  41.415 -0.2201  0.1255 -0.0575
 2412DPPC   C1A50633  20.377   7.299  41.152  0.1611 -0.2417  0.0708
 2412DPPC   C2A50634  20.204   7.687  40.824 -0.0614  0.1106 -0.2052
 2412DPPC   C3A50635  19.760   7.987  40.628  0.2931  0.2630 -0.0324
 2412DPPC   C4A50636  19.504   8.027  40.345 -0.1539 -0.0236 -0.2640
 2412DPPC   C1B50637  19.796   7.017  41.035 -0.1372 -0.0382 -0.0169
 2412DPPC   C2B50638  19.692   7.122  40.537  0.2203 -0.4313 -0.2830
 2412DPPC   C3B50639  19.431   7.190  40.177 -0.1727  0.0148 -0.3823
 2412DPPC   C4B50640  19.434   7.434  39.749 -0.0152 -0.3163  0.0997
 2413DPPC   NC350641  10.257   9.444  42.520  0.0185 -0.0631  0.1022
 2413DPPC   PO450642  10.678   9.375  42.565 -0.1304 -0.1336  0.0053
 2413DPPC   GL150643  10.849   9.407  42.212 -0.0127  0.0571 -0.3141
 2413DPPC   GL250644  10.704   9.721  42.161 -0.1528  0.0266  0.1788
 2413DPPC   C1A50645  10.963   9.329  41.836  0.0394  0.0859  0.0208
 2413DPPC   C2A50646  10.998   9.666  41.505  0.2883 -0.1552 -0.1408
 2413DPPC   C3A50647  10.928   9.679  41.141  0.0970 -0.1006 -0.0821
 2413DPPC   C4A50648  10.934   9.286  40.928 -0.0619  0.2241 -0.0069
 2413DPPC   C1B50649  10.502  10.129  42.016 -0.3237  0.0013 -0.1730
 2413DPPC   C2B50650  10.189  10.180  41.803 -0.0852  0.0713 -0.0531
 2413DPPC   C3B50651  10.046   9.922  41.542 -0.0198 -0.0263  0.0740
 2413DPPC   C4B50652  10.028   9.410  41.623 -0.4924  0.3125  0.2239
 2414DPPC   NC350653  22.382  20.561  23.494 -0.3180  0.0108 -0.0380
 2414DPPC   PO450654  22.318  20.156  23.371 -0.2166 -0.0889  0.2023
 2414DPPC   GL150655  21.793  20.120  23.532 -0.3254  0.3673 -0.0916
 2414DPPC   GL250656  21.614  20.364  23.693  0.2105 -0.0805 -0.0940
 2414DPPC   C1A50657  21.305  19.922  23.585 -0.1774 -0.1328 -0.3354
 2414DPPC   C2A50658  21.064  19.635  23.541 -0.3278 -0.0900  0.0661
 2414DPPC   C3A50659  20.611  19.436  23.604  0.2326  0.0938  0.2283
 2414DPPC   C4A50660  20.153  19.452  23.485 -0.3086  0.2897 -0.1513
 2414DPPC   C1B50661  21.516  20.201  24.033 -0.1019  0.0021  0.0132
 2414DPPC   C2B50662  21.354  19.779  24.113 -0.2344 -0.1284  0.3981
 2414DPPC   C3B50663  21.308  19.340  23.961 -0.1468  0.1609 -0.2931
 2414DPPC   C4B50664  21.082  19.075  23.608  0.5101  0.1046 -0.2598
 2415DPPC   NC350665  23.294   1.864  27.398 -0.0761 -0.4581  0.1793
 2415DPPC   PO450666  23.770   1.922  27.510 -0.3043 -0.0248  0.3228
 2415DPPC   GL150667  23.524   2.244  27.642  0.4354 -0.0049  0.2326
 2415DPPC   GL250668  23.118   2.248  27.609  0.0574 -0.3133 -0.3698
 2415DPPC   C1A50669  23.380   2.612  27.858 -0.1802  0.2441  0.3396
 2415DPPC   C2A50670  23.179   2.963  27.833 -0.2902  0.1800 -0.0435
 2415DPPC   C3A50671  23.072   3.240  27.775  0.0993  0.0894  0.2738
 2415DPPC   C4A50672  23.061   3.712  27.888 -0.2687 -0.5533  0.2067
 2415DPPC   C1B50673  22.739   2.523  27.748 -0.2980  0.4858  0.1135
 2415DPPC   C2B50674  22.400   2.560  27.942 -0.1368 -0.4249 -0.3111
 2415DPPC   C3B50675  21.994   2.547  27.977 -0.0332 -0.3358 -0.0204
 2415DPPC   C4B50676  21.542   2.615  27.933  0.1223  0.0453 -0.1182
 2416DPPC   NC350677  13.025  25.114  27.173  0.2966  0.1242 -0.1524
 2416DPPC   PO450678  12.688  24.826  27.201  0.3526 -0.0109  0.0205
 2416DPPC   GL150679  12.485  24.299  27.258  0.2416 -0.4000 -0.0973
 2416DPPC   GL250680  12.633  24.105  27.490  0.2394  0.1967  0.3939
 2416DPPC   C1A50681  12.359  23.931  27.064  0.0872  0.0009  0.0143
 2416DPPC   C2A50682  12.599  23.555  27.129  0.1839 -0.0819 -0.0069
 2416DPPC   C3A50683  12.821  23.174  27.169 -0.3042 -0.0768  0.0652
 2416DPPC   C4A50684  12.832  22.833  27.399 -0.0671 -0.1472  0.0596
 2416DPPC   C1B50685  12.864  23.668  27.622 -0.0165 -0.1790  0.0686
 2416DPPC   C2B50686  13.298  23.372  27.469  0.0748 -0.0486  0.2434
 2416DPPC   C3B50687  13.516  23.022  27.456  0.1351  0.1255  0.3556
 2416DPPC   C4B50688  13.469  22.687  27.315 -0.1251 -0.0024  0.0836
 2417DPPC   NC350689  15.274  20.146  17.737 -0.0791 -0.1505  0.4181
 2417DPPC   PO450690  15.577  20.617  17.896  0.0584 -0.4197 -0.2550
 2417DPPC   GL150691  15.610  20.256  18.071 -0.0410 -0.0668 -0.1673
 2417DPPC   GL250692  15.264  20.090  18.295  0.1894  0.0537  0.3637
 2417DPPC   C1A50693  15.781  19.728  18.202  0.1059 -0.0388 -0.0700
 2417DPPC   C2A50694  15.894  19.328  18.467 -0.1967  0.1272 -0.2064
 2417DPPC   C3A50695  15.866  18.918  18.765  0.1349 -0.1831  0.1890
 2417DPPC   C4A50696  16.173  18.593  18.728 -0.1630 -0.1008 -0.0408
 2417DPPC   C1B50697  15.021  19.845  18.597  0.1878  0.1458  0.3771
 2417DPPC   C2B50698  15.026  19.508  18.836 -0.0678  0.2977 -0.0385
 2417DPPC   C3B50699  14.834  19.173  19.034  0.2650 -0.0115  0.1711
 2417DPPC   C4B50700  14.895  18.889  19.360 -0.0519 -0.0632 -0.1698
 2418DPPC   NC350701  17.405  23.504  36.547 -0.3286 -0.2653 -0.0078
 2418DPPC   PO450702  17.565  23.557  36.175  0.0936 -0.1873 -0.1313
 2418DPPC   GL150703  17.600  23.125  36.183  0.1660 -0.0230 -0.2013
 2418DPPC   GL250704  17.789  22.886  36.034 -0.0535 -0.0643  0.4431
 2418DPPC   C1A50705  17.184  22.966  36.300 -0.2378 -0.1235  0.2201
 2418DPPC   C2A50706  17.004  22.619  36.308  0.0527 -0.0508  0.1584
 2418DPPC   C3A50707  16.677  22.383  36.181 -0.1531  0.1549 -0.0479
 2418DPPC   C4A50708  16.464  22.110  36.029 -0.0735 -0.2078  0.2377
 2418DPPC   C1B50709  17.418  22.639  35.871 -0.3174  0.2014  0.2902
 2418DPPC   C2B50710  17.036  22.557  35.811 -0.1032  0.3586 -0.1389
 2418DPPC   C3B50711  16.587  22.581  35.720  0.1550  0.3117  0.1305
 2418DPPC   C4B50712  16.369  22.238  35.545 -0.3414  0.2394  0.1135
 2419DPPC   NC350713  17.820   3.887  18.422  0.1268 -0.0323  0.1170
 2419DPPC   PO450714  17.681   3.772  18.806 -0.1603 -0.1052 -0.4365
 2419DPPC   GL150715  17.792   4.063  19.097 -0.0394 -0.3420  0.2466
 2419DPPC   GL250716  17.876   4.278  18.934  0.1078  0.0956  0.2791
 2419DPPC   C1A50717  17.794   4.293  19.463 -0.1764 -0.0379 -0.2907
 2419DPPC   C2A50718  17.951   4.456  19.874  0.0552 -0.0507 -0.4278
 2419DPPC   C3A50719  17.786   4.721  20.172 -0.1492 -0.0395  0.1579
 2419DPPC   C4A50720  17.812   5.026  20.454  0.1684  0.0697  0.2105
 2419DPPC   C1B50721  17.554   4.533  19.075  0.3581 -0.0241  0.1663
 2419DPPC   C2B50722  17.455   4.724  19.471  0.0701  0.3129  0.3107
 2419DPPC   C3B50723  17.423   4.907  19.867 -0.0514 -0.0257 -0.1313
 2419DPPC   C4B50724  17.529   5.273  20.108 -0.0220 -0.0629 -0.3009
 2420DPPC   NC350725  17.792  13.148  19.327 -0.4934 -0.1129 -0.0214
 2420DPPC   PO450726  17.970  13.392  18.966  0.2492 -0.0195  0.2870
 2420DPPC   GL150727  17.998  13.183  18.566  0.1233 -0.3188  0.1715
 2420DPPC   GL250728  17.792  13.029  18.250  0.2369 -0.1677 -0.0291
 2420DPPC   C1A50729  18.225  13.260  18.155  0.3572  0.0661  0.2545
 2420DPPC   C2A50730  18.293  13.126  17.711  0.0457 -0.5969  0.0932
 2420DPPC   C3A50731  18.556  13.102  17.437 -0.0454 -0.4599  0.2505
 2420DPPC   C4A50732  18.852  13.341  17.347 -0.0757 -0.0404 -0.2524
 2420DPPC   C1B50733  17.804  12.984  17.869 -0.1226  0.1090  0.1373
 2420DPPC   C2B50734  17.898  12.979  17.466 -0.1888  0.4120 -0.0521
 2420DPPC   C3B50735  17.801  13.086  16.962  0.0235  0.1239  0.1294
 2420DPPC   C4B50736  17.880  13.561  16.809  0.0162  0.2562  0.1732
 2421DPPC   NC350737  13.024  18.135  22.772  0.4284 -0.1458 -0.1117
 2421DPPC   PO450738  12.908  17.923  22.423 -0.0386  0.1147  0.1957
 2421DPPC   GL150739  12.850  18.341  22.318 -0.1859 -0.0501 -0.4963
 2421DPPC   GL250740  12.500  18.474  22.219  0.1665 -0.3129 -0.0919
 2421DPPC   C1A50741  12.943  18.669  22.031  0.1606  0.0196  0.1770
 2421DPPC   C2A50742  12.993  19.024  21.802 -0.1068 -0.3688  0.0438
 2421DPPC   C3A50743  13.038  19.426  21.683 -0.2613  0.0978  0.0240
 2421DPPC   C4A50744  13.090  19.766  21.626  0.0130  0.2552  0.1044
 2421DPPC   C1B50745  12.398  18.763  21.918 -0.4775 -0.2029 -0.1411
 2421DPPC   C2B50746  12.154  19.077  21.654 -0.0175  0.1754  0.0111
 2421DPPC   C3B50747  12.050  19.573  21.605 -0.2277 -0.0967 -0.2842
 2421DPPC   C4B50748  11.959  20.015  21.700 -0.0346  0.1474  0.2103
 2422DPPC   NC350749  19.843  15.516  21.938 -0.1198 -0.3323  0.0367
 2422DPPC   PO450750  20.255  15.414  21.877 -0.4042 -0.1989 -0.0017
 2422DPPC   GL150751  20.456  15.913  21.795  0.1168  0.0879  0.2206
 2422DPPC   GL250752  20.268  16.114  21.665  0.0599 -0.0067 -0.2298
 2422DPPC   C1A50753  20.871  15.910  21.652  0.0663  0.0866 -0.1283
 2422DPPC   C2A50754  21.162  15.724  21.311 -0.2419 -0.1919  0.0066
 2422DPPC   C3A50755  21.035  15.878  20.981  0.0180 -0.4667  0.0149
 2422DPPC   C4A50756  21.049  16.149  20.745  0.1806 -0.0183 -0.0847
 2422DPPC   C1B50757  20.699  16.419  21.707  0.2222 -0.0830 -0.4446
 2422DPPC   C2B50758  21.095  16.405  21.876 -0.2454 -0.0258  0.2672
 2422DPPC   C3B50759  21.384  16.583  22.191  0.2412 -0.0587 -0.2058
 2422DPPC   C4B50760  21.630  16.849  22.061  0.2174 -0.0424  0.2513
 2423DPPC   NC350761  18.516  17.386  21.490  0.0694  0.3279 -0.0540
 2423DPPC   PO450762  18.548  17.610  21.917  0.2441  0.2287  0.3261
 2423DPPC   GL150763  18.927  17.606  21.753 -0.1385 -0.1991  0.2933
 2423DPPC   GL250764  18.887  17.863  21.549 -0.4078 -0.1695 -0.4276
 2423DPPC   C1A50765  19.276  17.730  21.851 -0.2008 -0.0006 -0.2155
 2423DPPC   C2A50766  19.596  18.107  21.914 -0.0185  0.0089  0.0682
 2423DPPC   C3A50767  19.795  18.477  21.808  0.3523 -0.0802 -0.0989
 2423DPPC   C4A50768  19.909  18.865  21.965  0.0593 -0.0411 -0.1683
 2423DPPC   C1B50769  19.291  18.131  21.480 -0.2065 -0.1895  0.2860
 2423DPPC   C2B50770  19.573  18.405  21.263  0.0275  0.0964 -0.0492
 2423DPPC   C3B50771  19.730  18.823  21.386 -0.1463 -0.0604 -0.2430
 2423DPPC   C4B50772  19.980  19.126  21.467 -0.1655 -0.0759 -0.0910
 2424DPPC   NC350773  12.661  18.794  42.074  0.0440 -0.1916  0.0840
 2424DPPC   PO450774  12.702  18.497  41.930 -0.3758 -0.1444  0.2150
 2424DPPC   GL150775  12.890  18.424  41.489 -0.1169 -0.0049 -0.0477
 2424DPPC   GL250776  13.217  18.364  41.507  0.0890  0.0071  0.2615
 2424DPPC   C1A50777  12.938  18.309  41.090 -0.5079 -0.1343  0.2590
 2424DPPC   C2A50778  12.874  18.215  40.612  0.2001 -0.0604  0.1169
 2424DPPC   C3A50779  12.779  17.854  40.377  0.2848  0.2580  0.2245
 2424DPPC   C4A50780  12.862  17.514  40.150  0.2304  0.1204 -0.1898
 2424DPPC   C1B50781  13.442  18.378  41.150  0.1982 -0.0528  0.2850
 2424DPPC   C2B50782  13.346  18.230  40.756 -0.2436  0.1539  0.0106
 2424DPPC   C3B50783  13.574  17.976  40.504  0.0486  0.2505 -0.0578
 2424DPPC   C4B50784  13.801  17.592  40.644 -0.0952  0.0167 -0.0480
 2425DPPC   NC350785  21.152  13.494  19.608  0.2371 -0.0144 -0.1560
 2425DPPC   PO450786  21.110  13.820  19.927  0.3076 -0.2273  0.0364
 2425DPPC   GL150787  21.476  13.885  19.670 -0.1482 -0.0843  0.3065
 2425DPPC   GL250788  21.301  13.855  19.359 -0.0555 -0.1728 -0.3328
 2425DPPC   C1A50789  21.846  14.184  19.711 -0.1954 -0.2032 -0.0429
 2425DPPC   C2A50790  22.095  14.524  19.775 -0.2532 -0.2618  0.0030
 2425DPPC   C3A50791  22.528  14.643  19.708 -0.1436 -0.0194  0.0617
 2425DPPC   C4A50792  22.801  14.758  19.931 -0.0224 -0.4321 -0.1210
 2425DPPC   C1B50793  20.932  14.052  19.074 -0.0050 -0.0586 -0.0085
 2425DPPC   C2B50794  20.961  13.930  18.733 -0.1482  0.0199  0.3107
 2425DPPC   C3B50795  20.688  14.033  18.401  0.0093 -0.0847  0.1356
 2425DPPC   C4B50796  20.456  14.443  18.204 -0.0875 -0.3689 -0.0035
 2426DPPC   NC350797  20.363  22.703  25.059  0.0026  0.2177 -0.3683
 2426DPPC   PO450798  20.714  22.632  25.359 -0.0139 -0.1836 -0.1478
 2426DPPC   GL150799  20.457  22.357  25.639  0.0107  0.1226  0.2790
 2426DPPC   GL250800  20.131  22.233  25.426  0.0066  0.5292  0.0965
 2426DPPC   C1A50801  20.260  22.030  25.834 -0.1220 -0.1358  0.1074
 2426DPPC   C2A50802  20.189  21.551  25.699  0.4152  0.0009  0.1168
 2426DPPC   C3A50803  20.075  21.146  25.724  0.0882  0.1044  0.0347
 2426DPPC   C4A50804  19.950  20.759  25.529  0.0295  0.0342  0.2301
 2426DPPC   C1B50805  19.919  21.856  25.423  0.0225 -0.3944  0.2518
 2426DPPC   C2B50806  19.700  21.641  25.692  0.0446 -0.2518  0.1019
 2426DPPC   C3B50807  19.492  21.270  25.969  0.0943 -0.0129 -0.0664
 2426DPPC   C4B50808  19.485  20.969  26.333 -0.1226 -0.3120 -0.1740
 2427DPPC   NC350809  15.250  15.129  23.775  0.2927  0.3739  0.0348
 2427DPPC   PO450810  15.428  14.995  23.374  0.0444  0.3415 -0.0269
 2427DPPC   GL150811  15.760  14.904  23.574  0.0467  0.0795 -0.2647
 2427DPPC   GL250812  16.090  14.968  23.430  0.4703 -0.1530 -0.1381
 2427DPPC   C1A50813  15.792  14.848  24.026  0.1979  0.0049  0.2959
 2427DPPC   C2A50814  15.873  14.970  24.383 -0.0303 -0.3931  0.0670
 2427DPPC   C3A50815  15.818  15.207  24.619 -0.3865 -0.2573 -0.0823
 2427DPPC   C4A50816  15.643  15.143  25.051 -0.1829 -0.2710 -0.0301
 2427DPPC   C1B50817  16.254  15.179  23.806  0.1230  0.5270  0.1928
 2427DPPC   C2B50818  16.315  15.086  24.240 -0.0484  0.1827  0.1586
 2427DPPC   C3B50819  16.495  14.751  24.384  0.1769 -0.0202  0.0188
 2427DPPC   C4B50820  16.349  14.649  24.834 -0.1528  0.3394  0.4014
 2428DPPC   NC350821  16.607   3.033  18.959  0.3467  0.2073 -0.0259
 2428DPPC   PO450822  16.492   3.372  19.264 -0.2365  0.0252  0.0547
 2428DPPC   GL150823  16.751   3.631  19.408  0.3750  0.0553  0.0123
 2428DPPC   GL250824  17.006   3.615  19.540  0.0403 -0.1448  0.1139
 2428DPPC   C1A50825  16.758   4.048  19.395 -0.1708  0.0629 -0.1609
 2428DPPC   C2A50826  16.430   4.467  19.439 -0.2144  0.3599  0.4192
 2428DPPC   C3A50827  16.245   4.762  19.730  0.3227 -0.2150  0.0913
 2428DPPC   C4A50828  16.246   4.753  20.229 -0.3194  0.1016  0.0263
 2428DPPC   C1B50829  17.226   4.034  19.663  0.3474 -0.1442  0.3275
 2428DPPC   C2B50830  17.424   4.418  19.806  0.2520  0.2673 -0.0294
 2428DPPC   C3B50831  17.295   4.472  20.153 -0.0655 -0.0516 -0.2063
 2428DPPC   C4B50832  17.252   4.264  20.487 -0.0205 -0.2723 -0.2184
 2429DPPC   NC350833   6.701  17.099  38.641  0.0200 -0.0355  0.1472
 2429DPPC   PO450834   6.472  17.257  38.190  0.0571 -0.1200  0.4172
 2429DPPC   GL150835   6.946  17.251  38.102 -0.1140  0.2094 -0.2506
 2429DPPC   GL250836   6.995  17.492  37.904 -0.1533 -0.2519 -0.3496
 2429DPPC   C1A50837   7.316  17.069  37.851  0.4522 -0.1200 -0.1880
 2429DPPC   C2A50838   7.441  16.630  37.723  0.0629  0.0465 -0.1064
 2429DPPC   C3A50839   7.742  16.505  37.528  0.0860  0.1373 -0.0337
 2429DPPC   C4A50840   8.200  16.619  37.373 -0.0660  0.1555  0.1145
 2429DPPC   C1B50841   7.216  17.520  37.500  0.2766  0.2736  0.0907
 2429DPPC   C2B50842   7.690  17.462  37.274 -0.0186  0.0879 -0.0303
 2429DPPC   C3B50843   7.961  17.843  37.099 -0.0414  0.1660  0.2777
 2429DPPC   C4B50844   8.018  18.254  37.354 -0.1424 -0.0882  0.0584
 2430DPPC   NC350845  22.076  21.856  30.216  0.1723 -0.0583 -0.1522
 2430DPPC   PO450846  21.831  21.956  30.598 -0.1318 -0.1071 -0.3722
 2430DPPC   GL150847  21.678  21.537  30.675 -0.0007  0.1830  0.6098
 2430DPPC   GL250848  21.402  21.669  30.538 -0.3265 -0.0172 -0.4123
 2430DPPC   C1A50849  21.409  21.107  30.636  0.2366  0.0759  0.3102
 2430DPPC   C2A50850  21.258  20.665  30.793  0.0895 -0.0532 -0.4600
 2430DPPC   C3A50851  21.028  20.298  30.631 -0.1660  0.2306 -0.2423
 2430DPPC   C4A50852  20.991  20.199  30.178 -0.0112  0.1985 -0.0477
 2430DPPC   C1B50853  21.121  21.507  30.834 -0.0104  0.1573 -0.1155
 2430DPPC   C2B50854  21.125  21.639  31.249  0.1437 -0.1833 -0.3259
 2430DPPC   C3B50855  21.181  21.514  31.766 -0.0749  0.0697  0.3622
 2430DPPC   C4B50856  21.344  21.308  32.049  0.0538  0.1249 -0.0815
 2431DPPC   NC350857  19.041  17.772  23.762  0.0880  0.3315  0.0281
 2431DPPC   PO450858  19.231  17.490  23.602  0.2632  0.0261  0.0854
 2431DPPC   GL150859  19.559  17.303  23.560 -0.4684 -0.1350  0.0050
 2431DPPC   GL250860  19.442  16.969  23.658 -0.0822 -0.1758 -0.3298
 2431DPPC   C1A50861  19.987  17.502  23.766 -0.1818  0.1579  0.2054
 2431DPPC   C2A50862  20.331  17.613  23.955 -0.1496  0.2708 -0.0218
 2431DPPC   C3A50863  20.537  17.516  24.334  0.2126  0.4618  0.0500
 2431DPPC   C4A50864  20.629  17.562  24.802  0.1129  0.0121  0.0701
 2431DPPC   C1B50865  19.782  16.997  23.961 -0.1793 -0.4049 -0.1544
 2431DPPC   C2B50866  20.212  17.123  24.047 -0.0376 -0.2487  0.0291
 2431DPPC   C3B50867  20.644  17.059  24.152  0.4458 -0.0549  0.2879
 2431DPPC   C4B50868  20.777  17.015  24.554  0.0097 -0.2264  0.1784
 2432DPPC   NC350869  18.037  19.672  23.991  0.2598 -0.1052  0.0248
 2432DPPC   PO450870  17.986  19.493  23.601 -0.1618 -0.0100  0.2766
 2432DPPC   GL150871  18.356  19.648  23.526 -0.1167 -0.0241  0.1813
 2432DPPC   GL250872  18.559  19.513  23.381 -0.1093 -0.4680  0.2081
 2432DPPC   C1A50873  18.497  20.044  23.753  0.3089 -0.1168 -0.0516
 2432DPPC   C2A50874  18.385  20.334  24.038 -0.0301  0.1376  0.1635
 2432DPPC   C3A50875  18.401  20.881  24.113  0.4580  0.1669  0.2031
 2432DPPC   C4A50876  18.305  21.249  23.972  0.0179 -0.1632 -0.1068
 2432DPPC   C1B50877  18.787  19.862  23.345 -0.0920 -0.1825 -0.0827
 2432DPPC   C2B50878  18.825  20.260  23.423  0.2753 -0.2703 -0.0788
 2432DPPC   C3B50879  18.437  20.342  23.355  0.2598  0.1102  0.3272
 2432DPPC   C4B50880  18.058  20.355  23.161  0.4741 -0.2194 -0.0366
 2433DPPC   NC350881   9.128   4.782  38.817  0.1820  0.1496 -0.1720
 2433DPPC   PO450882   9.427   4.549  38.607 -0.0977 -0.1948 -0.2184
 2433DPPC   GL150883   9.648   4.943  38.504 -0.1829 -0.2199  0.1353
 2433DPPC   GL250884   9.448   5.159  38.678  0.0846  0.1948  0.3486
 2433DPPC   C1A50885   9.647   5.405  38.314  0.5080  0.1804  0.1681
 2433DPPC   C2A50886   9.756   5.739  38.117  0.0812  0.0895  0.1623
 2433DPPC   C3A50887   9.869   6.247  37.992 -0.0124  0.0412  0.1353
 2433DPPC   C4A50888   9.838   6.548  38.212 -0.0803 -0.0299  0.0661
 2433DPPC   C1B50889   9.983   5.211  38.820 -0.1232 -0.1246  0.0967
 2433DPPC   C2B50890  10.381   5.130  38.883 -0.2828  0.2413  0.2247
 2433DPPC   C3B50891  10.777   5.425  38.830 -0.1252 -0.0683 -0.0212
 2433DPPC   C4B50892  10.946   5.816  38.873  0.1397 -0.2352  0.0031
 2434DPPC   NC350893  21.267  11.762  42.945  0.1104  0.0024 -0.0743
 2434DPPC   PO450894  21.370  11.387  42.661 -0.0608  0.1404  0.2960
 2434DPPC   GL150895  21.181  11.370  42.285 -0.2173 -0.1382 -0.2387
 2434DPPC   GL250896  21.404  11.445  42.072  0.0000 -0.1246 -0.2726
 2434DPPC   C1A50897  20.972  11.031  42.037  0.1483  0.0562  0.0723
 2434DPPC   C2A50898  20.731  11.084  41.644  0.0426  0.3853  0.1624
 2434DPPC   C3A50899  20.587  10.908  41.227  0.1593  0.1667 -0.2594
 2434DPPC   C4A50900  20.528  10.756  40.717  0.0470 -0.0290 -0.1016
 2434DPPC   C1B50901  21.100  11.423  41.729 -0.0143 -0.1671 -0.1508
 2434DPPC   C2B50902  21.065  11.862  41.475 -0.1695 -0.0364 -0.3395
 2434DPPC   C3B50903  21.241  12.275  41.584 -0.0528 -0.3201  0.0212
 2434DPPC   C4B50904  21.450  12.589  41.915  0.3405 -0.0140  0.0394
 2435DPPC   NC350905  25.169  20.363  33.830 -0.0673  0.0914  0.0490
 2435DPPC   PO450906  25.017  19.825  33.764  0.2707  0.1056  0.1265
 2435DPPC   GL150907  24.843  19.382  33.894 -0.0561  0.0834 -0.2616
 2435DPPC   GL250908  24.774  19.259  34.221 -0.3214  0.1699  0.0228
 2435DPPC   C1A50909  24.447  19.307  33.720 -0.1769  0.1475 -0.0186
 2435DPPC   C2A50910  24.030  19.042  33.868 -0.0789 -0.1096  0.0275
 2435DPPC   C3A50911  23.694  18.939  33.961 -0.2290 -0.2111  0.2494
 2435DPPC   C4A50912  23.307  18.748  33.798  0.2258 -0.1456  0.2199
 2435DPPC   C1B50913  24.498  18.951  34.280 -0.1762 -0.4464  0.1350
 2435DPPC   C2B50914  24.110  18.710  34.300  0.1381  0.3476 -0.0928
 2435DPPC   C3B50915  23.752  18.473  34.076 -0.0070  0.0453 -0.0476
 2435DPPC   C4B50916  23.284  18.359  34.056 -0.3236 -0.1023  0.0435
 2436DPPC   NC350917  18.551  10.731  19.093 -0.0063  0.3321 -0.0244
 2436DPPC   PO450918  18.474  11.259  18.952  0.2751  0.1864  0.0467
 2436DPPC   GL150919  18.533  11.341  18.581  0.0891  0.0136 -0.0570
 2436DPPC   GL250920  18.630  11.691  18.621  0.2688  0.2091  0.0595
 2436DPPC   C1A50921  18.442  11.460  18.131  0.1127  0.3856  0.3515
 2436DPPC   C2A50922  18.352  11.404  17.732 -0.2085  0.2899 -0.1718
 2436DPPC   C3A50923  18.738  11.606  17.499  0.2552 -0.1525  0.1354
 2436DPPC   C4A50924  19.165  11.520  17.337 -0.1057  0.2668 -0.1655
 2436DPPC   C1B50925  18.596  11.964  18.288 -0.0709 -0.0544  0.1176
 2436DPPC   C2B50926  18.489  11.937  17.791  0.0756 -0.2487 -0.0579
 2436DPPC   C3B50927  18.239  11.861  17.469  0.0331  0.0842  0.2356
 2436DPPC   C4B50928  18.276  11.458  17.195  0.0752  0.2506  0.1873
 2437DPPC   NC350929  21.478  11.347  20.887 -0.1038  0.1487  0.2394
 2437DPPC   PO450930  21.876  11.475  20.616 -0.1761 -0.1483 -0.0642
 2437DPPC   GL150931  22.109  11.675  20.326 -0.2451 -0.2739  0.0066
 2437DPPC   GL250932  22.440  11.729  20.318  0.2767 -0.1222  0.1149
 2437DPPC   C1A50933  22.353  12.088  20.028 -0.1528  0.0392  0.3215
 2437DPPC   C2A50934  22.835  12.039  20.059 -0.3730  0.1612  0.3354
 2437DPPC   C3A50935  23.184  12.320  20.201  0.0431 -0.3057  0.0924
 2437DPPC   C4A50936  23.515  12.542  20.168 -0.1221  0.0886 -0.0784
 2437DPPC   C1B50937  22.263  11.523  19.905  0.0753  0.2483  0.1115
 2437DPPC   C2B50938  22.352  11.317  19.606  0.0586  0.0753 -0.0171
 2437DPPC   C3B50939  22.560  11.178  19.451  0.1577  0.0208  0.0701
 2437DPPC   C4B50940  22.965  11.311  19.482  0.0758  0.2155 -0.0967
 2438DPPC   NC350941  22.194  22.217  34.238  0.2023 -0.1120  0.0772
 2438DPPC   PO450942  21.939  22.430  34.426  0.2910 -0.3277 -0.0770
 2438DPPC   GL150943  21.584  22.243  34.133  0.1451 -0.1373  0.0351
 2438DPPC   GL250944  21.731  21.964  33.969  0.0016 -0.2211  0.1312
 2438DPPC   C1A50945  21.204  22.022  34.359 -0.1891  0.2642  0.2787
 2438DPPC   C2A50946  20.982  21.692  34.408 -0.1868  0.2215 -0.2738
 2438DPPC   C3A50947  20.941  21.249  34.219  0.0005 -0.2548 -0.0542
 2438DPPC   C4A50948  20.788  20.748  34.231  0.0338 -0.0540 -0.1713
 2438DPPC   C1B50949  21.779  21.901  33.539  0.1044 -0.0556  0.3041
 2438DPPC   C2B50950  21.603  22.000  33.198 -0.1115 -0.2278 -0.0243
 2438DPPC   C3B50951  21.218  21.969  32.910 -0.2390 -0.1367 -0.1721
 2438DPPC   C4B50952  20.864  21.738  33.043 -0.1155  0.0796 -0.0828
 2439DPPC   NC350953   1.310  11.938  30.629  0.0829 -0.0216 -0.2805
 2439DPPC   PO450954   0.833  11.882  30.425 -0.1694 -0.2766 -0.1872
 2439DPPC   GL150955   0.382  11.870  30.260 -0.1011 -0.0279 -0.2594
 2439DPPC   GL250956   0.285  11.518  30.131 -0.0895 -0.2849  0.2502
 2439DPPC   C1A50957  27.048  11.961  30.423  0.3562  0.2253  0.0351
 2439DPPC   C2A50958  26.706  12.204  30.311 -0.0176  0.2081 -0.1853
 2439DPPC   C3A50959  26.404  12.444  30.622  0.0274 -0.0925  0.1727
 2439DPPC   C4A50960  26.270  12.423  31.108 -0.5515 -0.1434 -0.0691
 2439DPPC   C1B50961  26.839  11.664  30.104 -0.0363  0.0512 -0.0366
 2439DPPC   C2B50962  26.429  11.863  30.055  0.0879  0.0931  0.2501
 2439DPPC   C3B50963  26.095  12.070  30.305  0.0270  0.1921  0.1044
 2439DPPC   C4B50964  25.737  12.089  30.675  0.2295 -0.1134  0.0331
 2440DPPC   NC350965   8.398  15.142  41.842  0.0559 -0.0662  0.4424
 2440DPPC   PO450966   8.615  14.972  41.576  0.2439  0.1220 -0.1588
 2440DPPC   GL150967   8.982  14.947  41.243 -0.0475  0.0644  0.0201
 2440DPPC   GL250968   9.269  15.066  41.292 -0.1874 -0.3377  0.0803
 2440DPPC   C1A50969   9.069  14.525  40.972  0.1224 -0.1586 -0.1934
 2440DPPC   C2A50970   8.922  14.483  40.525 -0.2616  0.0907 -0.1577
 2440DPPC   C3A50971   8.770  14.526  40.082 -0.1964  0.0312 -0.1180
 2440DPPC   C4A50972   8.699  14.831  39.803  0.0539  0.1179 -0.4712
 2440DPPC   C1B50973   9.358  14.908  40.943  0.0928  0.2111  0.0557
 2440DPPC   C2B50974   9.553  14.611  40.657  0.0113  0.0908  0.0493
 2440DPPC   C3B50975   9.778  14.450  40.355 -0.1791 -0.2292 -0.1863
 2440DPPC   C4B50976   9.823  14.141  40.010 -0.0396 -0.1526 -0.1947
 2441DPPC   NC350977  20.941  14.812  21.090  0.1509  0.1297 -0.0234
 2441DPPC   PO450978  20.776  15.081  21.407  0.3083 -0.1372 -0.0019
 2441DPPC   GL150979  20.869  15.331  21.132  0.0700  0.3365  0.1816
 2441DPPC   GL250980  21.184  15.261  21.191 -0.3281  0.2555  0.2631
 2441DPPC   C1A50981  21.034  15.438  20.748 -0.0684  0.0702 -0.2945
 2441DPPC   C2A50982  21.218  15.477  20.434  0.0882  0.1166  0.3184
 2441DPPC   C3A50983  21.568  15.499  20.172  0.1030  0.0028  0.1834
 2441DPPC   C4A50984  21.756  15.453  19.701  0.1261 -0.2212 -0.1718
 2441DPPC   C1B50985  21.398  15.134  20.817 -0.1150 -0.0917 -0.2321
 2441DPPC   C2B50986  21.790  15.308  20.572  0.1188 -0.0215 -0.1861
 2441DPPC   C3B50987  22.035  15.012  20.235  0.2170  0.2073 -0.1978
 2441DPPC   C4B50988  22.203  15.128  19.776 -0.0366 -0.3578 -0.0642
 2442DPPC   NC350989   6.815  22.057  34.574  0.2149  0.0320 -0.0020
 2442DPPC   PO450990   6.555  21.710  34.664 -0.2004  0.3693  0.2517
 2442DPPC   GL150991   6.750  21.369  34.530  0.2774 -0.1024  0.0363
 2442DPPC   GL250992   6.926  21.198  34.811  0.1921 -0.3029 -0.4603
 2442DPPC   C1A50993   6.971  21.108  34.295 -0.0552  0.1636 -0.4500
 2442DPPC   C2A50994   7.257  21.120  33.877 -0.1730  0.0548 -0.1469
 2442DPPC   C3A50995   7.696  21.363  33.871 -0.0093 -0.0653  0.1114
 2442DPPC   C4A50996   7.891  21.796  33.743  0.0678 -0.0942 -0.0625
 2442DPPC   C1B50997   7.260  20.827  34.653 -0.0156 -0.0758 -0.2015
 2442DPPC   C2B50998   7.390  20.375  34.600  0.0567  0.0692 -0.0277
 2442DPPC   C3B50999   7.390  19.932  34.739  0.0688  0.2153  0.3223
 2442DPPC   C4B51000   7.210  19.588  34.887  0.0521  0.2168 -0.0230
 2443DPPC   NC351001  16.398  18.465  22.074  0.3292  0.1840  0.0358
 2443DPPC   PO451002  16.190  18.760  21.725  0.0915  0.3151  0.0209
 2443DPPC   GL151003  16.332  18.849  21.335  0.1431  0.5319  0.0004
 2443DPPC   GL251004  16.691  18.951  21.206  0.1887 -0.0239 -0.3962
 2443DPPC   C1A51005  16.197  19.168  21.094  0.4459 -0.2078 -0.0001
 2443DPPC   C2A51006  16.237  19.478  20.860  0.0549  0.1994 -0.0719
 2443DPPC   C3A51007  16.169  19.737  20.562  0.1064  0.4213  0.2652
 2443DPPC   C4A51008  15.849  19.925  20.338 -0.0496 -0.0950 -0.1403
 2443DPPC   C1B51009  16.800  19.358  20.991 -0.0494  0.1922 -0.2770
 2443DPPC   C2B51010  16.813  19.743  20.873  0.1385 -0.0265 -0.0186
 2443DPPC   C3B51011  16.604  19.829  20.470 -0.1454 -0.1743  0.2395
 2443DPPC   C4B51012  16.377  19.733  20.067 -0.0136  0.1038 -0.3847
 2444DPPC   NC351013  18.238  20.754  18.474 -0.0130  0.0604 -0.0565
 2444DPPC   PO451014  17.683  20.644  18.513  0.0743 -0.1095 -0.0358
 2444DPPC   GL151015  17.724  20.313  18.734  0.0764  0.2864 -0.2058
 2444DPPC   GL251016  17.480  20.242  19.011 -0.1926 -0.1798  0.0633
 2444DPPC   C1A51017  17.690  19.870  18.690  0.0119 -0.1568 -0.1703
 2444DPPC   C2A51018  17.521  19.708  18.375  0.0314 -0.0171 -0.3626
 2444DPPC   C3A51019  17.206  19.693  18.130 -0.2551  0.2806 -0.1217
 2444DPPC   C4A51020  16.879  19.435  17.942 -0.2297 -0.4566  0.2489
 2444DPPC   C1B51021  17.227  19.971  18.953 -0.0199  0.1813 -0.1155
 2444DPPC   C2B51022  17.095  19.610  18.727 -0.3101  0.1172 -0.1317
 2444DPPC   C3B51023  17.309  19.289  18.497  0.1185 -0.1990  0.0634
 2444DPPC   C4B51024  17.288  18.989  18.754 -0.0857 -0.0721 -0.1464
 2445DPPC   NC351025  21.299  14.125  22.126  0.0328 -0.0860 -0.2158
 2445DPPC   PO451026  21.007  14.141  21.717 -0.1642 -0.0534  0.2085
 2445DPPC   GL151027  21.322  14.351  21.623 -0.0687 -0.0434  0.2363
 2445DPPC   GL251028  21.321  14.627  21.387  0.0112  0.0922  0.3217
 2445DPPC   C1A51029  21.778  14.478  21.507  0.2174 -0.0230 -0.0241
 2445DPPC   C2A51030  22.060  14.578  21.307  0.0870  0.0431 -0.0243
 2445DPPC   C3A51031  22.274  14.914  21.083  0.1219  0.2366  0.0297
 2445DPPC   C4A51032  22.395  15.247  20.757 -0.2154  0.0088 -0.0379
 2445DPPC   C1B51033  21.533  14.885  21.196 -0.1968  0.0655  0.2284
 2445DPPC   C2B51034  21.751  15.144  21.133 -0.1754  0.1425  0.1020
 2445DPPC   C3B51035  22.022  15.540  21.046  0.0659  0.2136 -0.0936
 2445DPPC   C4B51036  22.289  15.959  20.869  0.0885  0.0200  0.2267
 2446DPPC   NC351037  24.829   2.747  28.041 -0.1541  0.1213  0.0372
 2446DPPC   PO451038  24.451   2.654  28.050 -0.3817 -0.0751 -0.0918
 2446DPPC   GL151039  24.043   2.880  28.206  0.2882 -0.1876  0.2179
 2446DPPC   GL251040  23.934   2.727  28.475 -0.0690  0.1105  0.1205
 2446DPPC   C1A51041  23.680   3.057  28.094 -0.2256 -0.2729  0.1185
 2446DPPC   C2A51042  23.505   3.500  28.211  0.0993 -0.0120  0.3056
 2446DPPC   C3A51043  23.602   3.777  27.865 -0.1934  0.3305  0.2087
 2446DPPC   C4A51044  23.654   3.804  27.452 -0.0459  0.1407 -0.3285
 2446DPPC   C1B51045  23.947   3.128  28.774 -0.5765  0.0580  0.3628
 2446DPPC   C2B51046  23.827   3.566  28.820 -0.5090 -0.0530 -0.0758
 2446DPPC   C3B51047  23.912   3.967  28.828 -0.3125 -0.2952  0.3220
 2446DPPC   C4B51048  24.337   4.059  29.007 -0.2993  0.0697 -0.1385
 2447DPPC   NC351049  18.328  13.347  23.177  0.0504 -0.0672  0.1226
 2447DPPC   PO451050  18.815  13.215  23.353  0.2412  0.0431 -0.1852
 2447DPPC   GL151051  18.656  13.345  23.702  0.0810 -0.0038 -0.0454
 2447DPPC   GL251052  18.972  13.373  23.925 -0.2272 -0.0093 -0.1519
 2447DPPC   C1A51053  18.549  13.145  24.069 -0.2318  0.0352  0.0608
 2447DPPC   C2A51054  18.438  13.209  24.483  0.0339  0.0970  0.2197
 2447DPPC   C3A51055  18.284  13.496  24.777  0.0266 -0.0163  0.0593
 2447DPPC   C4A51056  18.384  13.787  25.055 -0.0518 -0.4398 -0.0512
 2447DPPC   C1B51057  19.274  13.640  24.175  0.0223  0.2881 -0.0904
 2447DPPC   C2B51058  19.385  14.026  24.249 -0.1109  0.3749 -0.3543
 2447DPPC   C3B51059  19.118  14.480  24.197  0.0342 -0.3243  0.4413
 2447DPPC   C4B51060  18.793  14.692  24.462 -0.0965  0.1510 -0.1687
 2448DPPC   NC351061  18.599  23.254  24.459 -0.0538 -0.2145 -0.1860
 2448DPPC   PO451062  18.229  23.416  24.419  0.3175  0.1912 -0.0282
 2448DPPC   GL151063  18.174  22.972  24.470 -0.2596  0.1254  0.0367
 2448DPPC   GL251064  18.312  22.915  24.181 -0.1131  0.0890 -0.0511
 2448DPPC   C1A51065  18.113  22.560  24.474 -0.3458 -0.1273 -0.0357
 2448DPPC   C2A51066  18.307  22.088  24.494 -0.1459 -0.0656 -0.2534
 2448DPPC   C3A51067  18.405  21.679  24.362  0.2021 -0.1387  0.0321
 2448DPPC   C4A51068  18.606  21.202  24.400 -0.0140  0.1628  0.1972
 2448DPPC   C1B51069  18.631  22.474  24.228 -0.0177  0.0397  0.1362
 2448DPPC   C2B51070  18.890  22.156  24.284  0.0025  0.0623 -0.0359
 2448DPPC   C3B51071  18.850  21.822  24.535 -0.1772  0.2177  0.1789
 2448DPPC   C4B51072  18.588  21.620  24.829  0.1801  0.0579 -0.0805
 2449DPPC   NC351073  19.578   1.535  23.293  0.0170 -0.1249  0.0921
 2449DPPC   PO451074  19.386   1.715  22.994 -0.1586 -0.1133  0.2461
 2449DPPC   GL151075  19.427   2.099  23.078  0.0803 -0.0639  0.0616
 2449DPPC   GL251076  19.712   2.318  23.192 -0.0840  0.0068  0.4265
 2449DPPC   C1A51077  19.220   2.562  22.970 -0.2159 -0.0054  0.1505
 2449DPPC   C2A51078  18.960   2.887  22.926 -0.1027  0.0329 -0.0942
 2449DPPC   C3A51079  18.792   3.055  23.207  0.2529  0.0024  0.0622
 2449DPPC   C4A51080  18.650   3.418  23.334  0.1957  0.1600  0.4732
 2449DPPC   C1B51081  19.658   2.709  23.184 -0.0071 -0.0366  0.0491
 2449DPPC   C2B51082  19.431   2.992  23.289  0.4426 -0.1656  0.1138
 2449DPPC   C3B51083  19.134   3.218  23.470 -0.1737  0.1344 -0.3406
 2449DPPC   C4B51084  18.940   3.352  23.933 -0.3851 -0.1704 -0.2348
 2450DPPC   NC351085  16.593  14.274  19.037  0.1483 -0.0566 -0.1026
 2450DPPC   PO451086  16.482  13.833  19.086  0.1244  0.2278  0.1826
 2450DPPC   GL151087  16.671  13.907  18.645  0.0296  0.2447 -0.0473
 2450DPPC   GL251088  17.022  13.770  18.518 -0.0642  0.0028 -0.2402
 2450DPPC   C1A51089  16.424  13.978  18.285  0.0626 -0.4015 -0.1211
 2450DPPC   C2A51090  16.173  14.114  17.987 -0.2368  0.1703  0.1730
 2450DPPC   C3A51091  15.859  13.889  17.652 -0.0641  0.0466 -0.0351
 2450DPPC   C4A51092  15.642  13.873  17.375  0.0749  0.0979  0.0853
 2450DPPC   C1B51093  17.121  13.558  18.130  0.1665  0.1605  0.4800
 2450DPPC   C2B51094  17.396  13.775  17.718 -0.0233 -0.0210  0.1302
 2450DPPC   C3B51095  17.553  13.845  17.318  0.1337  0.5008 -0.2542
 2450DPPC   C4B51096  17.478  14.300  17.301 -0.4337  0.1820 -0.0753
 2451DPPC   NC351097  26.019  15.388  21.962  0.2478 -0.0057 -0.0519
 2451DPPC   PO451098  25.690  15.221  21.687  0.1001  0.0171  0.0978
 2451DPPC   GL151099  25.251  15.064  21.439 -0.1221  0.0635  0.2823
 2451DPPC   GL251100  25.344  14.809  21.259  0.2034  0.2446  0.1577
 2451DPPC   C1A51101  24.846  14.965  21.441 -0.0130  0.1584  0.1625
 2451DPPC   C2A51102  24.474  14.687  21.358  0.2334 -0.1122  0.0489
 2451DPPC   C3A51103  24.280  14.356  21.640 -0.1774  0.3603  0.1668
 2451DPPC   C4A51104  24.306  13.974  21.803  0.0404 -0.1575 -0.0900
 2451DPPC   C1B51105  24.941  14.539  21.162 -0.0905 -0.2467 -0.1319
 2451DPPC   C2B51106  24.660  14.262  21.086  0.3210  0.0154 -0.0130
 2451DPPC   C3B51107  24.312  14.235  21.024  0.2709  0.3380  0.0688
 2451DPPC   C4B51108  24.101  14.565  20.831 -0.0866  0.2339  0.0557
 2452DPPC   NC351109  17.283  21.488  39.501 -0.4418  0.0245  0.1047
 2452DPPC   PO451110  17.586  21.683  39.293  0.2136  0.0658  0.0774
 2452DPPC   GL151111  17.741  21.367  39.058 -0.0995  0.1360  0.0446
 2452DPPC   GL251112  17.540  21.171  39.128  0.1915  0.1385 -0.2543
 2452DPPC   C1A51113  17.824  21.045  38.731 -0.1714  0.1201  0.0695
 2452DPPC   C2A51114  17.787  20.866  38.324  0.1330 -0.4293  0.2541
 2452DPPC   C3A51115  17.657  20.530  37.988  0.1259  0.1054  0.0217
 2452DPPC   C4A51116  17.898  20.429  37.595  0.0365  0.2267 -0.1821
 2452DPPC   C1B51117  17.403  20.797  38.976  0.3269  0.1567 -0.1025
 2452DPPC   C2B51118  17.416  20.604  38.526 -0.0847  0.1054 -0.0913
 2452DPPC   C3B51119  17.348  20.240  38.408  0.2693 -0.1835  0.0797
 2452DPPC   C4B51120  17.049  19.996  38.465 -0.4731 -0.0335  0.0812
 2453DPPC   NC351121  20.028  18.901  17.050  0.2124  0.1785  0.2191
 2453DPPC   PO451122  19.922  18.955  17.503 -0.0801 -0.0259  0.0165
 2453DPPC   GL151123  19.549  18.774  17.243 -0.0277 -0.0148 -0.1405
 2453DPPC   GL251124  19.614  18.730  16.823  0.0898 -0.1182 -0.0565
 2453DPPC   C1A51125  19.346  18.494  17.522 -0.1217 -0.0734 -0.1676
 2453DPPC   C2A51126  19.009  18.273  17.800 -0.0093  0.0359 -0.2960
 2453DPPC   C3A51127  18.595  18.198  18.052  0.3867 -0.3715 -0.0310
 2453DPPC   C4A51128  18.373  17.891  18.295 -0.0466  0.0072  0.1006
 2453DPPC   C1B51129  19.691  18.359  16.950  0.0364  0.1435 -0.0565
 2453DPPC   C2B51130  19.648  18.220  17.292  0.0280  0.0041  0.0304
 2453DPPC   C3B51131  19.305  18.042  17.355 -0.1453  0.4471 -0.0734
 2453DPPC   C4B51132  18.823  17.985  17.454  0.2722 -0.1692 -0.0586
 2454DPPC   NC351133   7.227  23.016  33.604 -0.0429  0.3251  0.2043
 2454DPPC   PO451134   7.304  22.744  33.875 -0.0542  0.0938 -0.0778
 2454DPPC   GL151135   7.780  22.521  33.964  0.0735 -0.0148 -0.3016
 2454DPPC   GL251136   7.659  22.236  33.985  0.2232  0.0274 -0.1825
 2454DPPC   C1A51137   8.192  22.314  33.913  0.1345  0.1484 -0.2060
 2454DPPC   C2A51138   8.474  22.061  33.879  0.0456 -0.1435 -0.2580
 2454DPPC   C3A51139   8.749  21.824  34.089 -0.2305 -0.3306  0.2861
 2454DPPC   C4A51140   8.703  21.457  34.224  0.0214 -0.0542  0.0659
 2454DPPC   C1B51141   7.920  21.941  34.247 -0.1673  0.1607 -0.0390
 2454DPPC   C2B51142   8.201  21.645  34.071 -0.3738 -0.0737 -0.0150
 2454DPPC   C3B51143   8.428  21.151  33.988 -0.0642 -0.1530  0.0372
 2454DPPC   C4B51144   8.860  20.993  33.931  0.3665  0.0549  0.0718
 2455DPPC   NC351145  22.531  10.486  22.463  0.1771  0.0143 -0.1184
 2455DPPC   PO451146  22.700  10.845  22.233  0.1555 -0.1574 -0.0377
 2455DPPC   GL151147  22.966  10.844  21.990 -0.0531  0.1078  0.0495
 2455DPPC   GL251148  23.064  11.078  21.949 -0.0346 -0.0441 -0.2945
 2455DPPC   C1A51149  23.245  10.645  21.782 -0.3072  0.0779  0.2728
 2455DPPC   C2A51150  23.350  10.776  21.385  0.0995  0.1395  0.0784
 2455DPPC   C3A51151  23.544  10.547  21.053  0.1118 -0.3375  0.1147
 2455DPPC   C4A51152  23.929  10.619  20.855  0.1774 -0.2234  0.2307
 2455DPPC   C1B51153  23.386  11.136  21.960  0.1285  0.1281  0.2184
 2455DPPC   C2B51154  23.660  11.551  21.766 -0.0314 -0.2270  0.0270
 2455DPPC   C3B51155  23.877  11.767  21.488 -0.2948  0.0544 -0.1449
 2455DPPC   C4B51156  24.084  11.565  21.099 -0.3819  0.0623 -0.0334
 2456DPPC   NC351157  13.349   1.274  23.027 -0.3480 -0.1526 -0.0564
 2456DPPC   PO451158  13.603   1.609  23.229 -0.0410  0.0973  0.0073
 2456DPPC   GL151159  13.792   1.944  23.427 -0.0170  0.2776  0.2397
 2456DPPC   GL251160  14.108   1.959  23.683  0.0730  0.2807  0.0907
 2456DPPC   C1A51161  13.881   2.312  23.438 -0.2582  0.1153 -0.0558
 2456DPPC   C2A51162  14.004   2.702  23.692 -0.0121 -0.1888 -0.1070
 2456DPPC   C3A51163  14.204   3.128  23.592 -0.0335 -0.0378  0.0869
 2456DPPC   C4A51164  14.180   3.501  23.290  0.1441  0.4790  0.0952
 2456DPPC   C1B51165  14.126   2.292  23.962  0.1033 -0.0073 -0.0583
 2456DPPC   C2B51166  14.210   2.752  24.143 -0.0623 -0.0996 -0.0044
 2456DPPC   C3B51167  14.345   3.150  24.254 -0.0109  0.2420  0.2064
 2456DPPC   C4B51168  14.273   3.546  24.569 -0.1367 -0.1082 -0.0585
 2457DPPC   NC351169  26.879  15.988  33.327 -0.0613  0.0077 -0.0470
 2457DPPC   PO451170  26.808  15.587  33.646 -0.1924 -0.0763  0.0863
 2457DPPC   GL151171  26.621  15.275  33.738  0.3164  0.2586  0.0393
 2457DPPC   GL251172  26.593  15.138  34.026 -0.1608 -0.0299  0.1789
 2457DPPC   C1A51173  26.205  15.276  33.547  0.0542 -0.0437 -0.2302
 2457DPPC   C2A51174  25.831  15.194  33.213 -0.2318 -0.1463 -0.1794
 2457DPPC   C3A51175  25.561  14.801  33.156 -0.0397 -0.1038 -0.1705
 2457DPPC   C4A51176  25.482  14.422  33.178  0.0372  0.1559  0.0306
 2457DPPC   C1B51177  26.112  15.037  33.966  0.0262 -0.0525 -0.1312
 2457DPPC   C2B51178  25.755  15.049  33.735  0.1712  0.0051  0.0999
 2457DPPC   C3B51179  25.320  15.069  33.615  0.1593  0.2309 -0.3136
 2457DPPC   C4B51180  24.971  15.300  33.671  0.1101 -0.0502 -0.0572
 2458DPPC   NC351181  24.183  20.821  34.607 -0.1538  0.0369  0.1130
 2458DPPC   PO451182  24.298  20.454  34.693 -0.1582  0.0423 -0.0564
 2458DPPC   GL151183  23.890  20.352  34.857  0.2201  0.0329 -0.2729
 2458DPPC   GL251184  23.740  20.557  35.000  0.0622  0.1020 -0.2981
 2458DPPC   C1A51185  23.677  20.102  34.611 -0.2269  0.0118  0.2136
 2458DPPC   C2A51186  23.260  20.026  34.464  0.1759  0.2593  0.0018
 2458DPPC   C3A51187  23.076  20.273  34.203  0.0798 -0.2479  0.2459
 2458DPPC   C4A51188  22.989  20.192  33.802  0.0443  0.3574 -0.0206
 2458DPPC   C1B51189  23.296  20.368  34.875  0.2233 -0.1368 -0.4149
 2458DPPC   C2B51190  22.919  20.247  34.839  0.0538 -0.1818  0.1391
 2458DPPC   C3B51191  22.481  20.434  34.659 -0.0316 -0.1275  0.2031
 2458DPPC   C4B51192  22.128  20.372  34.532 -0.2737  0.2026  0.0170
 2459DPPC   NC351193  11.302   2.100  24.953 -0.0414  0.0058 -0.3101
 2459DPPC   PO451194  11.863   1.915  25.058  0.0171  0.0628 -0.1066
 2459DPPC   GL151195  11.786   2.365  25.197  0.2121  0.1437 -0.0698
 2459DPPC   GL251196  11.653   2.526  24.944  0.0311  0.2600 -0.1258
 2459DPPC   C1A51197  11.811   2.830  25.272 -0.0273  0.1292  0.2628
 2459DPPC   C2A51198  11.616   3.060  25.376 -0.2546  0.0893  0.1584
 2459DPPC   C3A51199  11.645   3.286  25.781  0.3362  0.0452 -0.1439
 2459DPPC   C4A51200  11.617   3.630  26.005 -0.2254  0.0930 -0.0147
 2459DPPC   C1B51201  11.310   2.746  25.104 -0.0860 -0.1546 -0.0300
 2459DPPC   C2B51202  11.058   2.862  25.464 -0.2453  0.2953  0.2329
 2459DPPC   C3B51203  11.105   3.177  25.798 -0.1173 -0.1138  0.2198
 2459DPPC   C4B51204  11.303   3.007  26.128 -0.1520 -0.4030  0.0136
 2460DPPC   NC351205  22.643  14.301  16.690 -0.1577 -0.0527 -0.3065
 2460DPPC   PO451206  22.532  13.944  16.681  0.0302 -0.1479  0.1974
 2460DPPC   GL151207  22.467  13.678  17.084 -0.0625 -0.2211 -0.0228
 2460DPPC   GL251208  22.543  13.329  17.152 -0.0022  0.1224 -0.0683
 2460DPPC   C1A51209  22.230  13.691  17.407  0.0831  0.0254 -0.0861
 2460DPPC   C2A51210  21.912  13.443  17.766  0.1667  0.1494 -0.0185
 2460DPPC   C3A51211  21.536  13.292  17.873 -0.0745  0.2148  0.3626
 2460DPPC   C4A51212  20.975  13.206  17.971 -0.0115 -0.1076  0.2224
 2460DPPC   C1B51213  22.291  13.144  17.523  0.1451 -0.1491  0.4527
 2460DPPC   C2B51214  22.369  12.812  17.755 -0.1807  0.2575 -0.1856
 2460DPPC   C3B51215  22.416  12.738  18.277  0.1505 -0.1519 -0.1202
 2460DPPC   C4B51216  22.514  12.781  18.705 -0.0827  0.1258  0.0902
 2461DPPC   NC351217   8.611  12.098  34.417  0.0154  0.0058  0.0037
 2461DPPC   PO451218   8.264  11.854  34.362 -0.0509  0.0395 -0.1371
 2461DPPC   GL151219   8.015  11.800  34.727  0.0496  0.0044 -0.1090
 2461DPPC   GL251220   7.843  11.982  35.023 -0.1917  0.1911  0.0620
 2461DPPC   C1A51221   7.559  11.479  34.708 -0.0434 -0.2193  0.4925
 2461DPPC   C2A51222   7.439  11.177  34.952  0.0802  0.2678 -0.1423
 2461DPPC   C3A51223   7.284  10.990  35.325 -0.0158 -0.2558  0.3980
 2461DPPC   C4A51224   7.004  10.940  35.640  0.0914 -0.3419 -0.2291
 2461DPPC   C1B51225   7.528  11.955  34.733 -0.0173 -0.5144 -0.2488
 2461DPPC   C2B51226   7.137  11.799  34.739  0.1084 -0.0240  0.1418
 2461DPPC   C3B51227   6.661  11.807  34.795  0.3656  0.2870  0.0533
 2461DPPC   C4B51228   6.388  12.063  34.672 -0.2292 -0.1512 -0.0108
 2462DPPC   NC351229   7.615   4.691  24.562  0.4144  0.1134 -0.1376
 2462DPPC   PO451230   7.967   4.606  24.348 -0.2615 -0.1054 -0.2411
 2462DPPC   GL151231   8.074   4.886  24.610 -0.2471 -0.0318  0.0793
 2462DPPC   GL251232   7.890   5.233  24.580 -0.0653 -0.0851  0.2935
 2462DPPC   C1A51233   8.507   4.944  24.840 -0.0543 -0.0326 -0.1510
 2462DPPC   C2A51234   8.806   5.046  25.025  0.1309  0.0800  0.2251
 2462DPPC   C3A51235   8.902   5.182  25.412 -0.2968 -0.1321 -0.2228
 2462DPPC   C4A51236   9.067   5.391  25.761  0.0468 -0.2592  0.1017
 2462DPPC   C1B51237   8.070   5.338  24.885 -0.1089  0.2220  0.4459
 2462DPPC   C2B51238   8.380   5.525  25.019 -0.2159 -0.2392 -0.2021
 2462DPPC   C3B51239   8.791   5.581  25.085 -0.0926  0.0764 -0.0958
 2462DPPC   C4B51240   9.238   5.539  25.296  0.0311 -0.2028  0.0797
 2463DPPC   NC351241  16.659  19.774  23.845 -0.0344 -0.2507 -0.0741
 2463DPPC   PO451242  17.071  19.621  23.735 -0.0159  0.0826  0.2141
 2463DPPC   GL151243  17.185  20.075  23.580 -0.0376 -0.0205 -0.0399
 2463DPPC   GL251244  16.923  20.158  23.682 -0.2699  0.0013  0.2179
 2463DPPC   C1A51245  17.190  20.443  23.353 -0.0541  0.0863 -0.0269
 2463DPPC   C2A51246  17.526  20.691  23.274 -0.2022  0.1167  0.0824
 2463DPPC   C3A51247  17.915  20.846  23.172 -0.0260 -0.4750  0.0675
 2463DPPC   C4A51248  18.328  21.055  23.112  0.0251  0.1317  0.1850
 2463DPPC   C1B51249  17.161  20.476  23.827 -0.0602 -0.0319  0.2482
 2463DPPC   C2B51250  17.420  20.836  23.796 -0.0511  0.1060 -0.1294
 2463DPPC   C3B51251  17.833  21.054  24.103  0.2389  0.0423  0.0798
 2463DPPC   C4B51252  18.059  21.287  24.387 -0.0910  0.3285 -0.0811
 2464DPPC   NC351253  17.426  19.106  23.056 -0.0552 -0.0958  0.1094
 2464DPPC   PO451254  17.919  19.225  23.116  0.1893  0.0427 -0.1801
 2464DPPC   GL151255  18.269  19.445  23.006  0.2988  0.1015 -0.0746
 2464DPPC   GL251256  18.495  19.227  22.760 -0.3260  0.0584 -0.0165
 2464DPPC   C1A51257  18.310  19.871  22.999 -0.2457  0.2972 -0.0840
 2464DPPC   C2A51258  18.576  20.139  22.934  0.1164  0.0617 -0.0771
 2464DPPC   C3A51259  18.724  20.502  22.942  0.1320  0.0340  0.0977
 2464DPPC   C4A51260  18.726  20.908  22.851 -0.1902 -0.3534  0.2308
 2464DPPC   C1B51261  18.721  19.614  22.864 -0.5037 -0.3816  0.0667
 2464DPPC   C2B51262  18.866  19.875  22.594  0.2339 -0.1163  0.4216
 2464DPPC   C3B51263  18.998  20.254  22.504 -0.0374  0.0449 -0.0696
 2464DPPC   C4B51264  19.265  20.593  22.710  0.2419 -0.4281 -0.0323
 2465DPPC   NC351265  18.953  14.925  19.602 -0.1701  0.0209  0.0345
 2465DPPC   PO451266  19.034  15.088  20.016 -0.1329  0.0931 -0.3144
 2465DPPC   GL151267  19.274  15.351  19.581 -0.0651  0.1248  0.0643
 2465DPPC   GL251268  19.625  15.398  19.605  0.1467  0.0893 -0.0148
 2465DPPC   C1A51269  19.189  15.399  19.115  0.0521  0.0967 -0.2321
 2465DPPC   C2A51270  19.431  15.549  18.844 -0.0350 -0.1961 -0.0797
 2465DPPC   C3A51271  19.497  15.428  18.405  0.0916 -0.1008 -0.0168
 2465DPPC   C4A51272  19.686  15.284  18.042  0.0044 -0.1557 -0.0706
 2465DPPC   C1B51273  19.680  15.187  19.095 -0.2315  0.1067 -0.1229
 2465DPPC   C2B51274  19.741  15.099  18.686 -0.3477  0.1039  0.0346
 2465DPPC   C3B51275  19.970  15.057  18.343  0.1720 -0.3978  0.2733
 2465DPPC   C4B51276  20.177  14.904  18.018 -0.0881 -0.1100 -0.0356
 2466DPPC   NC351277   3.514  16.591  32.391  0.0792 -0.0556 -0.0737
 2466DPPC   PO451278   3.580  17.000  32.403  0.1668  0.0149 -0.2757
 2466DPPC   GL151279   3.950  16.863  32.137  0.1733  0.0541  0.0738
 2466DPPC   GL251280   3.900  16.726  31.872  0.0476  0.1383  0.3617
 2466DPPC   C1A51281   4.384  16.877  32.335 -0.0238 -0.0754 -0.3240
 2466DPPC   C2A51282   4.779  16.696  32.309 -0.0690  0.2820 -0.1645
 2466DPPC   C3A51283   5.159  16.781  32.103 -0.2643 -0.2899  0.1342
 2466DPPC   C4A51284   5.610  16.696  31.974 -0.1745 -0.2287  0.2473
 2466DPPC   C1B51285   4.289  16.423  31.996  0.0835 -0.0421  0.1045
 2466DPPC   C2B51286   4.695  16.477  31.888 -0.0529  0.1564  0.1050
 2466DPPC   C3B51287   5.149  16.458  31.730 -0.0272 -0.0349 -0.2589
 2466DPPC   C4B51288   5.430  16.185  31.593  0.1669  0.0928  0.0023
 2467DPPC   NC351289  17.356  14.938  18.959  0.0655  0.0625 -0.0674
 2467DPPC   PO451290  17.124  15.195  19.174  0.0342 -0.1961  0.3221
 2467DPPC   GL151291  17.290  15.372  18.742 -0.2883 -0.2068 -0.0277
 2467DPPC   GL251292  17.306  15.120  18.519 -0.3152  0.2323 -0.0363
 2467DPPC   C1A51293  17.550  15.513  18.491 -0.0926 -0.1210 -0.2699
 2467DPPC   C2A51294  17.574  15.521  18.049  0.3597  0.1868  0.0298
 2467DPPC   C3A51295  17.454  15.649  17.552 -0.0095  0.1538 -0.0309
 2467DPPC   C4A51296  17.523  15.290  17.194 -0.1031 -0.3129 -0.3272
 2467DPPC   C1B51297  17.049  15.312  18.277 -0.2191  0.0633 -0.1805
 2467DPPC   C2B51298  17.035  15.456  17.880  0.0540  0.2136 -0.0653
 2467DPPC   C3B51299  16.965  15.729  17.592 -0.0060  0.0258  0.1790
 2467DPPC   C4B51300  17.330  16.086  17.574  0.1345 -0.1576  0.1412
 2468DPPC   NC351301   3.149  13.945  27.792  0.1241 -0.2006 -0.0525
 2468DPPC   PO451302   3.553  13.685  27.634 -0.0589 -0.0055  0.0372
 2468DPPC   GL151303   4.005  13.361  27.580  0.3703  0.3785  0.0036
 2468DPPC   GL251304   4.286  13.506  27.397 -0.3351  0.2097  0.0261
 2468DPPC   C1A51305   4.394  13.199  27.986  0.2250  0.3721 -0.2115
 2468DPPC   C2A51306   4.763  12.942  28.166  0.0264  0.2667  0.0747
 2468DPPC   C3A51307   4.901  12.695  28.490 -0.1690 -0.1997 -0.1260
 2468DPPC   C4A51308   5.294  12.484  28.555  0.1147  0.1258 -0.0804
 2468DPPC   C1B51309   4.645  13.294  27.576 -0.1465 -0.1010 -0.0567
 2468DPPC   C2B51310   5.122  13.111  27.663 -0.2038  0.5756  0.2163
 2468DPPC   C3B51311   5.180  12.746  28.027  0.0338 -0.0549 -0.1127
 2468DPPC   C4B51312   5.459  12.405  28.033 -0.1152  0.0339 -0.0177
 2469DPPC   NC351313   4.356  18.593  27.017 -0.1414 -0.0389 -0.2420
 2469DPPC   PO451314   4.779  18.407  26.945  0.0964 -0.1407 -0.0339
 2469DPPC   GL151315   4.983  18.463  27.400  0.1397 -0.1500 -0.0437
 2469DPPC   GL251316   5.132  18.749  27.535  0.2694 -0.2299 -0.1180
 2469DPPC   C1A51317   5.352  18.241  27.433  0.0227 -0.0107  0.0392
 2469DPPC   C2A51318   5.455  17.961  27.109  0.0493  0.2370 -0.1528
 2469DPPC   C3A51319   5.600  17.790  26.754 -0.1320 -0.2548 -0.1839
 2469DPPC   C4A51320   5.542  17.344  26.563  0.0330 -0.0368 -0.2949
 2469DPPC   C1B51321   5.364  18.669  27.186  0.1720 -0.0248  0.1259
 2469DPPC   C2B51322   5.794  18.498  27.395  0.1867 -0.3471  0.1663
 2469DPPC   C3B51323   5.818  18.054  27.465 -0.1631  0.1226 -0.0049
 2469DPPC   C4B51324   6.268  17.927  27.459 -0.1281 -0.0042  0.5504
 2470DPPC   NC351325  22.928   9.229  41.953 -0.2811 -0.1479 -0.1036
 2470DPPC   PO451326  22.700   9.376  41.531 -0.0379  0.0837  0.1991
 2470DPPC   GL151327  22.430   9.509  41.182 -0.0598 -0.5762  0.0464
 2470DPPC   GL251328  22.552   9.587  40.939 -0.0959 -0.1667 -0.1091
 2470DPPC   C1A51329  22.089   9.689  41.119 -0.0454 -0.0574  0.0944
 2470DPPC   C2A51330  21.764   9.550  40.857  0.0891 -0.0346 -0.1803
 2470DPPC   C3A51331  21.382   9.444  40.538  0.1211 -0.1166  0.0977
 2470DPPC   C4A51332  21.104   9.288  40.269 -0.0895  0.0774 -0.3838
 2470DPPC   C1B51333  22.513   9.668  40.592  0.2245  0.1486 -0.2073
 2470DPPC   C2B51334  22.286   9.780  40.209 -0.1257  0.3389  0.2966
 2470DPPC   C3B51335  22.023   9.697  39.802  0.0860  0.0235  0.0187
 2470DPPC   C4B51336  21.788   9.804  39.358 -0.1903 -0.0919  0.0307
 2471DPPC   NC351337  19.599  23.932  27.685 -0.0549 -0.1120 -0.1333
 2471DPPC   PO451338  19.267  23.953  27.881  0.2336  0.0121 -0.1472
 2471DPPC   GL151339  19.019  23.561  27.872 -0.0434 -0.2638  0.0253
 2471DPPC   GL251340  18.783  23.475  28.166  0.0426  0.0185  0.1864
 2471DPPC   C1A51341  19.029  23.115  27.736 -0.1868 -0.0081  0.1390
 2471DPPC   C2A51342  18.570  22.969  27.666 -0.3711 -0.4383  0.1673
 2471DPPC   C3A51343  18.132  22.991  27.541 -0.1106  0.0285 -0.2242
 2471DPPC   C4A51344  17.920  22.916  27.119 -0.0824 -0.1141 -0.3568
 2471DPPC   C1B51345  18.767  22.959  28.163  0.0467  0.2042 -0.0552
 2471DPPC   C2B51346  18.618  22.664  28.045  0.1145 -0.0988 -0.1159
 2471DPPC   C3B51347  18.509  22.454  27.697  0.1334  0.2049 -0.2981
 2471DPPC   C4B51348  18.576  22.025  27.505 -0.1718 -0.2932 -0.1810
 2472DPPC   NC351349  23.401  10.597  42.148  0.0888  0.3562  0.2152
 2472DPPC   PO451350  22.987  10.625  41.888 -0.2931 -0.0241 -0.1466
 2472DPPC   GL151351  22.533  10.611  41.559  0.4208  0.0642  0.0141
 2472DPPC   GL251352  22.169  10.457  41.693  0.2045  0.2261 -0.1598
 2472DPPC   C1A51353  22.272  10.447  41.234 -0.3164 -0.0359 -0.0283
 2472DPPC   C2A51354  21.884  10.355  41.009 -0.2904  0.1306 -0.1360
 2472DPPC   C3A51355  21.672  10.356  40.644 -0.0438 -0.0649  0.0130
 2472DPPC   C4A51356  21.620  10.378  40.182  0.0757 -0.2774 -0.0176
 2472DPPC   C1B51357  21.888  10.638  41.489  0.3722  0.0142  0.3044
 2472DPPC   C2B51358  21.991  10.842  41.152 -0.0354  0.4358  0.2216
 2472DPPC   C3B51359  21.937  11.128  40.871  0.0340  0.0597  0.0547
 2472DPPC   C4B51360  21.762  11.403  40.557 -0.0918  0.0129  0.0066
 2473DPPC   NC351361  25.284  14.919  38.802  0.3066 -0.2796  0.0042
 2473DPPC   PO451362  25.082  14.787  39.129  0.0051  0.1641 -0.1988
 2473DPPC   GL151363  24.762  14.589  38.918  0.0558  0.0328 -0.0093
 2473DPPC   GL251364  24.860  14.615  38.675  0.0442 -0.1265  0.0380
 2473DPPC   C1A51365  24.381  14.577  38.698  0.0849  0.3991  0.2110
 2473DPPC   C2A51366  24.026  14.708  38.358 -0.2713 -0.6101 -0.1275
 2473DPPC   C3A51367  23.753  14.676  37.974 -0.0062 -0.1696  0.0327
 2473DPPC   C4A51368  23.367  14.446  37.774 -0.2076  0.4019 -0.2568
 2473DPPC   C1B51369  25.013  14.531  38.221 -0.0429  0.0673 -0.4594
 2473DPPC   C2B51370  24.849  14.519  37.809 -0.1336 -0.3850  0.3524
 2473DPPC   C3B51371  24.671  14.833  37.708 -0.1726  0.0505  0.1196
 2473DPPC   C4B51372  24.290  15.077  37.646 -0.2396  0.1661 -0.0033
 2474DPPC   NC351373  25.959   4.587  29.338  0.0139 -0.0557 -0.3208
 2474DPPC   PO451374  25.923   4.969  29.558 -0.0676  0.1854 -0.0636
 2474DPPC   GL151375  25.574   5.107  29.722  0.2039  0.1049 -0.1030
 2474DPPC   GL251376  25.358   4.996  29.983 -0.0074 -0.0258  0.2149
 2474DPPC   C1A51377  25.316   5.508  29.659 -0.1058 -0.0559  0.2693
 2474DPPC   C2A51378  25.035   5.880  29.427 -0.1318  0.0312  0.0257
 2474DPPC   C3A51379  24.838   6.041  29.250 -0.1880 -0.0592 -0.0517
 2474DPPC   C4A51380  24.809   6.452  29.205  0.0892  0.0302  0.0654
 2474DPPC   C1B51381  25.117   5.347  30.199  0.0605  0.0436  0.1206
 2474DPPC   C2B51382  24.889   5.605  30.089 -0.0465 -0.0294  0.1798
 2474DPPC   C3B51383  24.687   5.886  29.861  0.5864  0.0774  0.4222
 2474DPPC   C4B51384  24.316   6.135  29.485  0.0330  0.0414  0.1567
 2475DPPC   NC351385   9.815   3.625  37.276 -0.0051 -0.1793  0.0937
 2475DPPC   PO451386  10.012   3.721  36.918  0.1569 -0.0341 -0.1500
 2475DPPC   GL151387   9.853   4.115  36.557  0.2435 -0.1296 -0.1081
 2475DPPC   GL251388   9.550   4.325  36.613 -0.2374 -0.0904 -0.2548
 2475DPPC   C1A51389   9.980   4.386  36.202 -0.1901  0.1474  0.1673
 2475DPPC   C2A51390  10.157   4.783  35.982 -0.0350  0.1706 -0.0801
 2475DPPC   C3A51391  10.120   5.237  36.038 -0.0849 -0.0723 -0.1463
 2475DPPC   C4A51392  10.015   5.583  36.342 -0.1037 -0.1254 -0.1627
 2475DPPC   C1B51393   9.839   4.598  36.665 -0.1889 -0.0779  0.3450
 2475DPPC   C2B51394  10.104   4.945  36.498 -0.2054  0.0182 -0.0757
 2475DPPC   C3B51395  10.430   5.278  36.463 -0.3382  0.0917 -0.0557
 2475DPPC   C4B51396  10.874   5.524  36.429  0.3193 -0.0036 -0.0211
 2476DPPC   NC351397   0.321  12.296  35.281  0.1890  0.1226  0.1230
 2476DPPC   PO451398   0.323  12.082  34.894 -0.3131  0.1723 -0.3147
 2476DPPC   GL151399  26.967  12.232  34.889 -0.3399  0.0015  0.1428
 2476DPPC   GL251400  27.020  12.545  34.976  0.2532  0.0860 -0.3716
 2476DPPC   C1A51401  26.610  12.066  34.739  0.1638  0.0267  0.0638
 2476DPPC   C2A51402  26.249  12.124  34.836  0.2528 -0.1210  0.1048
 2476DPPC   C3A51403  25.892  11.895  34.813 -0.0552  0.0545 -0.2581
 2476DPPC   C4A51404  25.690  11.487  35.016  0.1258  0.1728 -0.0988
 2476DPPC   C1B51405  26.600  12.624  34.865 -0.4190  0.0117 -0.2841
 2476DPPC   C2B51406  26.300  12.675  34.498 -0.1424  0.3026 -0.1554
 2476DPPC   C3B51407  25.996  12.717  34.180  0.0958 -0.0186 -0.0370
 2476DPPC   C4B51408  25.915  12.417  34.018  0.0932  0.1572  0.2991
 2477DPPC   NC351409  23.687  18.366  25.440 -0.0733  0.0759  0.0204
 2477DPPC   PO451410  23.684  17.947  25.575  0.1251  0.0922 -0.3390
 2477DPPC   GL151411  23.380  17.766  25.734 -0.3564  0.0425 -0.2198
 2477DPPC   GL251412  23.142  17.676  25.532  0.1030 -0.1147 -0.0463
 2477DPPC   C1A51413  23.085  17.491  26.017  0.1058 -0.0160 -0.2772
 2477DPPC   C2A51414  23.238  17.040  25.983 -0.2017 -0.0232  0.1566
 2477DPPC   C3A51415  23.015  16.694  25.691 -0.1377 -0.2540  0.0903
 2477DPPC   C4A51416  22.774  16.333  25.577  0.0594 -0.3131  0.1758
 2477DPPC   C1B51417  22.667  17.661  25.498  0.1601  0.1203 -0.3012
 2477DPPC   C2B51418  22.385  17.340  25.605  0.1862  0.0226  0.1694
 2477DPPC   C3B51419  22.172  17.049  25.759 -0.4455 -0.0279  0.2941
 2477DPPC   C4B51420  21.714  16.729  25.935 -0.0789  0.1577  0.1051
 2478DPPC   NC351421  16.988   0.864  34.416  0.1704  0.0935  0.1220
 2478DPPC   PO451422  17.382   0.887  34.178 -0.3574 -0.0307  0.2234
 2478DPPC   GL151423  17.406   1.115  34.212  0.1892 -0.0493 -0.0125
 2478DPPC   GL251424  17.328   1.279  34.462 -0.1270  0.0055  0.0143
 2478DPPC   C1A51425  17.381   1.581  34.048 -0.2527  0.1981 -0.0007
 2478DPPC   C2A51426  17.307   1.961  33.813 -0.2812  0.0820  0.3595
 2478DPPC   C3A51427  17.297   2.316  33.582  0.1730 -0.2682  0.2213
 2478DPPC   C4A51428  16.884   2.401  33.293  0.3638 -0.0070 -0.0138
 2478DPPC   C1B51429  17.384   1.769  34.478 -0.3716 -0.2035 -0.1576
 2478DPPC   C2B51430  17.357   2.217  34.322  0.1068 -0.1244  0.2342
 2478DPPC   C3B51431  17.290   2.538  34.089 -0.1804 -0.0586 -0.3001
 2478DPPC   C4B51432  16.886   2.559  33.829  0.1619 -0.1324 -0.2919
 2479DPPC   NC351433   5.597   9.107  37.568 -0.0262  0.1215  0.0152
 2479DPPC   PO451434   5.810   9.532  37.423  0.0437  0.1105  0.0773
 2479DPPC   GL151435   6.212   9.730  37.395 -0.1266  0.2374 -0.0297
 2479DPPC   GL251436   6.463   9.894  37.511 -0.1032  0.0540  0.2732
 2479DPPC   C1A51437   6.667   9.562  37.157 -0.1599  0.2475 -0.1106
 2479DPPC   C2A51438   6.929   9.861  36.970  0.0893 -0.1370  0.0051
 2479DPPC   C3A51439   7.061   9.924  36.643  0.4300  0.2470  0.1303
 2479DPPC   C4A51440   7.150  10.287  36.319 -0.0244  0.0634  0.1276
 2479DPPC   C1B51441   6.906   9.746  37.568 -0.0220 -0.0738  0.0448
 2479DPPC   C2B51442   7.257   9.886  37.385  0.0504  0.0391 -0.0811
 2479DPPC   C3B51443   7.534  10.124  37.256 -0.0874  0.1842 -0.0586
 2479DPPC   C4B51444   7.736  10.429  37.128 -0.2499  0.0101  0.0356
 2480DPPC   NC351445  22.590  12.585  25.228  0.0538 -0.5631 -0.1829
 2480DPPC   PO451446  22.643  12.510  24.781 -0.1156  0.0487 -0.1249
 2480DPPC   GL151447  22.856  12.872  24.565  0.0858  0.3412 -0.2444
 2480DPPC   GL251448  22.823  12.961  24.376 -0.2515 -0.0706  0.2877
 2480DPPC   C1A51449  22.927  13.311  24.669 -0.3169  0.2170  0.0257
 2480DPPC   C2A51450  23.163  13.591  24.910  0.0857 -0.2175 -0.0321
 2480DPPC   C3A51451  23.527  13.845  25.103  0.0934  0.3943 -0.0693
 2480DPPC   C4A51452  23.743  14.018  25.411 -0.1369 -0.0182  0.0193
 2480DPPC   C1B51453  23.236  13.136  24.325  0.0785 -0.0312 -0.4797
 2480DPPC   C2B51454  23.572  13.322  24.509  0.0310 -0.2666 -0.0235
 2480DPPC   C3B51455  23.860  13.366  24.870  0.0702 -0.1914 -0.1694
 2480DPPC   C4B51456  23.961  13.833  24.909 -0.0686 -0.2026 -0.3877
 2481DPPC   NC351457  20.542   8.552  37.490  0.0133  0.0390 -0.1566
 2481DPPC   PO451458  20.770   8.910  37.619 -0.2541  0.0490 -0.2186
 2481DPPC   GL151459  21.161   8.914  37.794  0.0939  0.5549  0.1228
 2481DPPC   GL251460  21.173   8.552  37.791  0.1221  0.2570  0.2328
 2481DPPC   C1A51461  21.609   8.902  37.891  0.1399 -0.0341  0.1227
 2481DPPC   C2A51462  21.953   8.855  38.017 -0.1017 -0.2581 -0.2343
 2481DPPC   C3A51463  22.284   8.907  38.317  0.2028  0.0905  0.1475
 2481DPPC   C4A51464  22.717   9.083  38.316  0.1664 -0.2114 -0.2645
 2481DPPC   C1B51465  21.314   8.251  38.011 -0.1270 -0.2040 -0.0938
 2481DPPC   C2B51466  21.477   8.362  38.389  0.0653  0.0810  0.0498
 2481DPPC   C3B51467  22.020   8.482  38.488 -0.1962  0.1004 -0.2963
 2481DPPC   C4B51468  22.272   8.515  38.925 -0.0129 -0.0090 -0.1926
 2482DPPC   NC351469  18.916  16.201  21.449  0.0805 -0.1230  0.1037
 2482DPPC   PO451470  18.939  16.495  21.036  0.1901  0.1240  0.0488
 2482DPPC   GL151471  18.997  16.639  20.643 -0.1293  0.0870  0.0320
 2482DPPC   GL251472  18.993  16.955  20.794  0.2507 -0.2153  0.0158
 2482DPPC   C1A51473  19.394  16.772  20.539  0.0509  0.0424  0.0090
 2482DPPC   C2A51474  19.493  17.047  20.216  0.1755 -0.1895  0.1934
 2482DPPC   C3A51475  19.574  17.129  19.765 -0.0126 -0.0948 -0.0541
 2482DPPC   C4A51476  19.536  17.282  19.391 -0.3143 -0.0142  0.0219
 2482DPPC   C1B51477  19.032  17.190  20.366 -0.1389  0.1944 -0.1925
 2482DPPC   C2B51478  19.159  17.495  20.140  0.0542 -0.1755 -0.1293
 2482DPPC   C3B51479  19.290  17.787  19.724  0.2394 -0.0713  0.2806
 2482DPPC   C4B51480  19.455  18.168  19.416  0.1198 -0.1349 -0.0567
 2483DPPC   NC351481  21.273  10.001  21.629 -0.0122 -0.0932  0.2863
 2483DPPC   PO451482  21.710   9.983  21.501 -0.1456  0.1826  0.0172
 2483DPPC   GL151483  22.065   9.860  21.338 -0.0359  0.0651  0.1817
 2483DPPC   GL251484  22.139   9.756  20.989  0.0422  0.1154  0.3219
 2483DPPC   C1A51485  22.466   9.649  21.331  0.0739  0.0930  0.1782
 2483DPPC   C2A51486  22.766   9.445  21.167 -0.0408  0.3331  0.0690
 2483DPPC   C3A51487  22.825   9.189  20.845 -0.1702  0.1300  0.4421
 2483DPPC   C4A51488  22.996   8.863  20.504 -0.0761 -0.0858 -0.2606
 2483DPPC   C1B51489  22.219   9.695  20.472 -0.2347 -0.0513 -0.0642
 2483DPPC   C2B51490  22.576   9.589  20.159  0.0870 -0.0027 -0.0706
 2483DPPC   C3B51491  22.595   9.668  19.799  0.0613  0.1653 -0.1511
 2483DPPC   C4B51492  22.633  10.082  19.479 -0.1872 -0.1087  0.1677
 2484DPPC   NC351493  21.261  13.604  20.351  0.0021 -0.1155 -0.0135
 2484DPPC   PO451494  21.240  13.756  20.845 -0.0271 -0.1076  0.0075
 2484DPPC   GL151495  21.547  14.020  20.761  0.1459  0.0325  0.0012
 2484DPPC   GL251496  21.596  14.162  20.543 -0.3348 -0.1415 -0.1534
 2484DPPC   C1A51497  21.867  14.360  20.907 -0.2983 -0.2029 -0.4040
 2484DPPC   C2A51498  22.258  14.476  20.880 -0.2297  0.0759  0.0779
 2484DPPC   C3A51499  22.698  14.351  20.696 -0.0804  0.1050  0.2572
 2484DPPC   C4A51500  22.971  13.963  20.825  0.1031  0.1222  0.2933
 2484DPPC   C1B51501  21.742  13.976  20.132  0.0523  0.0112  0.0401
 2484DPPC   C2B51502  22.302  13.760  20.076  0.0097  0.0546  0.2807
 2484DPPC   C3B51503  22.809  13.818  19.855 -0.0664  0.1051  0.0719
 2484DPPC   C4B51504  23.126  13.986  19.769 -0.2205  0.3058  0.1506
 2485DPPC   NC351505   3.846  11.826  27.758  0.1687  0.3470  0.2066
 2485DPPC   PO451506   3.825  11.479  27.436 -0.2847  0.2087 -0.1981
 2485DPPC   GL151507   4.242  11.516  27.640 -0.0276 -0.0299  0.2142
 2485DPPC   GL251508   4.258  11.710  27.989  0.0084 -0.1914 -0.2995
 2485DPPC   C1A51509   4.621  11.448  27.785  0.0883 -0.0405  0.2130
 2485DPPC   C2A51510   4.923  11.253  27.844 -0.1124 -0.0023 -0.2706
 2485DPPC   C3A51511   5.294  11.461  27.801 -0.0818  0.2758 -0.1583
 2485DPPC   C4A51512   5.691  11.560  27.730 -0.0497 -0.2783  0.0688
 2485DPPC   C1B51513   4.437  11.387  28.278 -0.4501  0.0745  0.2122
 2485DPPC   C2B51514   4.738  11.200  28.531 -0.5253 -0.0721  0.2805
 2485DPPC   C3B51515   4.954  11.222  28.848 -0.0651 -0.0007  0.2878
 2485DPPC   C4B51516   5.333  11.339  28.894  0.0214  0.2830  0.3212
 2486DPPC   NC351517  10.503  21.189  38.764 -0.1099 -0.1292  0.0937
 2486DPPC   PO451518  10.527  20.878  39.046  0.2574 -0.5057  0.3675
 2486DPPC   GL151519  10.641  20.676  38.732 -0.1369  0.1124  0.1650
 2486DPPC   GL251520  10.590  20.808  38.464 -0.3439  0.1295 -0.2203
 2486DPPC   C1A51521  10.664  20.335  38.404 -0.2662 -0.0120 -0.1487
 2486DPPC   C2A51522  10.431  20.110  38.354 -0.0292 -0.2496 -0.1462
 2486DPPC   C3A51523  10.155  20.176  38.026 -0.2871  0.0040  0.1715
 2486DPPC   C4A51524  10.084  20.488  37.734  0.0788 -0.2815 -0.0731
 2486DPPC   C1B51525  10.984  20.665  38.305 -0.0474 -0.0428  0.1312
 2486DPPC   C2B51526  11.167  20.771  37.897 -0.0523 -0.2040  0.0788
 2486DPPC   C3B51527  11.278  20.722  37.486  0.1426 -0.0562 -0.0433
 2486DPPC   C4B51528  11.059  20.260  37.304  0.3467  0.0818  0.1030
 2487DPPC   NC351529  20.695  11.831  19.423  0.0516  0.0388 -0.3647
 2487DPPC   PO451530  20.679  11.773  18.924 -0.0336 -0.1847  0.4241
 2487DPPC   GL151531  20.754  11.831  18.499  0.1087  0.2656  0.3920
 2487DPPC   GL251532  20.732  12.203  18.421 -0.0207  0.0308 -0.0038
 2487DPPC   C1A51533  20.883  11.436  18.369 -0.2275 -0.0362 -0.2483
 2487DPPC   C2A51534  21.095  11.015  18.522 -0.1189  0.0082 -0.0110
 2487DPPC   C3A51535  21.491  10.847  18.625  0.0140  0.2542  0.1244
 2487DPPC   C4A51536  21.876  10.685  18.417 -0.0170  0.1244  0.4666
 2487DPPC   C1B51537  21.243  12.330  18.282 -0.2796  0.0867  0.0295
 2487DPPC   C2B51538  21.469  12.597  18.610  0.0723 -0.1564 -0.2204
 2487DPPC   C3B51539  21.841  12.926  18.492  0.3718 -0.0489 -0.0781
 2487DPPC   C4B51540  21.981  13.078  18.051 -0.0141  0.2809 -0.0151
 2488DPPC   NC351541  18.097  17.206  43.302  0.2519  0.1871 -0.0652
 2488DPPC   PO451542  17.844  16.857  43.144  0.1450 -0.4827 -0.0347
 2488DPPC   GL151543  17.819  16.525  42.893 -0.1250  0.0586  0.0909
 2488DPPC   GL251544  18.144  16.558  42.662  0.3787  0.0988  0.1703
 2488DPPC   C1A51545  17.699  16.157  42.522 -0.2532  0.1640 -0.0293
 2488DPPC   C2A51546  17.616  16.118  42.055  0.1230  0.0033 -0.1241
 2488DPPC   C3A51547  17.481  16.117  41.642  0.0143  0.0114 -0.2194
 2488DPPC   C4A51548  17.448  16.146  41.215  0.3149  0.1826  0.2599
 2488DPPC   C1B51549  17.824  16.616  42.311 -0.3393  0.0214 -0.1357
 2488DPPC   C2B51550  17.651  16.552  41.833 -0.3766  0.1577 -0.4616
 2488DPPC   C3B51551  17.731  16.663  41.533 -0.1170 -0.0912 -0.0753
 2488DPPC   C4B51552  17.802  16.499  41.141  0.4345  0.2751  0.1056
 2489DPPC   NC351553  16.262  20.422  25.145 -0.1117  0.1099  0.1455
 2489DPPC   PO451554  16.034  20.143  24.800  0.2465 -0.0481 -0.2976
 2489DPPC   GL151555  16.180  20.569  24.667 -0.0460  0.2932 -0.0509
 2489DPPC   GL251556  16.350  20.805  24.834 -0.0956  0.2962 -0.1881
 2489DPPC   C1A51557  16.406  20.744  24.321  0.0101  0.0906 -0.2677
 2489DPPC   C2A51558  16.473  21.223  24.205  0.0710 -0.2775  0.2417
 2489DPPC   C3A51559  16.794  21.424  24.246  0.0457 -0.1782 -0.2453
 2489DPPC   C4A51560  17.010  21.664  24.448 -0.1005  0.3327 -0.0868
 2489DPPC   C1B51561  16.748  21.076  24.619 -0.0453 -0.0482  0.1882
 2489DPPC   C2B51562  17.185  21.222  24.617 -0.2028  0.1795  0.0182
 2489DPPC   C3B51563  17.511  21.402  24.407  0.2026  0.2600 -0.3824
 2489DPPC   C4B51564  17.878  21.847  24.539  0.2415  0.3619 -0.0701
 2490DPPC   NC351565  11.327  17.170  42.225  0.2723 -0.0655 -0.0681
 2490DPPC   PO451566  11.152  16.897  42.115 -0.1146 -0.1014  0.0549
 2490DPPC   GL151567  11.369  16.680  41.917  0.0386 -0.1508 -0.0739
 2490DPPC   GL251568  11.610  16.856  41.790  0.4495  0.0920  0.0759
 2490DPPC   C1A51569  11.485  16.422  41.538  0.0910  0.1546 -0.2102
 2490DPPC   C2A51570  11.543  16.509  41.052  0.0088 -0.1335 -0.1464
 2490DPPC   C3A51571  11.544  16.404  40.644 -0.0875  0.0006 -0.1477
 2490DPPC   C4A51572  11.465  15.973  40.415 -0.0358  0.3050 -0.0637
 2490DPPC   C1B51573  11.560  16.903  41.360  0.2155  0.3066 -0.0071
 2490DPPC   C2B51574  11.200  16.947  41.153  0.0152 -0.4467  0.2381
 2490DPPC   C3B51575  11.135  16.974  40.690 -0.1577  0.1611 -0.5044
 2490DPPC   C4B51576  11.389  16.836  40.408  0.5257 -0.2610  0.2396
 2491DPPC   NC351577  17.784  17.274  20.647  0.1977 -0.5324  0.0479
 2491DPPC   PO451578  17.640  17.099  20.273  0.2937 -0.0161  0.2607
 2491DPPC   GL151579  17.718  17.461  20.111 -0.1729 -0.0009 -0.1099
 2491DPPC   GL251580  17.899  17.410  19.826  0.0724 -0.1688 -0.0774
 2491DPPC   C1A51581  17.651  17.881  20.175  0.0260  0.2928 -0.1616
 2491DPPC   C2A51582  18.075  18.172  20.243  0.2635 -0.0252 -0.5942
 2491DPPC   C3A51583  18.462  18.193  20.108  0.2826  0.1414 -0.1468
 2491DPPC   C4A51584  18.980  18.249  19.999  0.2003  0.2068 -0.2510
 2491DPPC   C1B51585  17.843  17.673  19.501 -0.0097  0.0392 -0.1902
 2491DPPC   C2B51586  17.900  17.770  19.051  0.2073  0.1638  0.2273
 2491DPPC   C3B51587  17.889  17.680  18.626 -0.0108 -0.1232  0.1340
 2491DPPC   C4B51588  17.975  17.680  18.192  0.1362 -0.0690  0.3251
 2492DPPC   NC351589  16.847  12.910  18.687  0.1455 -0.0852  0.2503
 2492DPPC   PO451590  17.112  12.638  18.736  0.1772 -0.3725  0.0364
 2492DPPC   GL151591  17.184  12.433  18.397 -0.0972  0.2912  0.0129
 2492DPPC   GL251592  17.434  12.256  18.459 -0.1572  0.1238 -0.3063
 2492DPPC   C1A51593  17.203  12.248  17.831  0.0749 -0.3035 -0.1627
 2492DPPC   C2A51594  16.977  12.536  17.493 -0.4866  0.2975  0.3286
 2492DPPC   C3A51595  17.023  13.039  17.433 -0.2617  0.0555 -0.2124
 2492DPPC   C4A51596  16.922  13.487  17.404  0.0946 -0.0353 -0.2237
 2492DPPC   C1B51597  17.628  12.104  18.093  0.1630 -0.3251 -0.0363
 2492DPPC   C2B51598  17.817  12.007  17.695 -0.0608 -0.1843 -0.1501
 2492DPPC   C3B51599  17.967  12.289  17.349 -0.0746  0.1080 -0.0333
 2492DPPC   C4B51600  17.747  12.573  17.086 -0.0214  0.0417  0.0367
 2493DPPC   NC351601  15.013  12.302  23.261  0.2099  0.2871  0.2451
 2493DPPC   PO451602  15.496  12.402  23.413 -0.2595 -0.1317  0.2470
 2493DPPC   GL151603  15.824  12.450  23.704  0.2455  0.0107  0.1464
 2493DPPC   GL251604  15.844  12.840  23.601  0.2492  0.1565 -0.0539
 2493DPPC   C1A51605  16.006  12.483  24.178  0.2329  0.2098 -0.1600
 2493DPPC   C2A51606  16.146  12.459  24.569 -0.0671  0.3377 -0.1062
 2493DPPC   C3A51607  16.115  12.778  24.905  0.0279 -0.0568 -0.0405
 2493DPPC   C4A51608  15.953  12.986  25.316  0.0289 -0.0442  0.2813
 2493DPPC   C1B51609  16.170  12.880  23.927  0.2596  0.1204  0.2757
 2493DPPC   C2B51610  16.363  12.825  24.242 -0.0120  0.0417  0.1938
 2493DPPC   C3B51611  16.479  12.786  24.573  0.1079  0.0160  0.0288
 2493DPPC   C4B51612  16.566  12.674  24.995  0.1220 -0.4085 -0.1231
 2494DPPC   NC351613  26.962  15.227  30.779  0.1588 -0.1272  0.0967
 2494DPPC   PO451614  27.049  14.938  31.052  0.1422 -0.3798  0.0656
 2494DPPC   GL151615  26.727  14.723  30.837  0.3010  0.1129 -0.4661
 2494DPPC   GL251616  26.746  14.428  30.909  0.0253  0.1087 -0.0173
 2494DPPC   C1A51617  26.342  14.896  30.830 -0.2030  0.0128  0.1974
 2494DPPC   C2A51618  25.945  14.971  30.845  0.2217 -0.5675  0.2345
 2494DPPC   C3A51619  25.695  14.686  30.720 -0.1971  0.0079  0.1432
 2494DPPC   C4A51620  25.333  14.462  30.830 -0.1385 -0.2123 -0.0490
 2494DPPC   C1B51621  26.332  14.432  30.936  0.2046 -0.0967  0.1232
 2494DPPC   C2B51622  25.951  14.401  31.018  0.3724  0.1169  0.1888
 2494DPPC   C3B51623  25.673  14.123  30.922  0.2028 -0.0450  0.1078
 2494DPPC   C4B51624  25.294  13.913  30.747  0.3907 -0.0443 -0.2071
 2495DPPC   NC351625  21.461  17.124  33.153 -0.0651  0.3092 -0.0897
 2495DPPC   PO451626  21.521  17.478  32.866  0.0649  0.3445  0.0257
 2495DPPC   GL151627  21.884  17.709  32.728  0.1499 -0.0274 -0.2696
 2495DPPC   GL251628  21.996  17.624  32.348 -0.1293 -0.0235 -0.2525
 2495DPPC   C1A51629  22.311  17.875  32.647 -0.1912  0.0770 -0.2602
 2495DPPC   C2A51630  22.691  17.974  32.617  0.1843  0.2096 -0.0566
 2495DPPC   C3A51631  22.970  18.171  32.361 -0.0704  0.0664  0.1975
 2495DPPC   C4A51632  23.373  18.176  32.381 -0.0401 -0.0324  0.1908
 2495DPPC   C1B51633  22.031  18.047  32.069 -0.0348  0.0547  0.3110
 2495DPPC   C2B51634  22.193  18.310  31.799  0.0422  0.0236 -0.2139
 2495DPPC   C3B51635  22.593  18.625  31.904 -0.1893 -0.2163 -0.3307
 2495DPPC   C4B51636  22.988  18.441  31.956  0.3375  0.0982 -0.0375
 2496DPPC   NC351637  16.081  13.692  15.241  0.1242 -0.0746  0.1016
 2496DPPC   PO451638  15.754  13.771  15.522  0.4785  0.4272 -0.1743
 2496DPPC   GL151639  15.831  13.880  15.941 -0.1802  0.0201 -0.2039
 2496DPPC   GL251640  15.629  13.980  16.141 -0.1802 -0.1020  0.4272
 2496DPPC   C1A51641  15.873  13.528  16.343 -0.0213 -0.0456 -0.0421
 2496DPPC   C2A51642  15.807  13.434  16.801  0.0600  0.0035 -0.3086
 2496DPPC   C3A51643  15.858  13.361  17.212 -0.0618  0.2651  0.2956
 2496DPPC   C4A51644  15.654  13.122  17.544  0.0353  0.1412  0.4114
 2496DPPC   C1B51645  15.598  14.323  16.386  0.0162  0.1013  0.1496
 2496DPPC   C2B51646  15.315  14.395  16.636 -0.2289 -0.1738 -0.1883
 2496DPPC   C3B51647  15.077  14.581  16.926 -0.1126 -0.0170 -0.1860
 2496DPPC   C4B51648  14.861  14.441  17.283  0.1009 -0.0265  0.2544
 2497DPPC   NC351649  17.507  19.993  27.473  0.2915  0.0805 -0.0190
 2497DPPC   PO451650  17.074  20.125  27.450 -0.2155  0.0736 -0.0890
 2497DPPC   GL151651  17.415  20.406  27.290  0.0426  0.1708 -0.1491
 2497DPPC   GL251652  17.817  20.317  27.237 -0.2020  0.0993 -0.0506
 2497DPPC   C1A51653  17.573  20.833  27.396 -0.0026 -0.1861 -0.3585
 2497DPPC   C2A51654  17.799  21.119  27.310  0.1237 -0.1347 -0.0233
 2497DPPC   C3A51655  18.015  21.329  27.063  0.1638 -0.2364 -0.1630
 2497DPPC   C4A51656  18.292  21.605  27.234  0.1184 -0.0282  0.1135
 2497DPPC   C1B51657  18.051  20.667  27.249 -0.1986 -0.3110 -0.2652
 2497DPPC   C2B51658  18.284  20.971  27.363 -0.1475 -0.0469  0.0202
 2497DPPC   C3B51659  18.687  21.261  27.354 -0.2493  0.1886 -0.0191
 2497DPPC   C4B51660  18.882  21.323  26.958  0.2338  0.0485 -0.0961
 2498DPPC   NC351661  18.213  14.332  23.295 -0.0375 -0.0072 -0.0071
 2498DPPC   PO451662  17.788  14.188  23.293  0.2084 -0.0192 -0.2506
 2498DPPC   GL151663  18.088  14.008  23.664 -0.1428  0.0329  0.0492
 2498DPPC   GL251664  18.231  13.827  23.539  0.0123 -0.0656  0.1180
 2498DPPC   C1A51665  17.849  13.857  24.064 -0.3140 -0.4128 -0.1488
 2498DPPC   C2A51666  17.642  13.677  24.420 -0.1382 -0.1422 -0.4469
 2498DPPC   C3A51667  17.360  13.618  24.769 -0.1345 -0.2558 -0.0880
 2498DPPC   C4A51668  17.070  13.571  25.167  0.0314  0.2638  0.1088
 2498DPPC   C1B51669  18.493  13.862  23.879  0.2879 -0.2276 -0.0229
 2498DPPC   C2B51670  18.727  13.624  24.238  0.0237 -0.0770 -0.1709
 2498DPPC   C3B51671  18.934  13.632  24.549  0.0121 -0.0622 -0.0602
 2498DPPC   C4B51672  19.338  13.435  24.675  0.3277  0.2305 -0.0035
 2499DPPC   NC351673  15.925  11.377  23.922  0.0798 -0.0869  0.0896
 2499DPPC   PO451674  16.282  11.571  23.781 -0.0743  0.3356 -0.5360
 2499DPPC   GL151675  16.224  11.675  24.175  0.0585 -0.2568 -0.2402
 2499DPPC   GL251676  16.222  11.540  24.462 -0.1375  0.0681  0.3450
 2499DPPC   C1A51677  15.983  11.983  24.379 -0.0865  0.1078 -0.0650
 2499DPPC   C2A51678  15.680  12.188  24.577  0.0910 -0.1157  0.3256
 2499DPPC   C3A51679  15.529  12.442  24.378 -0.1560 -0.0837 -0.0842
 2499DPPC   C4A51680  15.197  12.729  24.334  0.0013  0.0389 -0.3424
 2499DPPC   C1B51681  16.447  11.687  24.920 -0.0450 -0.2482 -0.0178
 2499DPPC   C2B51682  16.637  11.972  25.234 -0.1281  0.1585  0.0006
 2499DPPC   C3B51683  16.787  12.056  25.621 -0.3360  0.3112 -0.3382
 2499DPPC   C4B51684  17.092  12.068  25.991 -0.4562 -0.4424  0.2867
 2500DPPC   NC351685   5.421   8.484  25.305 -0.2912  0.0759  0.0832
 2500DPPC   PO451686   5.343   8.383  24.927  0.4043 -0.0992  0.1714
 2500DPPC   GL151687   5.600   8.875  24.990  0.0975 -0.0325 -0.2354
 2500DPPC   GL251688   5.517   9.214  25.000 -0.0001 -0.0367 -0.0283
 2500DPPC   C1A51689   6.007   9.146  24.966 -0.0178  0.0708  0.1112
 2500DPPC   C2A51690   6.428   9.336  25.013 -0.0438  0.2982  0.0406
 2500DPPC   C3A51691   6.752   9.591  25.030 -0.1089  0.0202 -0.0488
 2500DPPC   C4A51692   7.114   9.855  25.260  0.0255  0.2585 -0.0583
 2500DPPC   C1B51693   5.717   9.393  25.343 -0.0250 -0.0209 -0.3266
 2500DPPC   C2B51694   5.993   9.679  25.509  0.2544 -0.0090 -0.0431
 2500DPPC   C3B51695   6.088  10.115  25.599 -0.1311 -0.0737 -0.5024
 2500DPPC   C4B51696   6.360  10.292  25.816  0.0715  0.0890 -0.1756
 2501DPPC   NC351697  21.018  10.509  19.956 -0.0215 -0.2785  0.3008
 2501DPPC   PO451698  20.968  10.945  20.090 -0.4097 -0.0195 -0.0097
 2501DPPC   GL151699  21.390  10.933  19.942  0.0154  0.2378  0.3317
 2501DPPC   GL251700  21.415  11.272  19.843  0.1783  0.2341  0.3247
 2501DPPC   C1A51701  21.641  10.787  19.542 -0.0261  0.0898  0.1393
 2501DPPC   C2A51702  21.945  10.940  19.229  0.0367  0.2303 -0.1743
 2501DPPC   C3A51703  21.969  11.033  18.787 -0.0343 -0.0721  0.2502
 2501DPPC   C4A51704  22.109  11.463  18.662 -0.1784 -0.0908  0.1226
 2501DPPC   C1B51705  21.837  11.324  19.534 -0.0270  0.0579 -0.0358
 2501DPPC   C2B51706  22.150  11.395  19.206 -0.1444  0.1138  0.1414
 2501DPPC   C3B51707  22.435  11.202  18.993  0.1268  0.0380 -0.0739
 2501DPPC   C4B51708  22.362  11.063  18.490 -0.0204 -0.1172  0.1236
 2502DPPC   NC351709   4.094  17.729  30.838  0.2980  0.3672  0.2513
 2502DPPC   PO451710   4.169  17.722  30.452  0.1754 -0.0588  0.1642
 2502DPPC   GL151711   4.514  17.667  30.155 -0.2047  0.4257  0.0842
 2502DPPC   GL251712   4.688  17.617  30.392 -0.1499  0.3721  0.0090
 2502DPPC   C1A51713   4.891  17.921  29.935 -0.2809  0.0739  0.0634
 2502DPPC   C2A51714   5.344  17.847  29.772 -0.1193 -0.3573  0.0933
 2502DPPC   C3A51715   5.688  17.525  29.668  0.0257  0.1940  0.0303
 2502DPPC   C4A51716   5.987  17.261  29.503 -0.0585  0.1354  0.0132
 2502DPPC   C1B51717   4.635  17.166  30.373 -0.0118  0.2648 -0.3624
 2502DPPC   C2B51718   4.800  16.776  30.569  0.0468 -0.3271 -0.0290
 2502DPPC   C3B51719   5.244  16.551  30.499  0.4425 -0.0078  0.2945
 2502DPPC   C4B51720   5.668  16.524  30.280  0.1536  0.1355  0.0692
 2503DPPC   NC351721  19.529  12.277  27.176 -0.0076 -0.3004  0.0510
 2503DPPC   PO451722  19.103  12.290  26.976 -0.4614  0.0135  0.0947
 2503DPPC   GL151723  18.801  12.348  26.710 -0.2291 -0.0175 -0.5105
 2503DPPC   GL251724  18.435  12.525  26.803  0.1386  0.0147 -0.4879
 2503DPPC   C1A51725  18.764  12.722  26.415 -0.0154  0.2474  0.1905
 2503DPPC   C2A51726  18.784  12.933  26.073 -0.0097 -0.1656 -0.3227
 2503DPPC   C3A51727  18.530  13.117  25.754 -0.2998 -0.3290 -0.0726
 2503DPPC   C4A51728  18.678  13.141  25.339  0.2844 -0.0693  0.3240
 2503DPPC   C1B51729  18.296  12.078  26.662 -0.1419  0.2624 -0.0261
 2503DPPC   C2B51730  18.456  11.631  26.905 -0.1069 -0.2250 -0.1417
 2503DPPC   C3B51731  18.199  11.288  26.971  0.1897 -0.4304 -0.0700
 2503DPPC   C4B51732  17.783  11.081  26.961 -0.1674 -0.0629 -0.2722
 2504DPPC   NC351733  13.452  10.306  15.840  0.1980 -0.2784  0.0420
 2504DPPC   PO451734  13.580   9.920  16.008  0.0711  0.2554 -0.1342
 2504DPPC   GL151735  13.875   9.763  16.309 -0.1844  0.0063  0.1799
 2504DPPC   GL251736  13.614   9.672  16.566 -0.2429 -0.3555 -0.1673
 2504DPPC   C1A51737  14.258   9.917  16.527  0.0176  0.1424  0.1252
 2504DPPC   C2A51738  14.374   9.904  16.955 -0.0011  0.1072  0.2207
 2504DPPC   C3A51739  14.526   9.810  17.372 -0.0207  0.2289 -0.2117
 2504DPPC   C4A51740  14.401   9.858  17.820  0.3063  0.3801 -0.0014
 2504DPPC   C1B51741  13.911  10.046  16.828  0.1343  0.0113 -0.0309
 2504DPPC   C2B51742  14.029  10.014  17.304  0.4574 -0.3629  0.0032
 2504DPPC   C3B51743  13.946  10.151  17.721  0.1236 -0.0540  0.0855
 2504DPPC   C4B51744  14.080  10.384  18.097  0.0317  0.1214  0.1431
 2505DPPC   NC351745  17.826  18.657  21.831 -0.4508 -0.1897 -0.1890
 2505DPPC   PO451746  17.477  18.840  21.624 -0.0931  0.0200  0.0519
 2505DPPC   GL151747  17.479  19.001  21.323 -0.1273 -0.0551 -0.0944
 2505DPPC   GL251748  17.197  18.957  21.160 -0.1894  0.0020  0.0063
 2505DPPC   C1A51749  17.756  19.269  21.228 -0.2326  0.3327 -0.1324
 2505DPPC   C2A51750  17.982  19.453  21.513  0.1138  0.0472 -0.0461
 2505DPPC   C3A51751  18.355  19.759  21.494  0.2078  0.1684 -0.5785
 2505DPPC   C4A51752  18.842  19.841  21.551  0.1329 -0.2747 -0.1296
 2505DPPC   C1B51753  17.195  19.124  20.697 -0.3542  0.1056 -0.1865
 2505DPPC   C2B51754  17.487  19.030  20.442 -0.3435 -0.1068  0.2162
 2505DPPC   C3B51755  17.653  18.956  20.012  0.2546 -0.1914  0.0146
 2505DPPC   C4B51756  17.639  19.330  19.692 -0.1664 -0.1238 -0.0211
 2506DPPC   NC351757  10.660  14.314  17.461 -0.1210 -0.1613 -0.1919
 2506DPPC   PO451758  10.636  13.880  17.314  0.0382 -0.0813 -0.1212
 2506DPPC   GL151759  10.714  13.830  17.785 -0.0828  0.1622  0.1001
 2506DPPC   GL251760  10.437  13.570  17.979  0.0937 -0.0393 -0.1927
 2506DPPC   C1A51761  11.001  13.580  18.144 -0.2688  0.0027 -0.2679
 2506DPPC   C2A51762  11.363  13.623  18.500 -0.3594  0.1015 -0.0585
 2506DPPC   C3A51763  11.407  13.620  18.968  0.0496  0.1986  0.2138
 2506DPPC   C4A51764  11.827  13.676  19.115  0.0636  0.0238 -0.3218
 2506DPPC   C1B51765  10.634  13.733  18.421 -0.1642 -0.0061  0.1893
 2506DPPC   C2B51766  10.960  13.860  18.775  0.1254  0.2959  0.0100
 2506DPPC   C3B51767  11.211  14.118  19.031 -0.3653  0.0295  0.1308
 2506DPPC   C4B51768  11.213  14.525  19.251 -0.0865  0.0439  0.2175
 2507DPPC   NC351769   0.918  14.062  31.615 -0.1739 -0.2139 -0.4128
 2507DPPC   PO451770   0.719  13.795  31.319 -0.2006  0.0818  0.0280
 2507DPPC   GL151771   0.387  13.464  31.254 -0.0385  0.1354  0.2558
 2507DPPC   GL251772   0.405  13.461  31.524  0.1224 -0.3463 -0.0333
 2507DPPC   C1A51773  26.987  13.445  31.031 -0.0961  0.0250 -0.0588
 2507DPPC   C2A51774  26.611  13.320  30.800 -0.0349 -0.1488 -0.0992
 2507DPPC   C3A51775  26.500  13.132  30.492  0.0724 -0.1755  0.1913
 2507DPPC   C4A51776  26.182  13.091  30.223 -0.0935 -0.0731  0.1152
 2507DPPC   C1B51777  27.002  13.491  31.615 -0.2526 -0.3748 -0.0586
 2507DPPC   C2B51778  26.609  13.437  31.299  0.0455 -0.0973 -0.5295
 2507DPPC   C3B51779  26.225  13.407  31.132  0.2510 -0.0056  0.1236
 2507DPPC   C4B51780  25.923  13.291  31.008 -0.0088  0.0496 -0.3207
 2508DPPC   NC351781  18.376  17.493  26.143 -0.0293  0.1626 -0.1623
 2508DPPC   PO451782  18.888  17.553  26.211 -0.2434 -0.0435 -0.0567
 2508DPPC   GL151783  19.200  17.441  25.859  0.0135 -0.3189  0.3450
 2508DPPC   GL251784  19.297  17.658  25.635  0.1724  0.3040  0.1338
 2508DPPC   C1A51785  19.460  17.187  25.544 -0.1848  0.1655 -0.4368
 2508DPPC   C2A51786  19.834  17.056  25.372 -0.1190 -0.1614  0.0075
 2508DPPC   C3A51787  20.069  16.935  25.055 -0.0254 -0.0884 -0.1961
 2508DPPC   C4A51788  20.290  16.723  24.890 -0.0021  0.2589 -0.0318
 2508DPPC   C1B51789  19.707  17.626  25.400 -0.2307  0.0211  0.2398
 2508DPPC   C2B51790  20.086  17.773  25.274 -0.0777 -0.1766  0.2178
 2508DPPC   C3B51791  20.488  17.816  25.334  0.0266 -0.0100 -0.0563
 2508DPPC   C4B51792  20.866  17.815  25.333 -0.2034 -0.1380  0.0877
 2509DPPC   NC351793   7.325   7.508  38.288  0.4969  0.3605  0.0914
 2509DPPC   PO451794   7.792   7.493  38.463  0.1664  0.2105 -0.0267
 2509DPPC   GL151795   8.175   7.471  38.215 -0.3370  0.0233  0.0244
 2509DPPC   GL251796   8.420   7.209  38.034  0.0976  0.1647  0.1764
 2509DPPC   C1A51797   8.251   7.687  37.810 -0.0572  0.1347 -0.2692
 2509DPPC   C2A51798   8.141   8.024  37.340  0.2492 -0.2339  0.0700
 2509DPPC   C3A51799   8.295   8.345  37.121  0.1130 -0.2005  0.1815
 2509DPPC   C4A51800   8.552   8.670  37.028 -0.1121  0.0266  0.2413
 2509DPPC   C1B51801   8.691   7.524  37.847 -0.0431  0.1679  0.4326
 2509DPPC   C2B51802   8.625   7.794  37.489  0.0688  0.1596  0.3418
 2509DPPC   C3B51803   8.790   7.985  37.135  0.1209  0.1944  0.0900
 2509DPPC   C4B51804   8.804   8.238  36.907 -0.1477  0.0088 -0.2066
 2510DPPC   NC351805   4.045   9.257  33.772  0.2459 -0.1924 -0.2263
 2510DPPC   PO451806   3.860   9.490  33.590 -0.0834 -0.2426  0.1568
 2510DPPC   GL151807   4.255   9.718  33.706  0.2681  0.2145 -0.0857
 2510DPPC   GL251808   4.401  10.036  33.920 -0.1647  0.0205  0.0422
 2510DPPC   C1A51809   4.626   9.893  33.421  0.0340  0.1269 -0.2141
 2510DPPC   C2A51810   5.065   9.732  33.312 -0.1220 -0.3287  0.3736
 2510DPPC   C3A51811   5.470   9.876  33.276 -0.1299  0.3117  0.0269
 2510DPPC   C4A51812   5.868   9.768  33.351 -0.2620 -0.2461  0.1692
 2510DPPC   C1B51813   4.727  10.345  34.102  0.2128 -0.1099 -0.0940
 2510DPPC   C2B51814   5.195  10.374  34.229  0.1456 -0.3919 -0.1203
 2510DPPC   C3B51815   5.654  10.481  34.104  0.3337  0.0148  0.1952
 2510DPPC   C4B51816   6.096  10.666  34.182  0.0335 -0.2804 -0.1721
 2511DPPC   NC351817  17.685  16.912  19.786 -0.3593 -0.1985 -0.0001
 2511DPPC   PO451818  17.853  16.529  19.708 -0.1329 -0.2556  0.0095
 2511DPPC   GL151819  18.090  16.874  19.439 -0.0420  0.1528  0.2358
 2511DPPC   GL251820  17.930  17.205  19.375  0.1685 -0.2679 -0.1377
 2511DPPC   C1A51821  18.179  16.939  19.010  0.2631 -0.3442  0.1509
 2511DPPC   C2A51822  18.337  17.195  18.621 -0.0225  0.0189  0.0547
 2511DPPC   C3A51823  18.284  17.316  18.211 -0.0682 -0.0313 -0.0800
 2511DPPC   C4A51824  18.393  17.279  17.734  0.1113 -0.2612  0.1822
 2511DPPC   C1B51825  17.853  17.297  18.860  0.4637  0.0814  0.1364
 2511DPPC   C2B51826  17.816  17.194  18.430  0.1063 -0.1967 -0.1279
 2511DPPC   C3B51827  17.953  16.866  18.215  0.0785  0.0210  0.2728
 2511DPPC   C4B51828  18.103  16.749  17.795 -0.2448  0.2886  0.0212
 2512DPPC   NC351829  26.516  10.968  22.316 -0.0842 -0.1294 -0.2219
 2512DPPC   PO451830  26.586  10.627  22.540 -0.3095  0.1603  0.2191
 2512DPPC   GL151831  26.248  10.421  22.651 -0.3491 -0.0758  0.0217
 2512DPPC   GL251832  26.299  10.170  22.474  0.1247 -0.3546  0.0292
 2512DPPC   C1A51833  25.882  10.479  22.723  0.3037  0.0733  0.1934
 2512DPPC   C2A51834  25.602  10.745  22.890 -0.2537  0.0583  0.3485
 2512DPPC   C3A51835  25.203  10.938  22.989  0.0849  0.1775  0.1710
 2512DPPC   C4A51836  25.104  11.204  23.313 -0.0764 -0.1693 -0.2437
 2512DPPC   C1B51837  25.930  10.021  22.508  0.2838 -0.1310 -0.0657
 2512DPPC   C2B51838  25.557   9.800  22.434 -0.0133 -0.2376 -0.1372
 2512DPPC   C3B51839  25.184   9.612  22.703  0.2571  0.0644  0.2191
 2512DPPC   C4B51840  24.767   9.292  22.659  0.0350  0.0166 -0.0097
 2513DPPC   NC351841  17.301  19.243  25.419 -0.0908 -0.0081  0.0989
 2513DPPC   PO451842  17.491  19.639  25.421  0.0419 -0.0776  0.0512
 2513DPPC   GL151843  17.775  19.886  25.728 -0.1546 -0.3268  0.2367
 2513DPPC   GL251844  17.629  19.976  26.082 -0.1470 -0.1005 -0.1155
 2513DPPC   C1A51845  18.120  20.158  25.961 -0.0345  0.0678  0.1567
 2513DPPC   C2A51846  18.366  20.503  25.836 -0.2995  0.2297  0.1380
 2513DPPC   C3A51847  18.525  20.882  25.785 -0.1369 -0.2496 -0.3286
 2513DPPC   C4A51848  18.574  21.255  25.668 -0.1484 -0.1618  0.0124
 2513DPPC   C1B51849  17.709  20.425  26.200  0.1140 -0.3866  0.0840
 2513DPPC   C2B51850  18.009  20.802  26.168  0.1314  0.1465  0.0685
 2513DPPC   C3B51851  18.170  21.169  25.959  0.2445 -0.0630  0.3084
 2513DPPC   C4B51852  17.998  21.479  25.703  0.3060 -0.1472 -0.0485
 2514DPPC   NC351853  21.553  13.564  21.233  0.2028 -0.1826  0.0531
 2514DPPC   PO451854  21.811  13.448  21.032  0.2147 -0.1664 -0.0093
 2514DPPC   GL151855  21.969  13.833  21.039 -0.1434 -0.0789 -0.1571
 2514DPPC   GL251856  21.940  14.036  21.332 -0.1299  0.3313 -0.1426
 2514DPPC   C1A51857  22.240  13.965  20.736 -0.0149 -0.3525 -0.0388
 2514DPPC   C2A51858  22.571  13.924  20.441  0.2683 -0.3138  0.2218
 2514DPPC   C3A51859  22.976  13.994  20.228  0.2067 -0.0262  0.0171
 2514DPPC   C4A51860  23.040  14.449  20.179 -0.0933  0.0853  0.1334
 2514DPPC   C1B51861  22.335  14.124  21.366  0.3769  0.2220  0.1205
 2514DPPC   C2B51862  22.583  14.366  21.223  0.1728 -0.3847  0.2288
 2514DPPC   C3B51863  23.064  14.424  21.109 -0.0342  0.1682 -0.0898
 2514DPPC   C4B51864  23.141  14.577  20.738 -0.0093  0.0380  0.0218
 2515DPPC   NC351865  21.928  22.795  31.956 -0.4815 -0.2650  0.1023
 2515DPPC   PO451866  21.778  22.391  32.035 -0.1839 -0.0264 -0.1130
 2515DPPC   GL151867  21.443  22.155  32.114  0.0011 -0.1150 -0.1315
 2515DPPC   GL251868  21.297  22.131  31.813 -0.0341  0.2102 -0.0925
 2515DPPC   C1A51869  21.227  21.942  32.271  0.1880  0.2712  0.0200
 2515DPPC   C2A51870  21.141  21.616  32.480  0.0750 -0.0928  0.1684
 2515DPPC   C3A51871  21.015  21.303  32.715  0.1247  0.1315  0.0535
 2515DPPC   C4A51872  20.903  20.935  32.932 -0.0395 -0.0480 -0.1688
 2515DPPC   C1B51873  20.947  22.012  31.856  0.0348  0.0240 -0.0062
 2515DPPC   C2B51874  20.739  21.734  32.031 -0.1469 -0.1713 -0.1259
 2515DPPC   C3B51875  20.746  21.392  32.242 -0.1999  0.1394 -0.0050
 2515DPPC   C4B51876  20.549  20.947  32.419 -0.0554 -0.0700 -0.0192
 2516DPPC   NC351877  15.168   5.386  42.009  0.1502  0.2192 -0.3288
 2516DPPC   PO451878  15.328   5.206  41.681 -0.1390 -0.2563 -0.2723
 2516DPPC   GL151879  15.337   5.428  41.383  0.0127  0.3286  0.3315
 2516DPPC   GL251880  15.103   5.384  41.153 -0.2931  0.0493  0.1849
 2516DPPC   C1A51881  15.528   5.843  41.313  0.3036 -0.1571 -0.0595
 2516DPPC   C2A51882  15.501   6.166  41.035 -0.1506  0.2378  0.0615
 2516DPPC   C3A51883  15.684   6.314  40.660  0.1945  0.2298  0.3587
 2516DPPC   C4A51884  15.834   6.247  40.163  0.4292 -0.2841 -0.0653
 2516DPPC   C1B51885  15.146   5.818  41.044 -0.0855 -0.0324  0.1460
 2516DPPC   C2B51886  15.122   6.139  40.724 -0.1091 -0.1887 -0.2970
 2516DPPC   C3B51887  15.283   6.484  40.444  0.0795  0.1970  0.6039
 2516DPPC   C4B51888  15.546   6.630  40.330 -0.0884  0.0733 -0.1167
 2517DPPC   NC351889  14.285  19.724  23.469  0.1100 -0.0820 -0.0834
 2517DPPC   PO451890  14.336  20.212  23.505  0.1049  0.2634 -0.0558
 2517DPPC   GL151891  14.264  20.381  23.174  0.0738 -0.0841  0.1595
 2517DPPC   GL251892  13.858  20.420  23.164 -0.1000 -0.1972 -0.0911
 2517DPPC   C1A51893  14.344  20.568  22.820  0.1407 -0.1574  0.0772
 2517DPPC   C2A51894  14.318  20.915  22.456  0.2279 -0.0788 -0.0299
 2517DPPC   C3A51895  13.951  20.986  22.311  0.0602 -0.2260  0.0540
 2517DPPC   C4A51896  13.810  21.156  21.927 -0.1714  0.1909  0.0805
 2517DPPC   C1B51897  13.837  20.696  22.856 -0.1157 -0.2525  0.1073
 2517DPPC   C2B51898  13.515  20.853  22.673 -0.1492 -0.2239  0.2361
 2517DPPC   C3B51899  13.572  21.292  22.421 -0.1913  0.3651 -0.2348
 2517DPPC   C4B51900  13.591  21.656  22.614 -0.0849 -0.2310 -0.1294
 2518DPPC   NC351901  14.506  23.217  39.027  0.1698  0.1317 -0.2416
 2518DPPC   PO451902  14.445  22.820  38.786  0.0435 -0.0337 -0.4077
 2518DPPC   GL151903  14.562  22.452  38.707 -0.0968 -0.1594  0.0640
 2518DPPC   GL251904  14.377  22.368  38.444  0.0545  0.1531  0.3918
 2518DPPC   C1A51905  14.905  22.243  38.676  0.0589  0.0857  0.1176
 2518DPPC   C2A51906  15.227  21.863  38.822 -0.1192 -0.0229 -0.1218
 2518DPPC   C3A51907  15.405  21.581  38.850  0.0811  0.0823  0.0473
 2518DPPC   C4A51908  15.552  21.140  38.583 -0.0212 -0.1906  0.3054
 2518DPPC   C1B51909  14.708  22.120  38.212  0.2039 -0.2266 -0.1094
 2518DPPC   C2B51910  15.058  21.865  38.293 -0.0834  0.2111  0.0598
 2518DPPC   C3B51911  15.140  21.436  38.280 -0.0708  0.2173 -0.0335
 2518DPPC   C4B51912  15.062  21.192  38.742 -0.2053  0.0160 -0.0530
 2519DPPC   NC351913  21.015   5.909  33.058 -0.0333 -0.0640  0.2132
 2519DPPC   PO451914  20.616   5.759  33.067 -0.1854 -0.0629  0.0833
 2519DPPC   GL151915  20.908   5.413  33.001  0.1945  0.0874 -0.1987
 2519DPPC   GL251916  21.146   5.349  33.219 -0.3965 -0.2023  0.2037
 2519DPPC   C1A51917  21.043   5.008  32.793 -0.1827 -0.0550  0.0599
 2519DPPC   C2A51918  21.270   4.678  32.865 -0.0980 -0.1530  0.0078
 2519DPPC   C3A51919  21.611   4.396  32.974 -0.0049 -0.0722 -0.2709
 2519DPPC   C4A51920  21.509   3.964  32.964 -0.0090  0.0874 -0.2248
 2519DPPC   C1B51921  21.520   5.177  33.065  0.2970 -0.1539 -0.1220
 2519DPPC   C2B51922  21.630   4.832  33.221 -0.1649  0.1036 -0.1482
 2519DPPC   C3B51923  21.939   4.960  33.448  0.4117 -0.2156  0.0567
 2519DPPC   C4B51924  22.203   4.860  33.702 -0.2122 -0.1610 -0.1627
 2520DPPC   NC351925  23.860   1.801  27.965  0.1825 -0.1745  0.1351
 2520DPPC   PO451926  23.380   1.816  27.898 -0.3017  0.0068  0.0834
 2520DPPC   GL151927  23.249   2.199  28.090  0.0868  0.0958 -0.0880
 2520DPPC   GL251928  23.050   2.188  28.351 -0.1622  0.0350  0.1622
 2520DPPC   C1A51929  23.033   2.619  28.243  0.0292  0.3390  0.2421
 2520DPPC   C2A51930  22.691   2.945  28.085 -0.2337  0.1989  0.1753
 2520DPPC   C3A51931  22.614   3.238  27.841 -0.0937 -0.0153 -0.2949
 2520DPPC   C4A51932  22.643   3.691  27.580 -0.0319 -0.2699  0.0063
 2520DPPC   C1B51933  23.009   2.514  28.700  0.0319 -0.1641 -0.2391
 2520DPPC   C2B51934  23.167   2.868  28.938 -0.2616  0.1379 -0.0783
 2520DPPC   C3B51935  22.944   3.181  29.021 -0.1141  0.1941  0.2491
 2520DPPC   C4B51936  22.589   3.464  28.883 -0.2563  0.1342 -0.1551
 2521DPPC   NC351937  25.859  13.848  23.132 -0.2285 -0.0927  0.0973
 2521DPPC   PO451938  25.962  14.061  23.522  0.4641 -0.2952  0.0836
 2521DPPC   GL151939  25.493  14.061  23.466  0.1402 -0.2540  0.1013
 2521DPPC   GL251940  25.406  14.177  23.183 -0.1300  0.2146  0.1070
 2521DPPC   C1A51941  25.279  13.826  23.725  0.0716  0.3427  0.2577
 2521DPPC   C2A51942  24.947  13.602  23.982 -0.0482  0.1739  0.2056
 2521DPPC   C3A51943  24.462  13.550  24.171 -0.0942 -0.2846 -0.2463
 2521DPPC   C4A51944  24.124  13.389  24.407  0.2621 -0.0936  0.2134
 2521DPPC   C1B51945  25.132  13.832  23.223  0.2101  0.0267  0.3067
 2521DPPC   C2B51946  24.939  13.530  23.439 -0.2758  0.1819  0.3324
 2521DPPC   C3B51947  24.688  13.176  23.468 -0.3716  0.0799  0.0890
 2521DPPC   C4B51948  24.423  12.767  23.660 -0.3696 -0.0719 -0.1130
 2522DPPC   NC351949  23.429   4.100  37.488  0.1192 -0.0020  0.2262
 2522DPPC   PO451950  23.134   4.303  37.672 -0.0507 -0.1627 -0.0884
 2522DPPC   GL151951  22.789   4.559  37.794 -0.0897  0.3564  0.3171
 2522DPPC   GL251952  22.373   4.537  37.635 -0.2238 -0.2498 -0.1559
 2522DPPC   C1A51953  22.729   5.051  37.809 -0.0328  0.1318  0.0109
 2522DPPC   C2A51954  22.264   5.160  37.773  0.0590 -0.2096 -0.1408
 2522DPPC   C3A51955  22.164   5.463  37.636 -0.2098 -0.5347 -0.3494
 2522DPPC   C4A51956  22.421   5.902  37.518 -0.4057  0.0170  0.3537
 2522DPPC   C1B51957  22.491   4.858  37.329 -0.0838 -0.2284 -0.1045
 2522DPPC   C2B51958  22.344   5.172  37.162  0.2178  0.0086 -0.1882
 2522DPPC   C3B51959  21.959   5.378  37.253 -0.0570 -0.0141 -0.0138
 2522DPPC   C4B51960  21.691   5.260  37.513  0.2726  0.1250 -0.0936
 2523DPPC   NC351961  20.802   3.714  19.440 -0.0909 -0.3549  0.0878
 2523DPPC   PO451962  20.751   3.667  19.816  0.0210 -0.0359 -0.1200
 2523DPPC   GL151963  20.296   3.951  19.795  0.0824  0.0157  0.1896
 2523DPPC   GL251964  20.419   4.256  19.691 -0.0419  0.0675  0.2104
 2523DPPC   C1A51965  19.901   4.292  19.777  0.2112 -0.0432  0.0256
 2523DPPC   C2A51966  19.818   4.725  19.670  0.0279  0.0061  0.1807
 2523DPPC   C3A51967  19.735   4.965  19.916  0.3343  0.0326  0.0930
 2523DPPC   C4A51968  19.701   5.123  20.377  0.2582 -0.0163  0.0912
 2523DPPC   C1B51969  20.188   4.397  20.112 -0.2085  0.3375  0.4040
 2523DPPC   C2B51970  19.825   4.460  20.253 -0.0753  0.2770 -0.2916
 2523DPPC   C3B51971  19.693   4.236  20.625  0.0715 -0.1476 -0.0770
 2523DPPC   C4B51972  19.651   3.793  20.603  0.2652  0.1978 -0.1569
 2524DPPC   NC351973  18.908  17.165  22.102 -0.0911  0.1179 -0.1958
 2524DPPC   PO451974  18.895  17.090  21.627 -0.0557 -0.3235  0.2483
 2524DPPC   GL151975  19.084  17.238  21.351  0.0507 -0.0969  0.2729
 2524DPPC   GL251976  19.337  17.052  21.225  0.0857  0.0936 -0.1506
 2524DPPC   C1A51977  19.325  17.645  21.307 -0.0879  0.2736 -0.1843
 2524DPPC   C2A51978  19.621  17.759  21.040  0.0302  0.0423  0.0347
 2524DPPC   C3A51979  19.746  17.730  20.531  0.0295  0.2035  0.0510
 2524DPPC   C4A51980  19.615  17.634  20.099 -0.0995 -0.1094 -0.0324
 2524DPPC   C1B51981  19.699  16.885  21.333 -0.3483  0.0989  0.2279
 2524DPPC   C2B51982  20.075  16.892  21.204  0.0105  0.1260  0.0942
 2524DPPC   C3B51983  20.532  16.948  21.392 -0.1577 -0.1580 -0.0423
 2524DPPC   C4B51984  20.800  16.942  21.751  0.2246 -0.3818  0.0116
 2525DPPC   NC351985  13.336  13.653  15.405 -0.1604 -0.4201 -0.0741
 2525DPPC   PO451986  13.527  13.710  15.808  0.1199  0.0575  0.2726
 2525DPPC   GL151987  13.861  13.850  15.952  0.2648  0.3175  0.1223
 2525DPPC   GL251988  13.861  13.685  16.263 -0.2706 -0.0059  0.4810
 2525DPPC   C1A51989  13.966  14.171  16.258  0.2682 -0.1574 -0.2101
 2525DPPC   C2A51990  13.980  14.267  16.753 -0.1095 -0.0787  0.1526
 2525DPPC   C3A51991  14.224  14.054  17.068 -0.0048  0.0276 -0.3992
 2525DPPC   C4A51992  14.502  13.912  17.347  0.2480  0.1265  0.0507
 2525DPPC   C1B51993  14.171  13.804  16.616 -0.0067  0.0014 -0.1510
 2525DPPC   C2B51994  14.460  13.668  16.935 -0.1931 -0.1398 -0.0051
 2525DPPC   C3B51995  14.827  13.642  17.137  0.1245  0.1256  0.0507
 2525DPPC   C4B51996  15.095  13.753  17.491  0.3573 -0.1937  0.2009
 2526DPPC   NC351997  17.575   9.914  25.482  0.1549 -0.0753 -0.1172
 2526DPPC   PO451998  17.292   9.958  25.755 -0.3847 -0.0163 -0.3870
 2526DPPC   GL151999  17.357  10.381  25.516 -0.0962 -0.0478  0.0302
 2526DPPC   GL252000  17.052  10.617  25.492 -0.1543 -0.1303 -0.0027
 2526DPPC   C1A52001  17.520  10.696  25.274 -0.2235 -0.0221  0.0383
 2526DPPC   C2A52002  17.562  11.112  25.182  0.2515  0.1056  0.3562
 2526DPPC   C3A52003  17.295  11.491  25.172 -0.0746  0.1737 -0.1985
 2526DPPC   C4A52004  17.005  11.607  24.870 -0.2741 -0.0902  0.1983
 2526DPPC   C1B52005  16.586  10.474  25.487  0.0038  0.0822  0.2582
 2526DPPC   C2B52006  16.125  10.578  25.506 -0.1202  0.0855 -0.2311
 2526DPPC   C3B52007  15.605  10.661  25.583 -0.0272  0.0538 -0.1523
 2526DPPC   C4B52008  15.338  10.582  26.024  0.0059  0.0052  0.4127
 2527DPPC   NC352009   6.259  20.953  35.717 -0.3134  0.0529  0.0618
 2527DPPC   PO452010   6.601  21.269  35.610 -0.1555  0.3273 -0.0011
 2527DPPC   GL152011   6.780  21.046  35.320  0.0161  0.1176  0.0269
 2527DPPC   GL252012   6.735  20.819  35.411  0.0092  0.0686  0.0410
 2527DPPC   C1A52013   7.169  20.989  35.209 -0.1298 -0.0519 -0.1232
 2527DPPC   C2A52014   7.528  20.769  35.086 -0.0696  0.0096  0.0432
 2527DPPC   C3A52015   7.711  20.350  34.992  0.5438  0.2219 -0.0014
 2527DPPC   C4A52016   8.011  19.973  34.818 -0.2509 -0.1155 -0.4169
 2527DPPC   C1B52017   6.858  20.638  35.048 -0.0835 -0.1081 -0.5976
 2527DPPC   C2B52018   7.183  20.418  35.035  0.1601  0.0986 -0.2489
 2527DPPC   C3B52019   7.267  20.101  35.266 -0.1558 -0.4915 -0.2122
 2527DPPC   C4B52020   7.410  20.099  35.639  0.1193 -0.0990 -0.1361
 2528DPPC   NC352021  22.972  10.381  23.027  0.0926 -0.1084 -0.0362
 2528DPPC   PO452022  22.918  10.272  22.620 -0.0040  0.1035  0.1875
 2528DPPC   GL152023  23.137  10.546  22.583 -0.1844 -0.0663 -0.0199
 2528DPPC   GL252024  23.423  10.485  22.741  0.4685 -0.2117 -0.4503
 2528DPPC   C1A52025  23.431  10.567  22.250  0.1833  0.0064 -0.3324
 2528DPPC   C2A52026  23.732  10.773  21.993 -0.0745 -0.0673 -0.3943
 2528DPPC   C3A52027  23.943  11.244  22.059 -0.1713 -0.1905  0.1501
 2528DPPC   C4A52028  24.177  11.612  21.866  0.1252 -0.0048 -0.1342
 2528DPPC   C1B52029  23.765  10.466  22.898 -0.0663 -0.3003  0.1830
 2528DPPC   C2B52030  24.238  10.608  22.908 -0.2513 -0.1157 -0.4255
 2528DPPC   C3B52031  24.451  10.987  22.973  0.0277  0.3680  0.1795
 2528DPPC   C4B52032  24.773  11.269  22.949 -0.1632  0.2488 -0.0556
 2529DPPC   NC352033  12.254   3.720  20.477  0.1774 -0.1045  0.1932
 2529DPPC   PO452034  12.618   3.941  20.738 -0.1261 -0.0120 -0.2303
 2529DPPC   GL152035  12.981   4.147  20.885  0.1659  0.2323 -0.0990
 2529DPPC   GL252036  13.206   3.859  20.810  0.1958  0.1465  0.0617
 2529DPPC   C1A52037  13.143   4.482  20.939  0.4498  0.0528 -0.1328
 2529DPPC   C2A52038  13.281   4.891  21.091  0.2106  0.1441 -0.5026
 2529DPPC   C3A52039  13.210   5.336  21.049  0.2855 -0.2092 -0.1300
 2529DPPC   C4A52040  13.022   5.792  21.077  0.3051 -0.2098  0.3122
 2529DPPC   C1B52041  13.450   4.042  21.111  0.0187 -0.1451  0.1339
 2529DPPC   C2B52042  13.713   4.348  21.371 -0.2515 -0.2096  0.0580
 2529DPPC   C3B52043  14.043   4.318  21.666  0.1924  0.1683 -0.2558
 2529DPPC   C4B52044  14.083   4.448  22.135 -0.2821  0.2696  0.1510
 2530DPPC   NC352045  18.285   4.315  41.196 -0.3707  0.0778 -0.1519
 2530DPPC   PO452046  17.987   4.649  40.996  0.0927  0.2212 -0.4516
 2530DPPC   GL152047  17.841   5.033  40.735  0.1896  0.0826  0.0916
 2530DPPC   GL252048  17.744   4.772  40.576  0.1628  0.1557 -0.2393
 2530DPPC   C1A52049  17.424   5.282  40.703 -0.0486 -0.1495  0.0911
 2530DPPC   C2A52050  17.212   5.295  40.323 -0.2063 -0.2901  0.1864
 2530DPPC   C3A52051  17.046   5.310  39.889 -0.0660  0.1481  0.0301
 2530DPPC   C4A52052  17.116   5.312  39.409 -0.0211  0.0171  0.0138
 2530DPPC   C1B52053  17.721   4.984  40.252 -0.4148 -0.2748 -0.4313
 2530DPPC   C2B52054  17.760   5.387  40.176 -0.0821 -0.0367 -0.1822
 2530DPPC   C3B52055  17.928   5.783  39.886  0.0241  0.0655 -0.3258
 2530DPPC   C4B52056  17.659   6.081  39.729 -0.0643  0.1617 -0.1592
 2531DPPC   NC352057  11.735  10.654  43.864  0.1200 -0.0369  0.0749
 2531DPPC   PO452058  11.945  10.585  43.468 -0.1836 -0.0044 -0.3015
 2531DPPC   GL152059  12.086  10.470  43.150  0.3436  0.2986  0.0492
 2531DPPC   GL252060  11.860  10.350  42.850  0.1583  0.1860  0.0438
 2531DPPC   C1A52061  12.307  10.541  42.744  0.4612 -0.0976 -0.1308
 2531DPPC   C2A52062  12.397  10.649  42.378  0.1154  0.0701  0.0741
 2531DPPC   C3A52063  12.677  10.963  42.226 -0.0854 -0.0353  0.0578
 2531DPPC   C4A52064  13.128  11.121  42.229  0.0417 -0.1486 -0.1389
 2531DPPC   C1B52065  11.895  10.288  42.486  0.1189  0.0614  0.3978
 2531DPPC   C2B52066  11.874  10.266  42.051  0.0937 -0.2920 -0.0583
 2531DPPC   C3B52067  11.997  10.193  41.601 -0.1257 -0.0591  0.2815
 2531DPPC   C4B52068  11.827  10.064  41.215 -0.5511 -0.2329  0.1478
 2532DPPC   NC352069  15.900  18.696  16.527 -0.0964 -0.0562  0.2416
 2532DPPC   PO452070  15.805  18.854  16.904  0.2273  0.1113 -0.3798
 2532DPPC   GL152071  15.741  18.813  17.398  0.3174 -0.1646 -0.1774
 2532DPPC   GL252072  16.024  18.940  17.551 -0.2378  0.1282  0.1628
 2532DPPC   C1A52073  15.611  18.732  17.834 -0.1128 -0.2672  0.1003
 2532DPPC   C2A52074  15.394  18.459  18.237 -0.0421 -0.1052 -0.2582
 2532DPPC   C3A52075  15.721  18.197  18.471  0.0076 -0.0198  0.1940
 2532DPPC   C4A52076  16.087  17.889  18.447  0.2641 -0.1528 -0.3204
 2532DPPC   C1B52077  16.152  18.725  17.869 -0.0120 -0.0702  0.0669
 2532DPPC   C2B52078  16.369  18.412  17.923 -0.1144 -0.0596 -0.0678
 2532DPPC   C3B52079  16.609  18.089  17.961 -0.0360  0.0944  0.2049
 2532DPPC   C4B52080  16.430  17.707  18.076 -0.2085  0.0964  0.3066
 2533DPPC   NC352081   5.420   6.361  27.361 -0.0110  0.1715 -0.1102
 2533DPPC   PO452082   5.190   6.782  27.270  0.0012 -0.2484  0.3418
 2533DPPC   GL152083   5.615   6.859  27.419 -0.1591 -0.2536 -0.0246
 2533DPPC   GL252084   5.703   6.855  27.744  0.0790  0.1165 -0.2603
 2533DPPC   C1A52085   5.883   7.276  27.334  0.0150  0.0990 -0.4188
 2533DPPC   C2A52086   6.292   7.523  27.473  0.1741  0.2036 -0.2042
 2533DPPC   C3A52087   6.260   7.892  27.185 -0.0562 -0.0549 -0.5680
 2533DPPC   C4A52088   6.016   8.129  26.970 -0.0109 -0.0283  0.0303
 2533DPPC   C1B52089   5.863   7.264  27.818 -0.0856  0.0974  0.1075
 2533DPPC   C2B52090   6.027   7.473  27.955  0.3381 -0.2148 -0.1415
 2533DPPC   C3B52091   6.259   7.818  28.024  0.2359  0.0024  0.0249
 2533DPPC   C4B52092   6.499   8.186  28.091  0.0961 -0.1284 -0.3832
 2534DPPC   NC352093  16.646  14.998  19.229  0.0397 -0.0625  0.0665
 2534DPPC   PO452094  16.386  14.694  19.358 -0.1082  0.1697  0.0023
 2534DPPC   GL152095  16.368  14.701  18.894 -0.0999  0.0252 -0.0611
 2534DPPC   GL252096  16.473  14.514  18.588 -0.3980  0.0469  0.0067
 2534DPPC   C1A52097  16.081  14.922  18.559 -0.4551  0.0091  0.1802
 2534DPPC   C2A52098  15.754  14.922  18.249 -0.2948  0.1658  0.4169
 2534DPPC   C3A52099  15.577  15.307  18.154 -0.1021  0.0274  0.1335
 2534DPPC   C4A52100  15.485  15.588  18.365 -0.1514 -0.3483  0.0786
 2534DPPC   C1B52101  16.267  14.539  18.280 -0.0418  0.2286  0.0039
 2534DPPC   C2B52102  15.966  14.668  17.840 -0.0733 -0.1905  0.0192
 2534DPPC   C3B52103  15.738  14.398  17.550 -0.2242 -0.3000 -0.1895
 2534DPPC   C4B52104  15.291  14.214  17.599  0.2793 -0.0184 -0.1989
 2535DPPC   NC352105  16.122   8.966  20.553  0.0998  0.1181 -0.2969
 2535DPPC   PO452106  16.206   9.270  20.222 -0.0245 -0.2485  0.3807
 2535DPPC   GL152107  16.102   9.158  19.789  0.2601  0.2355  0.0573
 2535DPPC   GL252108  16.029   8.849  19.651  0.0840 -0.1362 -0.2593
 2535DPPC   C1A52109  16.141   9.165  19.277  0.2617  0.1528  0.1029
 2535DPPC   C2A52110  16.149   9.105  18.841 -0.2820  0.2199 -0.1997
 2535DPPC   C3A52111  16.331   8.828  18.485 -0.1340  0.1641 -0.0167
 2535DPPC   C4A52112  16.417   8.614  18.168 -0.0768  0.0262  0.2278
 2535DPPC   C1B52113  15.702   8.964  19.207 -0.1199 -0.0110 -0.1447
 2535DPPC   C2B52114  15.357   8.946  18.823  0.1409  0.1146 -0.2877
 2535DPPC   C3B52115  15.056   8.637  18.652 -0.1159 -0.2444  0.0480
 2535DPPC   C4B52116  14.995   8.250  18.474  0.1197  0.2194  0.2344
 2536DPPC   NC352117  24.258  13.311  40.052 -0.1819 -0.2306 -0.4051
 2536DPPC   PO452118  24.535  13.585  40.060 -0.1232  0.0289 -0.2057
 2536DPPC   GL152119  24.212  13.809  39.790 -0.0366 -0.0794 -0.1645
 2536DPPC   GL252120  24.116  13.558  39.687 -0.2114 -0.0503  0.0818
 2536DPPC   C1A52121  23.737  13.766  39.626  0.1032  0.0950 -0.0537
 2536DPPC   C2A52122  23.453  13.580  39.570 -0.0102 -0.1882  0.0500
 2536DPPC   C3A52123  23.235  13.280  39.843  0.0219 -0.1294  0.2206
 2536DPPC   C4A52124  22.951  12.960  39.871  0.1032  0.1777  0.0552
 2536DPPC   C1B52125  24.146  13.402  39.289  0.2005 -0.1149  0.2644
 2536DPPC   C2B52126  23.934  13.276  38.936 -0.0369 -0.0815  0.0331
 2536DPPC   C3B52127  23.580  13.408  38.629 -0.0335  0.0731 -0.1657
 2536DPPC   C4B52128  23.206  13.515  38.437  0.1341  0.3107 -0.2975
 2537DPPC   NC352129  20.521  14.302  20.357 -0.2682  0.1218  0.2761
 2537DPPC   PO452130  20.153  14.465  20.216  0.0946 -0.0990  0.1058
 2537DPPC   GL152131  20.253  14.679  19.915  0.2385  0.1146  0.0670
 2537DPPC   GL252132  20.043  15.036  19.752  0.0117  0.2267  0.1474
 2537DPPC   C1A52133  20.527  14.845  19.598  0.2370  0.3039  0.2693
 2537DPPC   C2A52134  20.867  14.973  19.537 -0.2893 -0.1935 -0.0837
 2537DPPC   C3A52135  21.225  14.893  19.350  0.1468  0.0062  0.1079
 2537DPPC   C4A52136  21.453  15.054  18.929  0.1056  0.1608  0.0134
 2537DPPC   C1B52137  20.113  15.330  19.347  0.0252  0.0092  0.1310
 2537DPPC   C2B52138  20.098  15.527  18.857  0.2053  0.2344 -0.0351
 2537DPPC   C3B52139  19.992  15.600  18.418  0.2732  0.4253  0.0034
 2537DPPC   C4B52140  19.670  15.789  18.092  0.2282  0.0724 -0.1891
 2538DPPC   NC352141  19.365   2.619  21.546 -0.1446  0.2536 -0.0733
 2538DPPC   PO452142  19.204   2.600  21.054 -0.0348  0.1957 -0.0015
 2538DPPC   GL152143  19.060   3.070  21.088  0.0365 -0.2189  0.2183
 2538DPPC   GL252144  19.201   3.363  21.032  0.1842  0.1366 -0.0524
 2538DPPC   C1A52145  19.037   3.271  21.468  0.0065 -0.0815  0.0130
 2538DPPC   C2A52146  18.702   3.432  21.575 -0.1681 -0.2236 -0.1198
 2538DPPC   C3A52147  18.797   3.745  21.732 -0.2175 -0.1659  0.3395
 2538DPPC   C4A52148  18.886   4.071  22.096  0.1724 -0.0209  0.0100
 2538DPPC   C1B52149  18.836   3.657  21.118  0.1609 -0.0539  0.0902
 2538DPPC   C2B52150  18.786   4.035  20.846 -0.0452 -0.0852  0.0094
 2538DPPC   C3B52151  18.465   4.344  20.861 -0.0753 -0.0553 -0.4914
 2538DPPC   C4B52152  18.517   4.808  20.972 -0.0374 -0.4775  0.0612
 2539DPPC   NC352153  19.558   2.234  21.102 -0.2654  0.2012 -0.1202
 2539DPPC   PO452154  19.804   2.567  21.322 -0.0881 -0.5250  0.0979
 2539DPPC   GL152155  19.789   2.865  21.672  0.0423  0.1128  0.2084
 2539DPPC   GL252156  20.018   2.716  21.909  0.0805 -0.3831  0.1087
 2539DPPC   C1A52157  19.740   3.108  22.107  0.1151 -0.1355 -0.0284
 2539DPPC   C2A52158  19.681   3.468  22.133  0.0021  0.0010  0.2956
 2539DPPC   C3A52159  19.747   3.724  21.943  0.1980  0.1853 -0.0393
 2539DPPC   C4A52160  19.791   3.969  21.567  0.0371 -0.1593  0.1342
 2539DPPC   C1B52161  20.149   3.135  21.825  0.1461 -0.0248  0.2078
 2539DPPC   C2B52162  20.197   3.482  21.923  0.2659  0.3348 -0.1126
 2539DPPC   C3B52163  20.146   3.761  22.277 -0.1757 -0.1951 -0.0527
 2539DPPC   C4B52164  19.879   4.161  22.387 -0.1117  0.0302 -0.5969
 2540DPPC   NC352165  14.987  11.961  27.984  0.2276  0.2365  0.2893
 2540DPPC   PO452166  14.812  12.139  27.530 -0.1193 -0.2272 -0.1687
 2540DPPC   GL152167  14.996  12.357  27.232  0.1626 -0.0732 -0.2295
 2540DPPC   GL252168  14.880  12.585  26.977  0.2031 -0.3946  0.1201
 2540DPPC   C1A52169  15.281  12.297  26.974 -0.0548 -0.0381 -0.3161
 2540DPPC   C2A52170  15.256  12.071  26.546  0.0376 -0.1024 -0.3317
 2540DPPC   C3A52171  15.322  11.791  26.201 -0.0734  0.3433  0.0068
 2540DPPC   C4A52172  15.586  11.449  26.108 -0.0940  0.0028  0.1271
 2540DPPC   C1B52173  14.492  12.696  26.782  0.2022 -0.2121  0.1125
 2540DPPC   C2B52174  14.474  13.022  26.459 -0.1016 -0.0834 -0.0754
 2540DPPC   C3B52175  14.662  13.046  26.037  0.0378 -0.3944 -0.1831
 2540DPPC   C4B52176  14.880  13.171  25.640 -0.1388  0.0300 -0.0332
 2541DPPC   NC352177  10.272  15.114  18.026  0.1452 -0.1231 -0.2696
 2541DPPC   PO452178   9.931  15.347  18.046  0.1749 -0.0059 -0.0005
 2541DPPC   GL152179  10.044  15.520  18.362 -0.2445  0.1903  0.0652
 2541DPPC   GL252180  10.335  15.672  18.527  0.0449 -0.0305  0.0825
 2541DPPC   C1A52181  10.168  15.288  18.837 -0.0042 -0.4002  0.0875
 2541DPPC   C2A52182  10.517  15.170  19.154 -0.1355  0.0621  0.0189
 2541DPPC   C3A52183  10.807  15.236  19.469 -0.2621  0.0073  0.0461
 2541DPPC   C4A52184  10.903  15.390  19.824 -0.0116  0.2370  0.0937
 2541DPPC   C1B52185  10.562  15.686  18.847 -0.1360 -0.0418 -0.1154
 2541DPPC   C2B52186  10.940  15.637  19.074 -0.0056 -0.1012  0.1824
 2541DPPC   C3B52187  11.339  15.635  19.242  0.0088 -0.1634  0.0977
 2541DPPC   C4B52188  11.480  16.018  19.345  0.1014 -0.1228 -0.1351
 2542DPPC   NC352189   8.424   9.817  29.427  0.1486  0.1932 -0.3027
 2542DPPC   PO452190   7.960   9.792  29.555 -0.3490 -0.1463 -0.1302
 2542DPPC   GL152191   7.627   9.522  29.774 -0.0751  0.0434 -0.0001
 2542DPPC   GL252192   7.378   9.360  29.590 -0.2725  0.1897  0.1213
 2542DPPC   C1A52193   7.340   9.481  30.143  0.0909  0.0843 -0.2931
 2542DPPC   C2A52194   6.960   9.395  30.257 -0.0726  0.0967  0.0425
 2542DPPC   C3A52195   6.519   9.266  30.277 -0.0812  0.4219  0.1447
 2542DPPC   C4A52196   6.139   9.219  30.298 -0.1440 -0.1180  0.1450
 2542DPPC   C1B52197   6.921   9.435  29.661  0.1290 -0.0405  0.3115
 2542DPPC   C2B52198   6.691   9.512  29.867  0.2413 -0.0360 -0.1101
 2542DPPC   C3B52199   6.244   9.363  29.769  0.2120 -0.3102  0.1155
 2542DPPC   C4B52200   5.961   9.279  29.529  0.0366  0.0939  0.0281
 2543DPPC   NC352201  15.979  14.125  19.705 -0.1200  0.0201 -0.3916
 2543DPPC   PO452202  16.269  14.229  19.393  0.1452  0.1168 -0.0159
 2543DPPC   GL152203  16.045  14.360  19.040 -0.2166  0.1299 -0.0108
 2543DPPC   GL252204  15.893  14.581  19.070 -0.2176 -0.2088 -0.0409
 2543DPPC   C1A52205  16.076  14.138  18.642 -0.3009 -0.1668 -0.1676
 2543DPPC   C2A52206  15.942  13.770  18.340 -0.1541  0.1498  0.0316
 2543DPPC   C3A52207  15.836  13.596  18.014 -0.1850  0.3533  0.0963
 2543DPPC   C4A52208  16.034  13.380  17.731 -0.3692  0.1932  0.2733
 2543DPPC   C1B52209  15.766  14.525  18.658  0.0093  0.2141 -0.1560
 2543DPPC   C2B52210  15.755  14.420  18.248  0.1363 -0.1974  0.0709
 2543DPPC   C3B52211  15.617  14.005  18.057  0.3500 -0.1416 -0.2198
 2543DPPC   C4B52212  15.410  13.762  17.838 -0.2668  0.0394  0.1503
 2544DPPC   NC352213  21.296   3.016  20.819 -0.2971 -0.1079  0.1675
 2544DPPC   PO452214  21.258   3.502  20.632 -0.2397  0.1865  0.0204
 2544DPPC   GL152215  21.032   3.780  20.918 -0.0503  0.2506  0.4488
 2544DPPC   GL252216  20.851   3.593  21.158 -0.0228  0.4004 -0.4037
 2544DPPC   C1A52217  20.923   4.118  21.201  0.2862  0.1391  0.0430
 2544DPPC   C2A52218  20.635   4.310  21.533 -0.0369  0.1736  0.0381
 2544DPPC   C3A52219  20.291   4.517  21.709 -0.1348  0.0211  0.1032
 2544DPPC   C4A52220  20.221   4.992  21.530 -0.0834 -0.3201 -0.2297
 2544DPPC   C1B52221  20.791   3.809  21.584 -0.1632  0.1209 -0.1201
 2544DPPC   C2B52222  20.612   3.944  21.897 -0.0267 -0.1901 -0.0379
 2544DPPC   C3B52223  20.562   4.266  22.256 -0.2563 -0.1737 -0.2006
 2544DPPC   C4B52224  20.794   4.485  22.617  0.3317 -0.3373 -0.2840
 2545DPPC   NC352225  20.826   7.703  16.618  0.2954 -0.2410 -0.1642
 2545DPPC   PO452226  20.891   7.297  16.560 -0.4789 -0.3361  0.1407
 2545DPPC   GL152227  20.792   7.435  17.011  0.0801 -0.0678 -0.3201
 2545DPPC   GL252228  20.784   7.784  17.161 -0.0260  0.3179 -0.0122
 2545DPPC   C1A52229  20.709   7.323  17.455  0.1186  0.3560  0.2492
 2545DPPC   C2A52230  20.616   7.011  17.798 -0.0297  0.2544  0.3972
 2545DPPC   C3A52231  20.511   7.104  18.246  0.2644 -0.0322  0.2484
 2545DPPC   C4A52232  20.547   7.470  18.332  0.4255  0.0577 -0.1399
 2545DPPC   C1B52233  20.901   7.826  17.530  0.1885 -0.0774  0.0311
 2545DPPC   C2B52234  20.841   8.139  17.824  0.0403  0.1156  0.0082
 2545DPPC   C3B52235  20.672   8.402  18.183  0.0343  0.2625  0.1591
 2545DPPC   C4B52236  20.514   8.522  18.556  0.0644  0.1477  0.1381
 2546DPPC   NC352237  17.537  13.082  18.701  0.0006 -0.2186 -0.0319
 2546DPPC   PO452238  17.174  13.184  18.867  0.0051  0.1680 -0.1242
 2546DPPC   GL152239  17.208  13.097  18.341 -0.0981  0.1077  0.2163
 2546DPPC   GL252240  16.843  13.116  18.271 -0.0599  0.2303  0.1105
 2546DPPC   C1A52241  17.280  13.171  17.829 -0.1172  0.0138 -0.2711
 2546DPPC   C2A52242  17.408  13.300  17.503 -0.1628 -0.3609 -0.2135
 2546DPPC   C3A52243  17.263  13.415  17.087 -0.1925  0.0701 -0.0777
 2546DPPC   C4A52244  17.362  13.163  16.729  0.2093 -0.0513 -0.2345
 2546DPPC   C1B52245  16.752  13.260  17.873 -0.2518 -0.0379  0.2087
 2546DPPC   C2B52246  16.498  13.234  17.479  0.1210 -0.0255  0.0211
 2546DPPC   C3B52247  16.342  13.579  17.334 -0.0273 -0.1794  0.0899
 2546DPPC   C4B52248  16.273  13.956  17.510  0.0749 -0.1301  0.1009
 2547DPPC   NC352249  15.770  14.597  27.588 -0.0345  0.0395  0.0199
 2547DPPC   PO452250  15.773  14.196  27.448 -0.1272 -0.2339 -0.0522
 2547DPPC   GL152251  15.869  14.101  27.082  0.0502 -0.4475  0.0104
 2547DPPC   GL252252  16.111  13.918  26.957 -0.1422  0.1592 -0.0874
 2547DPPC   C1A52253  15.790  14.135  26.678 -0.1502 -0.1478  0.2076
 2547DPPC   C2A52254  15.642  14.039  26.382 -0.0757 -0.2370 -0.0169
 2547DPPC   C3A52255  15.782  13.946  26.067  0.3423  0.1020 -0.2528
 2547DPPC   C4A52256  15.900  13.629  25.762  0.1991  0.1244  0.0164
 2547DPPC   C1B52257  16.350  13.853  26.621  0.1461  0.1333  0.1064
 2547DPPC   C2B52258  16.342  13.771  26.249  0.0574  0.0205  0.1770
 2547DPPC   C3B52259  16.396  13.578  25.797  0.1096  0.0050 -0.0024
 2547DPPC   C4B52260  16.171  13.409  25.420 -0.0572 -0.2068 -0.0711
 2548DPPC   NC352261   5.313  20.596  33.981  0.3497 -0.3435 -0.1980
 2548DPPC   PO452262   5.390  20.227  34.025  0.5452 -0.3121 -0.0472
 2548DPPC   GL152263   5.762  20.247  34.104  0.0813 -0.1960  0.0111
 2548DPPC   GL252264   5.871  20.462  33.858  0.0819  0.0167 -0.1240
 2548DPPC   C1A52265   6.069  20.012  34.069  0.1630 -0.0671  0.0835
 2548DPPC   C2A52266   6.418  19.861  33.854  0.1502 -0.1543  0.3321
 2548DPPC   C3A52267   6.836  19.933  33.803  0.1100 -0.0149  0.1956
 2548DPPC   C4A52268   7.139  20.266  33.725  0.0493  0.0648 -0.0517
 2548DPPC   C1B52269   6.017  20.078  33.534 -0.0606  0.4144  0.2183
 2548DPPC   C2B52270   6.088  19.801  33.124 -0.1627  0.3018  0.0795
 2548DPPC   C3B52271   6.279  19.932  32.784 -0.2302  0.4299 -0.0931
 2548DPPC   C4B52272   6.327  19.795  32.289 -0.1543  0.0076  0.6266
 2549DPPC   NC352273  12.159   2.121  23.576  0.2880 -0.0694  0.2855
 2549DPPC   PO452274  12.443   1.838  23.583  0.1463  0.0849  0.2562
 2549DPPC   GL152275  12.568   2.313  23.726 -0.1432 -0.1023 -0.0350
 2549DPPC   GL252276  12.780   2.478  23.631 -0.2472 -0.0805 -0.0981
 2549DPPC   C1A52277  12.500   2.587  24.081  0.0238 -0.3289 -0.3759
 2549DPPC   C2A52278  12.736   2.763  24.356 -0.1491 -0.0778 -0.5519
 2549DPPC   C3A52279  12.613   2.995  24.782  0.0853 -0.1068 -0.0253
 2549DPPC   C4A52280  12.588   3.375  25.014 -0.1967 -0.2031  0.0259
 2549DPPC   C1B52281  12.792   2.867  23.790  0.1359  0.0220  0.0345
 2549DPPC   C2B52282  12.488   3.259  23.836 -0.0895  0.1077 -0.1202
 2549DPPC   C3B52283  12.471   3.715  23.687  0.2735 -0.0551  0.2322
 2549DPPC   C4B52284  12.637   4.002  23.885  0.2196 -0.0642 -0.0032
 2550DPPC   NC352285  19.334   8.812  15.331  0.2303 -0.0014  0.1162
 2550DPPC   PO452286  19.250   8.663  15.772 -0.0574 -0.0149 -0.0328
 2550DPPC   GL152287  19.286   8.716  16.119 -0.0481  0.2139 -0.3890
 2550DPPC   GL252288  19.046   8.769  16.277  0.3290  0.1251 -0.1590
 2550DPPC   C1A52289  19.408   8.640  16.510  0.1672  0.2462 -0.1336
 2550DPPC   C2A52290  19.134   8.588  16.790 -0.0898  0.0465  0.0243
 2550DPPC   C3A52291  19.209   8.419  17.157 -0.0996  0.0324  0.2097
 2550DPPC   C4A52292  19.175   8.601  17.541 -0.2172 -0.0019 -0.1246
 2550DPPC   C1B52293  18.966   9.006  16.525  0.2367 -0.1233  0.0767
 2550DPPC   C2B52294  18.806   9.268  16.838 -0.2457  0.1537 -0.0867
 2550DPPC   C3B52295  18.652   9.650  17.157 -0.1959  0.2961  0.0746
 2550DPPC   C4B52296  18.579  10.075  17.288  0.1173 -0.2005  0.1737
 2551DPPC   NC352297  19.797  11.236  26.701 -0.2092 -0.4073  0.0050
 2551DPPC   PO452298  19.300  10.955  26.680 -0.0732  0.3543  0.0924
 2551DPPC   GL152299  19.052  11.075  26.272  0.0345 -0.1422 -0.1680
 2551DPPC   GL252300  19.150  11.277  25.966  0.0274  0.1097  0.3720
 2551DPPC   C1A52301  18.700  11.358  26.075 -0.4823  0.0365  0.1637
 2551DPPC   C2A52302  18.592  11.798  25.870 -0.0346  0.0117  0.2219
 2551DPPC   C3A52303  18.623  11.830  25.428 -0.5415  0.1900 -0.1655
 2551DPPC   C4A52304  18.888  11.746  25.046  0.2821  0.3280  0.0804
 2551DPPC   C1B52305  19.044  11.635  25.678 -0.2875  0.1321 -0.1331
 2551DPPC   C2B52306  19.120  12.027  25.430  0.0287  0.0851  0.2012
 2551DPPC   C3B52307  19.064  12.245  25.034 -0.0566 -0.1138 -0.1044
 2551DPPC   C4B52308  18.829  12.539  24.747  0.0573 -0.2487  0.0293
 2552DPPC   NC352309  16.089  10.900  19.540  0.4376 -0.0360 -0.2706
 2552DPPC   PO452310  15.866  10.539  19.677 -0.0405 -0.0501  0.1869
 2552DPPC   GL152311  15.707  10.625  19.303  0.0043  0.5775  0.0605
 2552DPPC   GL252312  15.844  10.757  19.077 -0.2901 -0.0483 -0.0574
 2552DPPC   C1A52313  15.346  10.525  18.913  0.0728 -0.0745  0.1272
 2552DPPC   C2A52314  15.374  10.524  18.413  0.1267 -0.0880 -0.0446
 2552DPPC   C3A52315  15.384  10.625  17.971 -0.3573 -0.0128  0.0442
 2552DPPC   C4A52316  15.085  10.490  17.724 -0.0049 -0.1328 -0.4691
 2552DPPC   C1B52317  15.606  10.883  18.701 -0.0863 -0.4182 -0.0090
 2552DPPC   C2B52318  15.487  11.051  18.370  0.0444  0.3102 -0.1309
 2552DPPC   C3B52319  15.254  11.051  18.029  0.2217  0.1110 -0.0745
 2552DPPC   C4B52320  15.222  11.004  17.582 -0.2586  0.0030 -0.0076
 2553DPPC   NC352321  15.634  13.634  23.128 -0.0223 -0.0772 -0.4559
 2553DPPC   PO452322  15.501  14.055  23.037 -0.0768  0.0979 -0.1257
 2553DPPC   GL152323  15.712  14.235  23.395 -0.1097  0.5356  0.0526
 2553DPPC   GL252324  15.883  13.990  23.490 -0.0371 -0.1966  0.2188
 2553DPPC   C1A52325  15.912  14.423  23.721  0.2846 -0.1270  0.1026
 2553DPPC   C2A52326  16.238  14.665  23.903 -0.0303 -0.1311  0.3261
 2553DPPC   C3A52327  16.660  14.839  23.869  0.2859 -0.0581  0.4954
 2553DPPC   C4A52328  17.129  15.000  23.906  0.0764  0.0989 -0.0032
 2553DPPC   C1B52329  16.321  13.857  23.605 -0.2447 -0.1279 -0.2396
 2553DPPC   C2B52330  16.497  13.531  23.818 -0.0986  0.1334 -0.0204
 2553DPPC   C3B52331  16.484  13.293  24.147  0.0507 -0.0623 -0.1713
 2553DPPC   C4B52332  16.299  13.259  24.628 -0.0310 -0.1020 -0.1876
 2554DPPC   NC352333  18.426  20.902  19.247  0.0922 -0.1400  0.5362
 2554DPPC   PO452334  18.589  21.199  19.632  0.0622 -0.1406  0.1993
 2554DPPC   GL152335  18.320  20.824  19.856  0.0904  0.0501  0.0764
 2554DPPC   GL252336  18.259  20.579  19.638  0.2515 -0.3977  0.0314
 2554DPPC   C1A52337  17.934  20.762  20.179  0.3207  0.0482  0.1112
 2554DPPC   C2A52338  17.561  20.852  20.374  0.2169 -0.1540 -0.2501
 2554DPPC   C3A52339  17.407  20.490  20.443  0.0029 -0.2785  0.0057
 2554DPPC   C4A52340  17.485  20.041  20.672  0.0640 -0.1827  0.2851
 2554DPPC   C1B52341  17.870  20.557  19.750  0.6368  0.2204  0.1029
 2554DPPC   C2B52342  17.662  20.269  19.880 -0.1335  0.1845  0.1479
 2554DPPC   C3B52343  17.268  20.284  19.998  0.1441  0.2812  0.2273
 2554DPPC   C4B52344  17.052  20.160  20.388  0.0542 -0.0331 -0.0658
 2555DPPC   NC352345  21.010   9.200  21.396  0.2072 -0.1095  0.2041
 2555DPPC   PO452346  20.566   8.919  21.452  0.1146  0.0411  0.2351
 2555DPPC   GL152347  20.580   8.453  21.310 -0.2381 -0.2386  0.3783
 2555DPPC   GL252348  20.478   8.413  20.925 -0.2783 -0.1684 -0.2171
 2555DPPC   C1A52349  20.877   8.108  21.131 -0.3124 -0.1473 -0.2874
 2555DPPC   C2A52350  21.089   7.993  20.668  0.1695  0.3647 -0.0051
 2555DPPC   C3A52351  21.393   7.718  20.449  0.2442  0.0994 -0.2303
 2555DPPC   C4A52352  21.522   7.340  20.331  0.0356  0.1936 -0.3338
 2555DPPC   C1B52353  20.941   8.492  20.846 -0.3302 -0.0411 -0.2516
 2555DPPC   C2B52354  21.217   8.472  20.466  0.3968  0.1179 -0.3991
 2555DPPC   C3B52355  21.425   8.256  20.206  0.2721 -0.1013  0.0501
 2555DPPC   C4B52356  21.660   8.137  19.764  0.2396  0.3732 -0.0343
 2556DPPC   NC352357  26.154   7.743  22.129  0.1680 -0.0487 -0.5316
 2556DPPC   PO452358  26.285   8.090  21.897  0.3978 -0.1110 -0.0706
 2556DPPC   GL152359  25.811   8.134  21.858  0.0267 -0.3451  0.0045
 2556DPPC   GL252360  25.739   8.255  22.272 -0.0920  0.1047  0.1139
 2556DPPC   C1A52361  25.457   8.385  21.927  0.0247  0.1713 -0.2771
 2556DPPC   C2A52362  25.109   8.189  22.299 -0.1121 -0.1019 -0.1539
 2556DPPC   C3A52363  24.840   8.244  22.732  0.1536  0.0249 -0.3932
 2556DPPC   C4A52364  24.543   8.018  23.067  0.0665 -0.1711  0.0157
 2556DPPC   C1B52365  25.688   8.637  22.407  0.1632 -0.0160  0.1223
 2556DPPC   C2B52366  25.637   8.807  22.837  0.1321  0.1983 -0.0837
 2556DPPC   C3B52367  25.352   9.008  23.124 -0.2523  0.0226 -0.0569
 2556DPPC   C4B52368  25.256   9.360  23.391  0.2707  0.1970  0.2140
 2557DPPC   NC352369  18.466  18.709  26.149  0.1584  0.1186  0.1286
 2557DPPC   PO452370  18.658  18.324  25.934  0.1800  0.0092  0.1764
 2557DPPC   GL152371  19.007  18.474  25.645  0.1102 -0.2864  0.1222
 2557DPPC   GL252372  19.244  18.688  25.616 -0.1532  0.2018 -0.3496
 2557DPPC   C1A52373  19.328  18.185  25.425 -0.0639  0.1734 -0.1346
 2557DPPC   C2A52374  19.699  18.171  25.210  0.1494 -0.0806 -0.2628
 2557DPPC   C3A52375  20.159  18.231  25.223  0.2168 -0.1346  0.1706
 2557DPPC   C4A52376  20.534  18.359  25.487 -0.2391 -0.1694  0.0142
 2557DPPC   C1B52377  19.559  18.732  25.365  0.0650  0.1910  0.0278
 2557DPPC   C2B52378  19.930  18.636  25.055 -0.0812 -0.1644  0.1453
 2557DPPC   C3B52379  20.364  18.824  24.969  0.3797  0.0478 -0.2251
 2557DPPC   C4B52380  20.696  18.921  24.811 -0.1517 -0.3893  0.1161
 2558DPPC   NC352381  21.593  12.646  20.077 -0.0024  0.1263 -0.1768
 2558DPPC   PO452382  21.303  12.973  19.818 -0.4636  0.1602 -0.1276
 2558DPPC   GL152383  21.625  13.233  19.696 -0.1545  0.0284  0.0994
 2558DPPC   GL252384  21.532  13.231  19.401  0.1297 -0.1703  0.0451
 2558DPPC   C1A52385  21.952  13.653  19.729 -0.3004  0.2491 -0.4137
 2558DPPC   C2A52386  22.315  13.909  19.627  0.1560 -0.1471 -0.0633
 2558DPPC   C3A52387  22.637  14.079  19.419 -0.0624  0.1979 -0.1489
 2558DPPC   C4A52388  22.762  14.389  19.100  0.2331  0.1286  0.1679
 2558DPPC   C1B52389  21.637  13.521  19.017 -0.0712  0.1121 -0.0268
 2558DPPC   C2B52390  21.517  13.818  18.687  0.0336 -0.0426 -0.0661
 2558DPPC   C3B52391  21.223  14.112  18.380  0.0339  0.2625 -0.0892
 2558DPPC   C4B52392  20.993  14.237  18.015 -0.1157  0.4278 -0.0401
 2559DPPC   NC352393  22.531  20.505  27.275  0.2020  0.2400 -0.0605
 2559DPPC   PO452394  22.596  20.818  27.566  0.4915  0.1620  0.0036
 2559DPPC   GL152395  22.356  20.750  27.865  0.0226  0.0863  0.1287
 2559DPPC   GL252396  22.069  20.902  27.691 -0.0155 -0.2436 -0.3765
 2559DPPC   C1A52397  22.080  20.541  28.096  0.0754  0.2410  0.1329
 2559DPPC   C2A52398  21.736  20.353  28.274  0.0683  0.2484 -0.1277
 2559DPPC   C3A52399  21.344  20.152  28.397  0.4117 -0.0030 -0.1313
 2559DPPC   C4A52400  20.925  20.119  28.307  0.0805  0.1848 -0.0156
 2559DPPC   C1B52401  21.893  20.537  27.610  0.2826  0.0642  0.0445
 2559DPPC   C2B52402  21.927  20.142  27.416 -0.0451 -0.1246  0.0477
 2559DPPC   C3B52403  21.818  19.870  27.080 -0.1223  0.2202 -0.0176
 2559DPPC   C4B52404  22.214  19.538  27.021  0.4861  0.0668 -0.0236
 2560DPPC   NC352405  16.144  12.425  14.982 -0.1781  0.1730  0.1051
 2560DPPC   PO452406  15.962  11.969  14.988 -0.0256  0.0449 -0.1217
 2560DPPC   GL152407  16.160  11.954  15.386  0.1475  0.0357 -0.4438
 2560DPPC   GL252408  16.550  12.049  15.573 -0.1737  0.0307  0.2973
 2560DPPC   C1A52409  16.009  11.995  15.722 -0.0902 -0.2774 -0.0169
 2560DPPC   C2A52410  15.754  11.739  15.883 -0.0313  0.2371 -0.1643
 2560DPPC   C3A52411  15.846  11.311  16.024  0.1980 -0.1212 -0.4975
 2560DPPC   C4A52412  16.150  11.068  16.064 -0.3903  0.0297  0.0272
 2560DPPC   C1B52413  16.671  11.961  16.020 -0.2267  0.0340 -0.3463
 2560DPPC   C2B52414  16.476  11.971  16.441  0.1385 -0.3718  0.0689
 2560DPPC   C3B52415  16.165  12.281  16.706  0.1233 -0.1079 -0.2156
 2560DPPC   C4B52416  16.061  12.506  17.066  0.1747  0.2500  0.1592
 2561DPPC   NC352417  22.967  14.978  17.256 -0.2125 -0.0788  0.0862
 2561DPPC   PO452418  22.863  14.495  17.064  0.2312 -0.0057  0.0453
 2561DPPC   GL152419  22.674  14.241  17.324 -0.2159 -0.1197 -0.0969
 2561DPPC   GL252420  22.348  14.095  17.196 -0.0120 -0.1885 -0.1751
 2561DPPC   C1A52421  22.713  13.885  17.538 -0.3095 -0.1501  0.2213
 2561DPPC   C2A52422  22.713  13.417  17.666 -0.1883 -0.0389 -0.1262
 2561DPPC   C3A52423  22.792  13.026  17.547 -0.2330 -0.2198  0.1920
 2561DPPC   C4A52424  22.687  12.657  17.210 -0.1107 -0.0708  0.1097
 2561DPPC   C1B52425  22.191  14.380  17.555 -0.0401  0.2698 -0.1812
 2561DPPC   C2B52426  22.016  14.308  17.971  0.0806 -0.1717  0.1665
 2561DPPC   C3B52427  21.907  14.185  18.357 -0.0326  0.1485 -0.1112
 2561DPPC   C4B52428  22.002  13.903  18.677 -0.2138  0.2125 -0.1892
 2562DPPC   NC352429  15.355  16.499  24.997  0.1229  0.1707  0.2887
 2562DPPC   PO452430  15.651  16.485  25.301  0.1315  0.2255 -0.0643
 2562DPPC   GL152431  16.179  16.358  25.214  0.2448 -0.0938  0.0188
 2562DPPC   GL252432  16.477  16.345  25.447 -0.1916 -0.1022 -0.0558
 2562DPPC   C1A52433  16.350  16.104  24.860 -0.1079  0.1156  0.1523
 2562DPPC   C2A52434  16.279  15.877  24.583  0.2012 -0.2586 -0.1405
 2562DPPC   C3A52435  15.889  15.740  24.320  0.0081  0.3178  0.1094
 2562DPPC   C4A52436  15.812  15.334  24.100 -0.2716  0.0380  0.1567
 2562DPPC   C1B52437  16.716  16.017  25.222  0.1371 -0.0648 -0.0606
 2562DPPC   C2B52438  16.660  15.688  24.919  0.0396  0.2074  0.0906
 2562DPPC   C3B52439  16.405  15.366  24.763 -0.3095 -0.1234  0.1404
 2562DPPC   C4B52440  16.118  15.128  25.042 -0.1708 -0.1489 -0.1143
 2563DPPC   NC352441  18.288  12.283  43.395 -0.0154  0.1809  0.2236
 2563DPPC   PO452442  18.768  12.177  43.512 -0.0077 -0.0228 -0.1210
 2563DPPC   GL152443  18.752  11.989  43.083  0.3370 -0.1868  0.2734
 2563DPPC   GL252444  18.415  12.058  42.957  0.0844  0.1558  0.3930
 2563DPPC   C1A52445  18.933  12.217  42.794  0.1974  0.1728  0.3526
 2563DPPC   C2A52446  18.825  12.614  42.528 -0.1619 -0.1536 -0.1917
 2563DPPC   C3A52447  18.789  12.883  42.168 -0.2206 -0.4276  0.1544
 2563DPPC   C4A52448  18.859  12.860  41.714  0.0657 -0.2150  0.3587
 2563DPPC   C1B52449  18.550  12.228  42.502 -0.3193  0.2846 -0.0586
 2563DPPC   C2B52450  18.533  11.978  42.082 -0.3614 -0.0074  0.0207
 2563DPPC   C3B52451  18.655  12.108  41.607  0.1099 -0.0040  0.0891
 2563DPPC   C4B52452  18.415  11.866  41.353 -0.0302 -0.2112  0.0107
 2564DPPC   NC352453  18.320  18.856  23.988 -0.1984  0.2951  0.0349
 2564DPPC   PO452454  18.352  18.876  24.386 -0.0214  0.0687  0.3228
 2564DPPC   GL152455  18.770  19.030  24.354 -0.0105 -0.0849  0.0708
 2564DPPC   GL252456  18.874  19.170  24.047  0.2932 -0.1523  0.0317
 2564DPPC   C1A52457  19.262  19.244  24.384 -0.2050  0.0766  0.4825
 2564DPPC   C2A52458  19.604  19.377  24.727  0.0037 -0.3322 -0.1967
 2564DPPC   C3A52459  19.972  19.249  24.701 -0.2120 -0.2838  0.0596
 2564DPPC   C4A52460  20.402  19.219  24.521 -0.0126  0.1961  0.0001
 2564DPPC   C1B52461  19.237  19.457  23.940 -0.3215 -0.0564  0.0864
 2564DPPC   C2B52462  19.499  19.791  24.023  0.1566  0.0427 -0.4561
 2564DPPC   C3B52463  19.368  20.137  24.127 -0.1409  0.0783 -0.1370
 2564DPPC   C4B52464  19.545  20.362  24.406  0.0771 -0.0811  0.0895
 2565DPPC   NC352465  18.485  19.870  41.324 -0.0379 -0.1556  0.0109
 2565DPPC   PO452466  18.268  19.528  41.342 -0.0204 -0.0649 -0.1992
 2565DPPC   GL152467  18.175  19.236  41.092 -0.1580  0.1288  0.0028
 2565DPPC   GL252468  18.494  18.986  41.117 -0.0081  0.0137  0.2095
 2565DPPC   C1A52469  18.061  18.837  40.980  0.0584 -0.1147  0.0422
 2565DPPC   C2A52470  17.956  18.674  40.588 -0.0878 -0.0675  0.2473
 2565DPPC   C3A52471  17.843  18.472  40.182 -0.3190  0.0831 -0.1367
 2565DPPC   C4A52472  17.880  18.589  39.814  0.1626 -0.0372 -0.1345
 2565DPPC   C1B52473  18.652  18.643  40.753 -0.1166 -0.1627  0.1096
 2565DPPC   C2B52474  18.383  18.460  40.448  0.0893 -0.0076  0.0454
 2565DPPC   C3B52475  18.428  18.131  40.070  0.2721  0.0446 -0.1739
 2565DPPC   C4B52476  18.409  18.334  39.761 -0.0862 -0.0315 -0.2499
 2566DPPC   NC352477   9.496   1.719  29.718  0.2102 -0.2758  0.2164
 2566DPPC   PO452478   9.280   1.997  29.869 -0.1423 -0.0706  0.3463
 2566DPPC   GL152479   9.505   2.354  30.101  0.0670 -0.2400  0.1207
 2566DPPC   GL252480   9.652   2.171  30.308  0.2726  0.1328 -0.0260
 2566DPPC   C1A52481   9.953   2.548  29.949  0.2739  0.1503 -0.3749
 2566DPPC   C2A52482  10.225   2.897  29.879 -0.1191  0.1819  0.1116
 2566DPPC   C3A52483  10.621   3.149  29.627 -0.0171  0.0928 -0.0571
 2566DPPC   C4A52484  10.894   3.312  29.285 -0.0755 -0.4080  0.0875
 2566DPPC   C1B52485   9.911   2.484  30.517 -0.2078 -0.2602 -0.0654
 2566DPPC   C2B52486   9.836   2.847  30.817  0.0684 -0.0927  0.0020
 2566DPPC   C3B52487   9.549   3.168  30.961  0.0396  0.1932  0.4180
 2566DPPC   C4B52488   9.682   3.577  31.076 -0.1498 -0.1692  0.3256
 2567DPPC   NC352489  22.257  10.688  21.328 -0.1074 -0.0051 -0.1916
 2567DPPC   PO452490  22.104  10.389  21.569 -0.0006  0.1726 -0.0346
 2567DPPC   GL152491  22.463  10.169  21.399 -0.0567 -0.2346  0.0124
 2567DPPC   GL252492  22.424  10.300  21.054 -0.1848  0.2569 -0.1669
 2567DPPC   C1A52493  22.863   9.907  21.481  0.2790 -0.2967  0.0379
 2567DPPC   C2A52494  23.280  10.049  21.710 -0.1376  0.2018 -0.1946
 2567DPPC   C3A52495  23.615  10.287  21.564 -0.0804 -0.0707 -0.1992
 2567DPPC   C4A52496  23.837  10.658  21.507  0.0088 -0.0283  0.0841
 2567DPPC   C1B52497  22.796  10.442  21.025 -0.0226 -0.0343  0.1021
 2567DPPC   C2B52498  23.174  10.431  20.770  0.0963  0.1423  0.5335
 2567DPPC   C3B52499  23.410  10.071  20.694  0.0626  0.1068 -0.0809
 2567DPPC   C4B52500  23.134   9.668  20.497  0.1810 -0.2872  0.0167
 2568DPPC   NC352501   7.885   4.296  35.134 -0.1294  0.3161  0.0157
 2568DPPC   PO452502   7.994   4.732  35.307  0.2426 -0.0081 -0.1328
 2568DPPC   GL152503   8.437   4.716  35.182 -0.2387  0.1121  0.2839
 2568DPPC   GL252504   8.821   4.642  35.225 -0.1185  0.0262  0.0436
 2568DPPC   C1A52505   8.701   5.019  34.953 -0.0411  0.2198  0.3544
 2568DPPC   C2A52506   8.803   5.362  34.922 -0.0452  0.0234  0.0867
 2568DPPC   C3A52507   8.884   5.659  34.671 -0.1559  0.5060  0.0039
 2568DPPC   C4A52508   9.206   5.903  34.627  0.3504  0.1542 -0.2021
 2568DPPC   C1B52509   9.123   5.060  35.183  0.1097 -0.0725  0.1187
 2568DPPC   C2B52510   9.388   5.273  34.986  0.2824 -0.2304 -0.2533
 2568DPPC   C3B52511   9.854   5.328  34.912  0.0749 -0.3116  0.3603
 2568DPPC   C4B52512  10.217   5.419  34.632 -0.0692  0.2604  0.0425
 2569DPPC   NC352513  15.425  24.489  24.401  0.1930  0.0763 -0.3917
 2569DPPC   PO452514  15.891  24.543  24.329 -0.1710 -0.2096  0.2842
 2569DPPC   GL152515  15.825  24.142  24.554 -0.0626  0.3287  0.0163
 2569DPPC   GL252516  16.047  24.108  24.620 -0.0733  0.2327  0.0463
 2569DPPC   C1A52517  15.713  23.746  24.528 -0.1184  0.3369 -0.0300
 2569DPPC   C2A52518  15.576  23.334  24.622  0.2182  0.3514 -0.0354
 2569DPPC   C3A52519  15.400  22.787  24.472  0.1234 -0.1094  0.0692
 2569DPPC   C4A52520  15.353  22.404  24.239  0.3591 -0.1962  0.1161
 2569DPPC   C1B52521  16.157  23.685  24.591  0.1217 -0.0858  0.1594
 2569DPPC   C2B52522  16.067  23.215  24.647 -0.1909  0.0435 -0.1700
 2569DPPC   C3B52523  15.859  22.812  24.706 -0.1271  0.1142  0.0574
 2569DPPC   C4B52524  16.009  22.315  24.603  0.1225  0.0701  0.1532
 2570DPPC   NC352525  16.447  12.382  44.083 -0.1999  0.1984 -0.0288
 2570DPPC   PO452526  16.067  12.621  43.833  0.2182  0.0440  0.0705
 2570DPPC   GL152527  15.915  12.530  43.517 -0.0164 -0.1075 -0.2407
 2570DPPC   GL252528  16.076  12.223  43.374 -0.2023  0.2619  0.2323
 2570DPPC   C1A52529  15.541  12.617  43.231  0.2322  0.0272  0.0245
 2570DPPC   C2A52530  15.563  12.898  42.962 -0.1137 -0.0193  0.1617
 2570DPPC   C3A52531  15.563  12.918  42.498 -0.1690 -0.0841  0.2320
 2570DPPC   C4A52532  15.408  12.844  42.112 -0.2285 -0.1351  0.2627
 2570DPPC   C1B52533  16.355  12.230  43.063  0.0153  0.0545  0.3059
 2570DPPC   C2B52534  16.263  12.223  42.614  0.1757 -0.2166  0.2679
 2570DPPC   C3B52535  16.250  12.191  42.211  0.3449  0.1665 -0.0640
 2570DPPC   C4B52536  16.261  12.336  41.754  0.0742 -0.1030 -0.0083
 2571DPPC   NC352537  18.790  16.005  20.933 -0.2625 -0.1790  0.3164
 2571DPPC   PO452538  19.265  16.068  21.098 -0.1961 -0.2987 -0.3049
 2571DPPC   GL152539  19.600  16.310  20.862 -0.3041  0.0715  0.0537
 2571DPPC   GL252540  19.432  16.530  20.907  0.0211 -0.0654 -0.2938
 2571DPPC   C1A52541  19.806  16.456  20.491  0.0816  0.0696  0.2140
 2571DPPC   C2A52542  20.108  16.535  20.246  0.0222 -0.0452 -0.0387
 2571DPPC   C3A52543  20.521  16.745  20.310 -0.0184 -0.0274  0.3711
 2571DPPC   C4A52544  20.802  16.866  20.000 -0.1376 -0.0772 -0.1856
 2571DPPC   C1B52545  19.732  16.819  20.870 -0.0435 -0.4084  0.1042
 2571DPPC   C2B52546  19.876  17.048  20.531 -0.3473 -0.1747  0.0955
 2571DPPC   C3B52547  20.024  17.267  20.131 -0.1321  0.0276 -0.2069
 2571DPPC   C4B52548  20.419  17.306  19.971  0.0063  0.1571  0.1583
 2572DPPC   NC352549  21.834  19.545  22.170  0.1588 -0.0540 -0.1990
 2572DPPC   PO452550  21.594  19.680  21.778  0.0927  0.3126  0.1017
 2572DPPC   GL152551  21.295  19.430  21.741  0.4553  0.2139  0.2512
 2572DPPC   GL252552  21.358  19.362  22.088  0.3066  0.0389  0.6122
 2572DPPC   C1A52553  20.866  19.235  21.847  0.0507 -0.1429  0.0662
 2572DPPC   C2A52554  20.621  18.934  22.149  0.2034  0.4729  0.3437
 2572DPPC   C3A52555  20.318  18.865  22.458  0.0650 -0.1026  0.1707
 2572DPPC   C4A52556  20.278  18.833  22.952 -0.0733  0.3718 -0.0090
 2572DPPC   C1B52557  21.279  18.921  21.981  0.1804 -0.0409  0.2179
 2572DPPC   C2B52558  20.870  18.715  21.837  0.0328 -0.1948  0.3830
 2572DPPC   C3B52559  20.629  18.428  22.229  0.0356  0.2027 -0.2145
 2572DPPC   C4B52560  20.391  18.437  22.648 -0.0630  0.4307  0.0588
 2573DPPC   NC352561  22.776  18.712  23.624  0.1193 -0.0212  0.1365
 2573DPPC   PO452562  22.684  18.922  23.221 -0.2147  0.0778 -0.0568
 2573DPPC   GL152563  22.298  18.731  23.465 -0.1377 -0.0042 -0.2878
 2573DPPC   GL252564  22.390  18.448  23.311 -0.0879  0.1342  0.1254
 2573DPPC   C1A52565  21.965  18.706  23.332 -0.1211 -0.2126  0.0788
 2573DPPC   C2A52566  21.745  18.649  22.956  0.1321  0.0713  0.0048
 2573DPPC   C3A52567  21.564  18.632  22.530 -0.2720 -0.2686  0.0439
 2573DPPC   C4A52568  21.465  18.487  22.114 -0.0321  0.1231  0.1817
 2573DPPC   C1B52569  22.270  18.117  22.937  0.1601 -0.2053 -0.0535
 2573DPPC   C2B52570  22.033  17.748  22.742 -0.0037  0.1684  0.0203
 2573DPPC   C3B52571  22.082  17.266  22.512 -0.0166 -0.1490 -0.0239
 2573DPPC   C4B52572  22.066  16.877  22.311 -0.0512 -0.2285  0.0667
 2574DPPC   NC352573  16.476  12.974  19.459 -0.1176  0.5219  0.0134
 2574DPPC   PO452574  16.435  12.818  18.966 -0.0658 -0.1995  0.0272
 2574DPPC   GL152575  16.167  13.059  18.617  0.1713 -0.0827 -0.2008
 2574DPPC   GL252576  16.338  12.931  18.377 -0.1971  0.0212 -0.1254
 2574DPPC   C1A52577  15.893  13.179  18.286  0.0378  0.1759  0.0686
 2574DPPC   C2A52578  15.505  13.225  18.101  0.0945  0.0011  0.1182
 2574DPPC   C3A52579  15.246  13.308  17.832  0.2221  0.1571 -0.0915
 2574DPPC   C4A52580  14.978  13.180  17.503  0.0571  0.0581  0.1599
 2574DPPC   C1B52581  16.431  13.328  18.272 -0.3354  0.1652  0.2001
 2574DPPC   C2B52582  16.396  13.574  17.984 -0.0879 -0.2590  0.2531
 2574DPPC   C3B52583  16.777  13.812  17.741 -0.1170 -0.3096  0.0781
 2574DPPC   C4B52584  17.032  14.131  17.563  0.0377  0.1364  0.0290
 2575DPPC   NC352585  20.360  15.432  21.390  0.1547 -0.0695  0.0940
 2575DPPC   PO452586  20.367  15.287  21.050 -0.0097  0.3186  0.0608
 2575DPPC   GL152587  20.608  15.591  20.804 -0.2399  0.0576  0.0746
 2575DPPC   GL252588  20.347  15.612  20.594  0.0363 -0.0100  0.0423
 2575DPPC   C1A52589  20.901  15.800  20.413  0.1179 -0.2497 -0.2075
 2575DPPC   C2A52590  21.161  15.803  20.047 -0.3319  0.3858 -0.2764
 2575DPPC   C3A52591  21.194  15.748  19.642 -0.2523  0.1493  0.3160
 2575DPPC   C4A52592  20.991  15.928  19.183 -0.2937 -0.2931 -0.4106
 2575DPPC   C1B52593  20.385  15.756  20.182  0.2166  0.0792  0.1188
 2575DPPC   C2B52594  20.650  15.762  19.896  0.0733 -0.1467 -0.1526
 2575DPPC   C3B52595  20.749  15.961  19.633  0.1468  0.3064  0.1740
 2575DPPC   C4B52596  21.089  16.289  19.576  0.0912  0.2159  0.0350
 2576DPPC   NC352597  10.468   8.912  42.972 -0.0367  0.3028 -0.0977
 2576DPPC   PO452598  10.393   8.952  42.519  0.0708  0.2800  0.0186
 2576DPPC   GL152599  10.418   9.022  42.185 -0.1734 -0.3601  0.3898
 2576DPPC   GL252600  10.509   8.857  41.905  0.0491  0.1486  0.1224
 2576DPPC   C1A52601  10.481   9.409  41.919  0.0838 -0.1353  0.2128
 2576DPPC   C2A52602  10.504   9.790  41.669  0.2895 -0.0217 -0.1054
 2576DPPC   C3A52603  10.543  10.067  41.248  0.2418 -0.1031 -0.2279
 2576DPPC   C4A52604  10.702   9.981  40.774 -0.1569 -0.0593  0.1573
 2576DPPC   C1B52605  10.361   8.993  41.614 -0.0199  0.2971  0.0192
 2576DPPC   C2B52606  10.067   9.090  41.316 -0.0181  0.1685 -0.0638
 2576DPPC   C3B52607  10.018   8.845  40.927 -0.0907 -0.1351  0.0473
 2576DPPC   C4B52608  10.167   8.972  40.503  0.0255  0.1104  0.1440
 2577DPPC   NC352609  11.916   0.576  31.328 -0.3058  0.3603 -0.3805
 2577DPPC   PO452610  12.185   0.545  31.741 -0.1706  0.2436  0.2793
 2577DPPC   GL152611  12.195   1.035  31.687  0.1575  0.2087  0.0980
 2577DPPC   GL252612  12.229   1.042  31.358  0.1244 -0.0131 -0.1528
 2577DPPC   C1A52613  12.200   1.587  31.593  0.1844 -0.2201  0.1713
 2577DPPC   C2A52614  12.278   2.052  31.610  0.2293 -0.1811 -0.4015
 2577DPPC   C3A52615  12.272   2.439  31.439 -0.0484  0.2587  0.0470
 2577DPPC   C4A52616  12.462   2.885  31.221 -0.3554 -0.0058  0.4027
 2577DPPC   C1B52617  12.050   1.436  31.126 -0.0161  0.5533  0.1533
 2577DPPC   C2B52618  12.126   1.724  30.812 -0.3758 -0.0799  0.1555
 2577DPPC   C3B52619  12.338   1.950  30.534 -0.2333 -0.1282  0.0741
 2577DPPC   C4B52620  12.299   2.364  30.426  0.0527  0.1901 -0.0749
 2578DPPC   NC352621  15.978  14.601  19.589 -0.0558 -0.0320 -0.3770
 2578DPPC   PO452622  15.887  15.029  19.549 -0.2962  0.2420  0.1715
 2578DPPC   GL152623  15.940  15.043  19.039  0.0442 -0.0300 -0.1406
 2578DPPC   GL252624  16.197  15.155  19.107 -0.2235  0.1956 -0.3196
 2578DPPC   C1A52625  15.647  14.950  18.829 -0.0096 -0.0231 -0.0523
 2578DPPC   C2A52626  15.321  15.067  18.482 -0.2330 -0.0024  0.0079
 2578DPPC   C3A52627  15.092  15.178  18.045 -0.0026  0.1364 -0.2476
 2578DPPC   C4A52628  14.665  15.393  17.774  0.2507  0.0795  0.2061
 2578DPPC   C1B52629  16.359  15.296  18.693  0.0067 -0.2938 -0.0041
 2578DPPC   C2B52630  16.550  15.415  18.343 -0.0398  0.0160 -0.1718
 2578DPPC   C3B52631  16.880  15.828  18.166  0.1752  0.2220 -0.1022
 2578DPPC   C4B52632  17.206  15.947  18.010 -0.4719  0.2091  0.2354
 2579DPPC   NC352633  26.897   9.553  22.935 -0.2544 -0.0582 -0.3717
 2579DPPC   PO452634  26.630   9.090  23.139 -0.1135  0.1168 -0.1676
 2579DPPC   GL152635  26.243   8.975  23.029 -0.0590 -0.0412  0.2174
 2579DPPC   GL252636  26.057   8.838  23.324  0.1000 -0.0187  0.0998
 2579DPPC   C1A52637  25.843   9.190  23.042 -0.1293  0.3051  0.1755
 2579DPPC   C2A52638  25.753   9.519  23.351  0.0501  0.1417 -0.2650
 2579DPPC   C3A52639  26.021   9.942  23.491 -0.2149  0.1247  0.3109
 2579DPPC   C4A52640  26.234  10.089  23.061 -0.0574 -0.0235  0.0823
 2579DPPC   C1B52641  25.683   8.718  23.332  0.1811  0.1609  0.2963
 2579DPPC   C2B52642  25.296   8.474  23.178 -0.2661 -0.1208  0.2872
 2579DPPC   C3B52643  24.780   8.464  23.245 -0.0043 -0.0768 -0.0331
 2579DPPC   C4B52644  24.439   8.672  23.407  0.1085 -0.1077  0.0177
 2580DPPC   NC352645  20.206  23.246  32.225  0.1397 -0.2212  0.0440
 2580DPPC   PO452646  20.314  22.832  32.334 -0.0357  0.1566 -0.1355
 2580DPPC   GL152647  20.343  22.379  32.359 -0.3384  0.0704  0.0236
 2580DPPC   GL252648  20.504  22.253  32.127 -0.1576  0.0582  0.2753
 2580DPPC   C1A52649  20.164  22.003  32.536 -0.3420  0.2822 -0.3035
 2580DPPC   C2A52650  19.844  21.651  32.344 -0.3511  0.2129 -0.1178
 2580DPPC   C3A52651  19.662  21.301  32.223 -0.0957 -0.0715 -0.0675
 2580DPPC   C4A52652  19.378  20.994  32.023  0.2577 -0.1804  0.0215
 2580DPPC   C1B52653  20.231  21.841  32.064 -0.1803 -0.1353  0.0251
 2580DPPC   C2B52654  20.116  21.382  31.991 -0.1332 -0.0339 -0.1562
 2580DPPC   C3B52655  20.151  20.960  32.008 -0.2427  0.1986 -0.0251
 2580DPPC   C4B52656  20.164  20.561  32.025  0.3650  0.0097 -0.1119
 2581DPPC   NC352657  11.328  17.467  17.819  0.2986 -0.2052 -0.0858
 2581DPPC   PO452658  11.208  17.804  17.950 -0.0209  0.1259  0.3475
 2581DPPC   GL152659  11.187  17.710  18.364 -0.0775  0.0600 -0.0535
 2581DPPC   GL252660  11.411  17.420  18.297 -0.0371 -0.3307 -0.2514
 2581DPPC   C1A52661  10.925  17.405  18.657  0.0763  0.2020  0.0017
 2581DPPC   C2A52662  10.921  17.056  18.847  0.4466  0.0008  0.1983
 2581DPPC   C3A52663  10.928  16.677  18.984  0.1220  0.0526 -0.0172
 2581DPPC   C4A52664  10.671  16.458  19.306  0.0393  0.0113 -0.3405
 2581DPPC   C1B52665  11.410  17.240  18.689  0.2102  0.1922 -0.2364
 2581DPPC   C2B52666  11.452  16.939  19.060  0.2127  0.3303  0.1569
 2581DPPC   C3B52667  11.549  16.984  19.524  0.0778 -0.0491  0.2014
 2581DPPC   C4B52668  11.602  17.210  19.960 -0.1860  0.0062 -0.0831
 2582DPPC   NC352669   4.904  20.301  31.600 -0.1346  0.3180 -0.2067
 2582DPPC   PO452670   4.752  19.879  31.509 -0.2378 -0.1207  0.0777
 2582DPPC   GL152671   4.696  19.383  31.463  0.3489  0.0670 -0.1558
 2582DPPC   GL252672   4.840  19.237  31.192 -0.2359  0.3275  0.2043
 2582DPPC   C1A52673   4.672  18.980  31.583 -0.0880  0.2989 -0.1162
 2582DPPC   C2A52674   4.950  18.554  31.737  0.0261  0.0970 -0.2389
 2582DPPC   C3A52675   5.281  18.365  31.815 -0.4621  0.1653  0.0837
 2582DPPC   C4A52676   5.690  18.434  31.793  0.2878 -0.4816 -0.0428
 2582DPPC   C1B52677   5.027  18.977  30.775  0.0035  0.1458  0.0381
 2582DPPC   C2B52678   5.443  18.787  30.690  0.3629  0.1358 -0.0868
 2582DPPC   C3B52679   5.728  18.419  30.776  0.1864  0.0467  0.0569
 2582DPPC   C4B52680   6.141  18.421  30.825  0.1022 -0.2210 -0.0965
 2583DPPC   NC352681   8.571  11.575  18.741 -0.1262 -0.2849  0.2079
 2583DPPC   PO452682   8.580  11.269  19.060  0.1298  0.0177  0.0742
 2583DPPC   GL152683   8.866  11.113  19.253  0.0184 -0.0697 -0.3321
 2583DPPC   GL252684   8.731  11.099  19.745  0.0113 -0.0793  0.0705
 2583DPPC   C1A52685   9.250  11.033  19.462  0.0531  0.0931  0.1832
 2583DPPC   C2A52686   9.598  11.247  19.442 -0.2414  0.0287 -0.0067
 2583DPPC   C3A52687   9.928  11.436  19.575  0.1001 -0.1700  0.2460
 2583DPPC   C4A52688  10.078  11.594  19.934  0.0956 -0.0270  0.0750
 2583DPPC   C1B52689   9.167  11.131  19.927 -0.0453  0.1802 -0.1037
 2583DPPC   C2B52690   9.331  11.107  20.391 -0.2083 -0.2207  0.0168
 2583DPPC   C3B52691   9.340  11.225  20.853 -0.0001 -0.2056 -0.0202
 2583DPPC   C4B52692   9.198  11.247  21.295 -0.3084  0.0583  0.0066
 2584DPPC   NC352693  18.755  20.726  19.561 -0.3757  0.1104  0.3204
 2584DPPC   PO452694  19.120  20.430  19.331  0.1539  0.0358  0.0101
 2584DPPC   GL152695  18.870  20.305  19.694 -0.1979 -0.0028 -0.0736
 2584DPPC   GL252696  18.609  20.328  19.859 -0.0093 -0.1410  0.0227
 2584DPPC   C1A52697  18.876  20.037  20.198  0.3876  0.1557  0.0027
 2584DPPC   C2A52698  19.108  19.744  20.385 -0.0945 -0.2496  0.0248
 2584DPPC   C3A52699  19.328  19.416  20.305 -0.0480  0.0812 -0.4715
 2584DPPC   C4A52700  19.420  19.065  20.630 -0.0872  0.0415  0.0797
 2584DPPC   C1B52701  18.265  20.350  20.141 -0.0501  0.3617  0.2059
 2584DPPC   C2B52702  17.889  20.131  20.314  0.2053 -0.0330 -0.1085
 2584DPPC   C3B52703  17.905  19.811  20.568 -0.1454 -0.1869 -0.1988
 2584DPPC   C4B52704  17.694  19.456  20.725  0.1624  0.1676  0.1999
 2585DPPC   NC352705   8.751  23.420  24.538  0.0575 -0.0532  0.1522
 2585DPPC   PO452706   8.452  23.067  24.401  0.2428 -0.3208 -0.0515
 2585DPPC   GL152707   8.727  22.676  24.459  0.0644  0.3916  0.0651
 2585DPPC   GL252708   8.745  22.521  24.215  0.1701 -0.0658  0.0035
 2585DPPC   C1A52709   8.900  22.367  24.704 -0.3621 -0.2319  0.0185
 2585DPPC   C2A52710   9.221  22.143  24.954  0.0509  0.2209  0.0992
 2585DPPC   C3A52711   9.608  21.976  25.020 -0.0641 -0.0421 -0.0627
 2585DPPC   C4A52712  10.008  21.875  24.811  0.0311 -0.2212  0.0015
 2585DPPC   C1B52713   8.987  22.225  24.227 -0.0185  0.0483  0.0536
 2585DPPC   C2B52714   9.156  21.801  24.503  0.3169 -0.0193 -0.3454
 2585DPPC   C3B52715   9.432  21.610  24.719 -0.0102  0.0115 -0.0255
 2585DPPC   C4B52716   9.632  21.229  24.864  0.0122  0.3524 -0.1039
 2586DPPC   NC352717  18.290  16.533  27.602 -0.0372 -0.1882  0.1984
 2586DPPC   PO452718  18.755  16.602  27.601  0.0559  0.1900  0.1501
 2586DPPC   GL152719  18.514  16.313  27.197  0.1954 -0.0047  0.0690
 2586DPPC   GL252720  18.214  16.549  27.124  0.0950 -0.0273 -0.2556
 2586DPPC   C1A52721  18.729  15.956  26.832  0.2629  0.1259  0.1855
 2586DPPC   C2A52722  18.521  15.616  26.600 -0.1262 -0.2252 -0.1877
 2586DPPC   C3A52723  18.587  15.522  26.153 -0.0685 -0.2912  0.0053
 2586DPPC   C4A52724  18.677  15.280  25.762  0.0699  0.2912  0.0448
 2586DPPC   C1B52725  18.324  16.397  26.765  0.1481 -0.1530 -0.1940
 2586DPPC   C2B52726  18.281  16.349  26.252  0.2489 -0.0081 -0.1622
 2586DPPC   C3B52727  18.570  16.498  25.905 -0.3212  0.1098  0.2848
 2586DPPC   C4B52728  18.756  16.929  26.015 -0.1508 -0.0501 -0.0954
 2587DPPC   NC352729  16.544  13.481  15.188 -0.0379  0.1519  0.1260
 2587DPPC   PO452730  16.720  13.048  15.265 -0.3675 -0.2825 -0.1807
 2587DPPC   GL152731  16.814  13.038  15.774 -0.0938  0.0568  0.0682
 2587DPPC   GL252732  16.744  13.195  16.097  0.3594  0.1798 -0.1855
 2587DPPC   C1A52733  17.042  12.741  15.978  0.0031 -0.0086 -0.1021
 2587DPPC   C2A52734  16.793  12.410  16.310  0.1666 -0.4909  0.0857
 2587DPPC   C3A52735  16.958  12.070  16.667 -0.1055 -0.1375  0.4053
 2587DPPC   C4A52736  16.622  11.892  16.944  0.0676  0.0970  0.3005
 2587DPPC   C1B52737  16.914  13.109  16.525  0.1732 -0.2649 -0.0245
 2587DPPC   C2B52738  16.880  13.068  16.961 -0.3509 -0.1219  0.0695
 2587DPPC   C3B52739  16.576  12.825  17.259 -0.0842 -0.0083  0.0423
 2587DPPC   C4B52740  16.130  12.960  17.290  0.0492  0.1750 -0.1393
 2588DPPC   NC352741   6.442  17.945  22.274 -0.1693  0.1398 -0.0081
 2588DPPC   PO452742   6.474  18.418  22.516  0.2683 -0.1733 -0.4065
 2588DPPC   GL152743   6.767  18.372  22.764  0.1537 -0.2603  0.2830
 2588DPPC   GL252744   7.020  18.310  22.669 -0.1276  0.0001 -0.0602
 2588DPPC   C1A52745   7.002  18.682  23.053 -0.0522 -0.0410  0.1077
 2588DPPC   C2A52746   7.472  18.765  23.075  0.2111  0.1439  0.0864
 2588DPPC   C3A52747   7.780  18.994  23.358  0.0800 -0.1310  0.0464
 2588DPPC   C4A52748   7.856  19.323  23.545  0.0047 -0.0442  0.3158
 2588DPPC   C1B52749   7.132  18.011  22.897 -0.0763 -0.0272 -0.2519
 2588DPPC   C2B52750   7.426  17.731  23.157  0.2779 -0.3303  0.3354
 2588DPPC   C3B52751   7.616  17.466  23.492 -0.0023  0.1549  0.0228
 2588DPPC   C4B52752   7.405  17.062  23.513  0.0652 -0.1235  0.2635
 2589DPPC   NC352753  19.696  14.306  20.335  0.1262 -0.0588  0.3031
 2589DPPC   PO452754  19.913  14.020  20.045 -0.0327 -0.1986  0.0182
 2589DPPC   GL152755  20.206  14.186  19.776  0.4065  0.1319  0.3893
 2589DPPC   GL252756  20.274  13.964  19.585  0.2479  0.1930 -0.1290
 2589DPPC   C1A52757  20.192  14.499  19.493  0.2645 -0.0411 -0.2130
 2589DPPC   C2A52758  20.443  14.627  19.167  0.0129 -0.0824  0.1284
 2589DPPC   C3A52759  20.626  14.353  18.776  0.2519 -0.0308 -0.1168
 2589DPPC   C4A52760  20.869  14.505  18.379 -0.5186  0.2043  0.1689
 2589DPPC   C1B52761  20.454  14.123  19.179  0.0487  0.3000  0.0752
 2589DPPC   C2B52762  20.285  13.929  18.824 -0.3921  0.1945 -0.0470
 2589DPPC   C3B52763  20.161  14.046  18.353 -0.2509 -0.0277 -0.2064
 2589DPPC   C4B52764  20.259  13.989  17.926  0.2932  0.1429  0.0098
 2590DPPC   NC352765  16.312  16.333  43.023  0.2364  0.4805 -0.0501
 2590DPPC   PO452766  16.358  15.946  43.304  0.2742  0.0459  0.1106
 2590DPPC   GL152767  16.408  15.677  42.911  0.0955  0.2674 -0.0389
 2590DPPC   GL252768  16.539  15.346  42.781  0.0041  0.0847  0.0649
 2590DPPC   C1A52769  16.502  15.708  42.404 -0.2490 -0.2823  0.1787
 2590DPPC   C2A52770  16.212  15.587  41.981 -0.1138  0.1103 -0.0079
 2590DPPC   C3A52771  16.038  15.338  41.661 -0.1131  0.1382 -0.1187
 2590DPPC   C4A52772  15.747  15.070  41.395 -0.3049  0.1791  0.2548
 2590DPPC   C1B52773  16.266  15.298  42.461 -0.0500  0.3185 -0.0724
 2590DPPC   C2B52774  15.925  15.248  42.136 -0.3466  0.2161 -0.1688
 2590DPPC   C3B52775  15.855  14.911  41.857  0.0415 -0.0333  0.0062
 2590DPPC   C4B52776  15.996  14.615  41.494 -0.0564 -0.0039 -0.0413
 2591DPPC   NC352777   6.359  19.573  36.403  0.1154 -0.1341 -0.3933
 2591DPPC   PO452778   6.073  19.384  36.242 -0.0581  0.1362 -0.2150
 2591DPPC   GL152779   6.303  19.109  36.544 -0.2507 -0.0211 -0.5316
 2591DPPC   GL252780   6.257  18.810  36.506 -0.0967  0.1319 -0.1394
 2591DPPC   C1A52781   6.777  19.019  36.519  0.0963 -0.1299  0.0219
 2591DPPC   C2A52782   7.065  18.816  36.099 -0.3017 -0.2072 -0.1611
 2591DPPC   C3A52783   7.056  18.711  35.614  0.3478 -0.0545 -0.0658
 2591DPPC   C4A52784   7.048  18.797  35.184  0.0167  0.0425 -0.0265
 2591DPPC   C1B52785   6.537  18.548  36.273 -0.1236 -0.0959 -0.2272
 2591DPPC   C2B52786   6.815  18.419  35.962 -0.2931 -0.0258  0.0029
 2591DPPC   C3B52787   7.043  17.993  35.878 -0.1020  0.1263 -0.0009
 2591DPPC   C4B52788   7.492  17.947  35.732  0.0699  0.0776  0.2651
 2592DPPC   NC352789  12.546  24.824  35.043 -0.0120  0.2643 -0.0636
 2592DPPC   PO452790  12.338  24.490  35.133 -0.3630  0.1397  0.2226
 2592DPPC   GL152791  12.293  23.972  35.221 -0.0465 -0.1663 -0.2205
 2592DPPC   GL252792  12.065  23.763  35.109  0.4107  0.1693 -0.0847
 2592DPPC   C1A52793  12.713  23.596  35.224 -0.0030  0.0068  0.1289
 2592DPPC   C2A52794  13.020  23.428  35.028  0.1570  0.1262 -0.2393
 2592DPPC   C3A52795  13.380  23.571  34.842  0.0451 -0.0980  0.0591
 2592DPPC   C4A52796  13.754  23.738  34.611  0.0351 -0.1039  0.3684
 2592DPPC   C1B52797  11.793  23.372  35.111  0.0424 -0.2657 -0.0429
 2592DPPC   C2B52798  11.605  22.979  34.913  0.2158  0.3460  0.2512
 2592DPPC   C3B52799  11.638  22.503  34.779 -0.1396  0.2819 -0.1799
 2592DPPC   C4B52800  11.395  22.206  34.887 -0.1864  0.3210 -0.0194
 2593DPPC   NC352801   0.131  16.168  31.596  0.3632  0.2065 -0.1881
 2593DPPC   PO452802  26.843  16.371  31.901 -0.1718  0.0391 -0.0713
 2593DPPC   GL152803  26.487  16.106  32.027  0.2784 -0.2747  0.0121
 2593DPPC   GL252804  26.546  15.735  32.237 -0.2066 -0.1265 -0.0161
 2593DPPC   C1A52805  26.095  15.986  31.746  0.0369  0.2065  0.0667
 2593DPPC   C2A52806  25.784  16.151  31.862 -0.1732  0.1424 -0.1516
 2593DPPC   C3A52807  25.411  16.260  32.073 -0.2608  0.1306  0.3422
 2593DPPC   C4A52808  25.451  16.237  32.506  0.0392  0.1367  0.0625
 2593DPPC   C1B52809  26.198  15.553  31.927 -0.2654  0.1528  0.1592
 2593DPPC   C2B52810  25.734  15.606  31.749  0.3169 -0.1824 -0.1494
 2593DPPC   C3B52811  25.368  15.595  31.817  0.1384 -0.1691 -0.1553
 2593DPPC   C4B52812  25.082  16.025  31.868  0.0267 -0.2124 -0.0052
 2594DPPC   NC352813  14.880  25.367  32.606 -0.0413  0.2269  0.1566
 2594DPPC   PO452814  15.194  25.091  32.852  0.1383 -0.0432  0.0428
 2594DPPC   GL152815  15.244  24.653  32.990 -0.0299 -0.0272 -0.0019
 2594DPPC   GL252816  15.569  24.495  33.020  0.1146  0.1567 -0.0526
 2594DPPC   C1A52817  15.113  24.231  32.855 -0.1239 -0.1018  0.0001
 2594DPPC   C2A52818  15.025  23.811  32.672 -0.1658  0.2692  0.2299
 2594DPPC   C3A52819  14.807  23.620  32.289  0.0279  0.2414 -0.1213
 2594DPPC   C4A52820  15.006  23.280  32.067  0.1844  0.0026 -0.0866
 2594DPPC   C1B52821  15.632  24.356  32.623  0.0782  0.3451  0.4079
 2594DPPC   C2B52822  15.989  24.237  32.273  0.0818  0.0720  0.1885
 2594DPPC   C3B52823  16.020  23.908  31.980 -0.2068 -0.0227 -0.3030
 2594DPPC   C4B52824  16.053  23.671  31.668 -0.1698  0.1310 -0.1348
 2595DPPC   NC352825   7.331   4.539  26.046 -0.0032  0.0957  0.2395
 2595DPPC   PO452826   6.829   4.612  26.099 -0.0087 -0.0781  0.1540
 2595DPPC   GL152827   7.047   4.940  26.069  0.1894 -0.1407 -0.0624
 2595DPPC   GL252828   7.082   5.276  25.804 -0.0136 -0.2557 -0.3429
 2595DPPC   C1A52829   7.463   5.182  26.269 -0.0241 -0.0903  0.0725
 2595DPPC   C2A52830   7.856   5.402  26.294 -0.1361 -0.2082  0.1026
 2595DPPC   C3A52831   8.060   5.730  26.550 -0.0050 -0.2466  0.2223
 2595DPPC   C4A52832   8.555   5.677  26.553 -0.1570 -0.0190  0.0063
 2595DPPC   C1B52833   7.247   5.643  26.157 -0.0126  0.1709  0.2393
 2595DPPC   C2B52834   7.274   5.831  26.570 -0.0744 -0.2611  0.2142
 2595DPPC   C3B52835   7.179   6.163  26.890  0.0105 -0.2825 -0.1187
 2595DPPC   C4B52836   6.865   6.251  27.093 -0.0518  0.2074  0.3797
 2596DPPC   NC352837  22.946  10.889  23.356 -0.0878  0.3330  0.1616
 2596DPPC   PO452838  22.799  10.840  22.883 -0.1216 -0.1069  0.2423
 2596DPPC   GL152839  23.225  11.077  22.715 -0.2341  0.1490 -0.0828
 2596DPPC   GL252840  23.259  10.980  22.425 -0.0273  0.1240 -0.2869
 2596DPPC   C1A52841  23.561  11.406  22.707  0.1431  0.2193  0.1446
 2596DPPC   C2A52842  23.924  11.549  22.888 -0.0868 -0.2807  0.0075
 2596DPPC   C3A52843  24.228  11.391  23.239  0.5077  0.0088  0.0063
 2596DPPC   C4A52844  24.572  11.290  23.419  0.1663  0.2545  0.2214
 2596DPPC   C1B52845  23.696  10.922  22.489  0.2764  0.2898  0.0599
 2596DPPC   C2B52846  24.018  11.108  22.712 -0.0492 -0.3156  0.1749
 2596DPPC   C3B52847  24.362  11.440  22.689  0.0847  0.0125 -0.3627
 2596DPPC   C4B52848  24.415  11.856  23.017 -0.0477  0.0348  0.4601
 2597DPPC   NC352849  15.886   2.341  20.459  0.1379 -0.0791 -0.2461
 2597DPPC   PO452850  15.485   2.309  20.239  0.2323 -0.2137  0.3502
 2597DPPC   GL152851  15.428   2.730  20.460  0.2189 -0.2348 -0.0669
 2597DPPC   GL252852  15.392   2.912  20.802  0.1319  0.2047 -0.0971
 2597DPPC   C1A52853  15.570   3.232  20.453 -0.0566  0.0833 -0.0154
 2597DPPC   C2A52854  15.685   3.633  20.553  0.1055 -0.0888  0.0292
 2597DPPC   C3A52855  15.566   4.085  20.732  0.2707 -0.0731 -0.1164
 2597DPPC   C4A52856  15.524   4.359  21.101  0.1314  0.2947 -0.1316
 2597DPPC   C1B52857  15.631   3.224  21.060  0.3403  0.1111  0.0774
 2597DPPC   C2B52858  15.915   3.639  21.039 -0.2901  0.2084  0.2218
 2597DPPC   C3B52859  15.981   4.035  20.994  0.0054 -0.2111 -0.0988
 2597DPPC   C4B52860  16.017   4.439  21.049 -0.0046  0.1268  0.0112
 2598DPPC   NC352861  20.160  11.906  26.615  0.1089 -0.3211  0.0070
 2598DPPC   PO452862  19.715  11.755  26.522  0.0561  0.2111 -0.1591
 2598DPPC   GL152863  19.352  11.868  26.199 -0.3127 -0.0229  0.0769
 2598DPPC   GL252864  19.083  11.769  26.127  0.0462  0.2050  0.0612
 2598DPPC   C1A52865  19.181  12.265  25.863  0.0384  0.1117 -0.0676
 2598DPPC   C2A52866  18.775  12.510  25.650 -0.3595 -0.2687 -0.1374
 2598DPPC   C3A52867  18.324  12.681  25.463  0.1389  0.4157 -0.1708
 2598DPPC   C4A52868  18.044  13.066  25.634 -0.0222  0.1134 -0.3404
 2598DPPC   C1B52869  18.835  12.224  26.165 -0.1721  0.1071  0.2593
 2598DPPC   C2B52870  18.451  12.388  26.323  0.0465  0.3995 -0.1263
 2598DPPC   C3B52871  18.013  12.450  26.300  0.1612  0.0785  0.2100
 2598DPPC   C4B52872  17.865  12.728  26.074 -0.3248  0.0973 -0.3012
 2599DPPC   NC352873  18.279  16.859  24.104 -0.1170 -0.4618 -0.0888
 2599DPPC   PO452874  18.621  17.093  23.840  0.0757 -0.0827  0.0415
 2599DPPC   GL152875  19.041  17.152  23.975  0.0255 -0.1024  0.2593
 2599DPPC   GL252876  19.096  16.914  24.090  0.1472 -0.2037 -0.2052
 2599DPPC   C1A52877  19.313  17.452  24.269  0.0499 -0.0998  0.2135
 2599DPPC   C2A52878  19.529  17.678  24.637  0.0236 -0.1713 -0.3275
 2599DPPC   C3A52879  19.785  17.858  24.810  0.0259 -0.1145  0.1777
 2599DPPC   C4A52880  20.252  18.001  24.816 -0.0905  0.1574 -0.3370
 2599DPPC   C1B52881  19.370  16.952  24.352 -0.2045  0.2067  0.2107
 2599DPPC   C2B52882  19.781  17.210  24.478  0.3015  0.0081  0.2278
 2599DPPC   C3B52883  19.878  17.582  24.318 -0.1494 -0.0936 -0.2884
 2599DPPC   C4B52884  19.615  17.799  24.097 -0.0051 -0.2682  0.4621
 2600DPPC   NC352885  14.190  18.478  42.357 -0.5354 -0.1028 -0.1430
 2600DPPC   PO452886  14.555  18.359  42.625 -0.4914 -0.1965  0.2795
 2600DPPC   GL152887  14.739  17.907  42.453  0.0088 -0.2403 -0.4255
 2600DPPC   GL252888  14.461  17.866  42.318 -0.1401  0.1669 -0.2978
 2600DPPC   C1A52889  14.876  17.595  42.199  0.2843  0.1448 -0.0432
 2600DPPC   C2A52890  14.938  17.307  41.838  0.0545 -0.0780 -0.0868
 2600DPPC   C3A52891  14.932  17.136  41.463  0.0117 -0.0110 -0.2377
 2600DPPC   C4A52892  14.931  17.010  41.032 -0.1928  0.0240  0.2452
 2600DPPC   C1B52893  14.350  17.747  41.992 -0.0943 -0.2642  0.3435
 2600DPPC   C2B52894  14.545  17.551  41.600  0.1224  0.1187  0.0589
 2600DPPC   C3B52895  14.962  17.629  41.233  0.0932 -0.0921 -0.1313
 2600DPPC   C4B52896  15.268  17.676  40.893 -0.0038  0.0395  0.3165
 2601DPPC   NC352897  19.865  18.515  41.611  0.1844 -0.1220  0.1792
 2601DPPC   PO452898  19.871  18.138  41.497  0.4202  0.2561 -0.1001
 2601DPPC   GL152899  19.501  18.191  41.354 -0.1029 -0.1476 -0.0751
 2601DPPC   GL252900  19.346  17.982  41.407 -0.2328  0.2597 -0.1501
 2601DPPC   C1A52901  19.099  18.287  41.045  0.0585 -0.1821  0.0699
 2601DPPC   C2A52902  19.047  18.381  40.580  0.2637  0.0046 -0.2079
 2601DPPC   C3A52903  18.839  18.483  40.169  0.0125 -0.3616  0.1508
 2601DPPC   C4A52904  18.966  18.608  39.825 -0.2227  0.5084 -0.1171
 2601DPPC   C1B52905  19.307  17.694  41.080  0.1056 -0.1606  0.0937
 2601DPPC   C2B52906  19.073  17.356  40.817  0.0469 -0.1784 -0.3546
 2601DPPC   C3B52907  18.794  16.968  40.804 -0.1649  0.0110 -0.0474
 2601DPPC   C4B52908  18.352  16.783  40.938  0.0756  0.1245  0.3644
 2602DPPC   NC352909  14.741  16.204  24.436  0.0307  0.2669 -0.0602
 2602DPPC   PO452910  14.747  15.805  24.257 -0.0202 -0.1118  0.1489
 2602DPPC   GL152911  14.980  15.350  24.260  0.1888  0.0239 -0.0548
 2602DPPC   GL252912  15.278  15.486  24.395  0.0801 -0.0664 -0.1083
 2602DPPC   C1A52913  15.085  14.870  24.283 -0.0397  0.0239  0.0711
 2602DPPC   C2A52914  15.447  14.692  24.377 -0.3689 -0.1411  0.1286
 2602DPPC   C3A52915  15.489  14.336  24.232  0.2244 -0.1214 -0.2682
 2602DPPC   C4A52916  15.446  14.114  23.769 -0.0072  0.1129  0.1556
 2602DPPC   C1B52917  15.353  15.171  24.576  0.2163 -0.0581 -0.0744
 2602DPPC   C2B52918  15.212  14.779  24.844 -0.0094 -0.1400  0.1270
 2602DPPC   C3B52919  14.890  14.638  25.084 -0.2150 -0.2935  0.0448
 2602DPPC   C4B52920  14.669  14.932  25.318 -0.1793  0.3923 -0.1482
 2603DPPC   NC352921  20.857  22.349  27.335  0.2538  0.0043  0.1220
 2603DPPC   PO452922  20.897  22.693  27.583  0.0022  0.3435 -0.0483
 2603DPPC   GL152923  20.580  22.541  27.831  0.1244  0.0121  0.1927
 2603DPPC   GL252924  20.727  22.206  27.885 -0.0194 -0.1624 -0.1406
 2603DPPC   C1A52925  20.215  22.313  27.862 -0.0164 -0.4420 -0.1263
 2603DPPC   C2A52926  19.905  22.018  28.069 -0.0834 -0.2127 -0.1303
 2603DPPC   C3A52927  19.614  21.792  28.083  0.0425 -0.0439 -0.0347
 2603DPPC   C4A52928  19.192  21.527  28.128 -0.1172  0.3563  0.3948
 2603DPPC   C1B52929  20.559  21.820  27.651 -0.1259  0.0714  0.0264
 2603DPPC   C2B52930  20.316  21.536  27.843 -0.1107  0.0627 -0.2004
 2603DPPC   C3B52931  19.918  21.350  27.899 -0.1035  0.0021  0.3388
 2603DPPC   C4B52932  19.507  21.145  27.871  0.0237 -0.0386  0.1705
 2604DPPC   NC352933  19.568  14.236  23.174 -0.0788 -0.1685 -0.0490
 2604DPPC   PO452934  19.205  14.151  23.338  0.1038 -0.3728 -0.1445
 2604DPPC   GL152935  19.383  14.325  23.752  0.2011  0.4431 -0.1400
 2604DPPC   GL252936  19.482  14.593  23.567 -0.2136 -0.0360  0.2839
 2604DPPC   C1A52937  19.667  14.751  24.090  0.1832  0.3606 -0.2663
 2604DPPC   C2A52938  19.802  15.105  24.324 -0.2167 -0.0912  0.1574
 2604DPPC   C3A52939  19.836  15.493  24.599 -0.2237  0.1730  0.0409
 2604DPPC   C4A52940  19.916  15.974  24.720 -0.0611  0.0395  0.2310
 2604DPPC   C1B52941  19.184  14.786  23.813 -0.2275 -0.3772  0.0205
 2604DPPC   C2B52942  19.013  14.951  24.115 -0.0509  0.3352  0.0305
 2604DPPC   C3B52943  18.860  15.202  24.477 -0.3304 -0.3422 -0.1281
 2604DPPC   C4B52944  18.718  14.944  24.931  0.0452  0.1274  0.0470
 2605DPPC   NC352945  16.600  12.084  14.412  0.0773 -0.1148  0.1819
 2605DPPC   PO452946  16.902  12.255  14.716  0.0016 -0.1996 -0.1273
 2605DPPC   GL152947  17.008  12.445  15.109 -0.2168  0.3114  0.2422
 2605DPPC   GL252948  17.354  12.480  15.005  0.0957 -0.0327  0.3258
 2605DPPC   C1A52949  16.958  12.504  15.521 -0.0896 -0.3720 -0.0576
 2605DPPC   C2A52950  16.629  12.494  15.824 -0.0165  0.1581 -0.2083
 2605DPPC   C3A52951  16.266  12.316  15.915  0.0905 -0.0265  0.3110
 2605DPPC   C4A52952  15.830  12.439  15.868  0.3367  0.1022  0.3089
 2605DPPC   C1B52953  17.726  12.756  15.150  0.0608  0.3203 -0.0579
 2605DPPC   C2B52954  17.841  12.998  15.522  0.1391  0.0694 -0.1440
 2605DPPC   C3B52955  17.862  13.103  15.993  0.2838 -0.0473  0.2820
 2605DPPC   C4B52956  17.861  13.251  16.435 -0.0331  0.0663 -0.0870
 2606DPPC   NC352957  18.354  10.994  39.673 -0.0085  0.2821  0.0254
 2606DPPC   PO452958  18.727  11.062  39.399  0.1058 -0.3934  0.2715
 2606DPPC   GL152959  18.942  11.131  39.796 -0.1719 -0.3308 -0.3777
 2606DPPC   GL252960  19.204  11.134  39.796 -0.2649  0.2953 -0.0976
 2606DPPC   C1A52961  19.034  10.998  40.247  0.0112 -0.1382 -0.0185
 2606DPPC   C2A52962  19.044  11.349  40.588 -0.3504 -0.1486 -0.3095
 2606DPPC   C3A52963  18.932  11.267  40.977 -0.3597 -0.4944  0.2471
 2606DPPC   C4A52964  18.621  11.415  41.328  0.0086 -0.0536 -0.2595
 2606DPPC   C1B52965  19.357  11.452  40.085  0.3728  0.2061 -0.1654
 2606DPPC   C2B52966  19.438  11.613  40.427 -0.0356  0.2296  0.0646
 2606DPPC   C3B52967  19.658  11.360  40.811  0.0290 -0.0258  0.2009
 2606DPPC   C4B52968  19.674  11.175  41.117  0.1486  0.0576  0.1020
 2607DPPC   NC352969  24.722  17.775  27.420 -0.3318 -0.0689  0.0271
 2607DPPC   PO452970  24.503  17.674  27.029 -0.1419 -0.0002  0.1665
 2607DPPC   GL152971  24.168  17.615  27.214 -0.3583  0.0606  0.3375
 2607DPPC   GL252972  23.896  17.736  27.014 -0.1288 -0.0845 -0.0615
 2607DPPC   C1A52973  23.955  17.720  27.534  0.1553  0.0617 -0.2020
 2607DPPC   C2A52974  23.645  17.619  27.650  0.1173 -0.0590 -0.0149
 2607DPPC   C3A52975  23.364  17.298  27.522  0.4313 -0.0657  0.2399
 2607DPPC   C4A52976  23.133  16.970  27.449  0.2249  0.1334  0.1930
 2607DPPC   C1B52977  23.429  17.630  27.160 -0.4035  0.3131  0.0720
 2607DPPC   C2B52978  23.033  17.697  27.313 -0.0918  0.0380 -0.1431
 2607DPPC   C3B52979  22.730  17.408  27.495 -0.1778  0.1918  0.4005
 2607DPPC   C4B52980  22.555  17.072  27.675  0.3077  0.0095  0.0242
 2608DPPC   NC352981  22.310   9.592  16.141  0.3330  0.0843 -0.0859
 2608DPPC   PO452982  22.272  10.006  15.959  0.0829  0.0084 -0.2029
 2608DPPC   GL152983  21.940  10.226  16.346  0.0514  0.2312 -0.0079
 2608DPPC   GL252984  22.155  10.410  16.625  0.1623 -0.0549 -0.1290
 2608DPPC   C1A52985  21.638  10.521  16.536  0.0399  0.0715 -0.3787
 2608DPPC   C2A52986  21.442  10.691  16.812 -0.1634  0.2164 -0.1178
 2608DPPC   C3A52987  21.448  10.865  17.216 -0.1679 -0.1346  0.0816
 2608DPPC   C4A52988  21.506  11.156  17.573  0.1898 -0.2836  0.0158
 2608DPPC   C1B52989  21.989  10.761  16.807 -0.0646  0.3234 -0.0424
 2608DPPC   C2B52990  21.681  11.186  16.927 -0.0057 -0.2166 -0.5783
 2608DPPC   C3B52991  21.248  11.310  17.129  0.0906  0.2492 -0.1583
 2608DPPC   C4B52992  21.005  11.450  17.545 -0.1091  0.1215 -0.1740
 2609DPPC   NC352993   5.650  13.189  38.573 -0.2725  0.0036  0.0972
 2609DPPC   PO452994   5.482  12.956  38.325 -0.1281  0.3776 -0.0831
 2609DPPC   GL152995   5.704  12.655  38.047 -0.2451 -0.2010  0.1473
 2609DPPC   GL252996   5.973  12.456  38.252 -0.0183  0.0417  0.0235
 2609DPPC   C1A52997   6.015  12.549  37.742  0.1613  0.1061  0.2963
 2609DPPC   C2A52998   5.920  12.213  37.410  0.0626 -0.1717  0.2789
 2609DPPC   C3A52999   6.137  12.252  37.064  0.0546 -0.1877  0.0480
 2609DPPC   C4A53000   6.348  12.184  36.803 -0.1859 -0.0395  0.0773
 2609DPPC   C1B53001   6.189  12.147  37.984 -0.2572  0.0290 -0.0074
 2609DPPC   C2B53002   6.382  12.099  37.529  0.0482 -0.1800  0.1068
 2609DPPC   C3B53003   6.608  12.118  37.250  0.1282 -0.2241 -0.1054
 2609DPPC   C4B53004   6.839  12.147  36.794 -0.1018  0.0933  0.2613
 2610DPPC   NC353005  19.715  17.906  31.583 -0.3550 -0.0920  0.2224
 2610DPPC   PO453006  19.759  18.216  31.279  0.4213  0.0689 -0.1272
 2610DPPC   GL153007  19.862  18.659  31.230 -0.0202  0.3458  0.0019
 2610DPPC   GL253008  20.098  18.804  31.401 -0.3744  0.4192  0.1316
 2610DPPC   C1A53009  20.019  19.035  30.948 -0.0325 -0.2336 -0.1550
 2610DPPC   C2A53010  20.231  19.239  30.652 -0.4542  0.2119  0.0303
 2610DPPC   C3A53011  20.466  19.516  30.504 -0.2693  0.1830  0.0536
 2610DPPC   C4A53012  20.671  19.851  30.434 -0.2079  0.1464 -0.0410
 2610DPPC   C1B53013  20.351  19.146  31.359  0.0776  0.3590 -0.0468
 2610DPPC   C2B53014  20.377  19.587  31.119 -0.3004 -0.1906 -0.1633
 2610DPPC   C3B53015  20.377  19.894  30.868 -0.0075 -0.1625 -0.2266
 2610DPPC   C4B53016  20.558  20.245  30.864 -0.2060 -0.2166  0.0522
 2611DPPC   NC353017  16.299   4.613  32.620 -0.0657  0.1929 -0.0746
 2611DPPC   PO453018  15.987   4.719  32.709 -0.0171 -0.1857  0.1528
 2611DPPC   GL153019  15.873   4.315  32.630 -0.1009  0.2605 -0.0016
 2611DPPC   GL253020  15.739   4.183  32.350  0.1004  0.0269  0.2828
 2611DPPC   C1A53021  15.952   3.952  32.837  0.2146  0.0900  0.1210
 2611DPPC   C2A53022  16.056   3.578  32.849 -0.0473 -0.0515  0.2300
 2611DPPC   C3A53023  16.135   3.186  32.831 -0.1371  0.0894 -0.0645
 2611DPPC   C4A53024  16.134   2.813  32.575 -0.0871  0.0353  0.3675
 2611DPPC   C1B53025  15.297   3.894  32.265 -0.2069  0.0188 -0.3180
 2611DPPC   C2B53026  15.308   3.434  32.243  0.1262  0.0511  0.1790
 2611DPPC   C3B53027  15.377   2.977  32.135 -0.1118  0.2534  0.1011
 2611DPPC   C4B53028  15.111   2.608  32.109  0.1331 -0.2134 -0.1257
 2612DPPC   NC353029   9.624   9.147  34.487 -0.0929  0.0300 -0.0804
 2612DPPC   PO453030   9.543   8.727  34.428  0.0814  0.2021  0.3255
 2612DPPC   GL153031   9.207   8.534  34.156 -0.1662  0.0292 -0.1746
 2612DPPC   GL253032   8.932   8.451  33.916  0.0519 -0.0002  0.2167
 2612DPPC   C1A53033   9.035   8.099  34.250  0.1271  0.0498  0.1160
 2612DPPC   C2A53034   8.743   7.808  34.437  0.3055  0.0348  0.0356
 2612DPPC   C3A53035   8.555   7.554  34.827 -0.1097 -0.2513 -0.2428
 2612DPPC   C4A53036   8.741   7.299  35.183  0.1302  0.1212  0.1499
 2612DPPC   C1B53037   8.548   8.233  34.026  0.0967 -0.0467 -0.2502
 2612DPPC   C2B53038   8.213   7.850  34.121  0.0397 -0.1120  0.2202
 2612DPPC   C3B53039   8.235   7.574  34.442  0.3256  0.1412  0.0365
 2612DPPC   C4B53040   7.965   7.385  34.735  0.0055 -0.1103  0.2223
 2613DPPC   NC353041   8.603  22.844  34.796 -0.0499 -0.0797 -0.2487
 2613DPPC   PO453042   8.532  22.908  35.163 -0.2336 -0.2379  0.1371
 2613DPPC   GL153043   8.554  22.444  35.222 -0.1072 -0.1025  0.1971
 2613DPPC   GL253044   8.185  22.273  35.281  0.2460 -0.1509  0.0047
 2613DPPC   C1A53045   8.862  22.155  35.146 -0.0758 -0.0051 -0.0657
 2613DPPC   C2A53046   9.002  21.844  35.244 -0.3051  0.0893 -0.0782
 2613DPPC   C3A53047   9.273  21.456  35.225 -0.1922  0.1003  0.3194
 2613DPPC   C4A53048   9.225  20.995  35.192  0.3094  0.3020  0.1962
 2613DPPC   C1B53049   8.428  21.971  35.119 -0.1317  0.1652 -0.1620
 2613DPPC   C2B53050   8.676  21.513  35.191 -0.2291  0.0326 -0.0769
 2613DPPC   C3B53051   8.823  21.098  35.415 -0.3960  0.2281  0.3629
 2613DPPC   C4B53052   9.007  20.667  35.539  0.0742  0.1669  0.0456
 2614DPPC   NC353053  24.510  19.550  35.924  0.0584  0.2515 -0.0358
 2614DPPC   PO453054  24.687  19.151  36.158 -0.0352  0.1721 -0.1924
 2614DPPC   GL153055  24.483  19.041  35.732 -0.1747  0.2121 -0.0737
 2614DPPC   GL253056  24.780  18.948  35.469  0.1348  0.3250  0.2938
 2614DPPC   C1A53057  24.249  18.663  35.640 -0.6206 -0.1058  0.3039
 2614DPPC   C2A53058  24.060  18.343  35.493 -0.0826 -0.2293 -0.0773
 2614DPPC   C3A53059  23.811  18.002  35.312  0.5136 -0.2488 -0.0925
 2614DPPC   C4A53060  23.832  17.884  34.811 -0.4934  0.2310 -0.2070
 2614DPPC   C1B53061  24.397  19.078  35.275  0.0534  0.2651 -0.0274
 2614DPPC   C2B53062  24.143  19.360  34.995  0.0066 -0.1570  0.1645
 2614DPPC   C3B53063  23.717  19.574  34.834 -0.0413 -0.2267  0.0205
 2614DPPC   C4B53064  23.341  19.370  34.714 -0.0526 -0.0860 -0.1332
 2615DPPC   NC353065  16.620   7.388  16.060  0.0809  0.0833  0.1342
 2615DPPC   PO453066  16.356   7.689  16.427 -0.2047  0.1465 -0.2658
 2615DPPC   GL153067  16.794   7.819  16.708 -0.3145  0.1272 -0.1020
 2615DPPC   GL253068  16.727   8.066  16.800  0.0123 -0.1016  0.1224
 2615DPPC   C1A53069  16.944   7.619  17.127  0.2338  0.0502  0.0350
 2615DPPC   C2A53070  17.147   7.858  17.474  0.0911 -0.1849  0.0467
 2615DPPC   C3A53071  17.519   7.909  17.657  0.0525  0.2470  0.0347
 2615DPPC   C4A53072  17.802   7.960  18.006 -0.5032  0.1012  0.0363
 2615DPPC   C1B53073  16.890   8.180  17.183  0.1315 -0.0903  0.1179
 2615DPPC   C2B53074  17.091   8.479  17.348  0.1923 -0.1723  0.1842
 2615DPPC   C3B53075  17.271   8.369  17.689 -0.1956  0.2774  0.1271
 2615DPPC   C4B53076  17.432   8.699  17.916  0.1690 -0.2777  0.0502
 2616DPPC   NC353077   9.085  19.441  20.518  0.2286  0.1450  0.1612
 2616DPPC   PO453078   9.440  19.208  20.216 -0.1899 -0.2181  0.3611
 2616DPPC   GL153079   9.683  18.942  20.402  0.2896  0.1362 -0.0904
 2616DPPC   GL253080   9.539  18.647  20.350 -0.1158  0.1846 -0.1960
 2616DPPC   C1A53081   9.904  19.039  20.733  0.1908 -0.0129 -0.0911
 2616DPPC   C2A53082  10.171  18.970  21.108  0.1621  0.0371  0.0487
 2616DPPC   C3A53083  10.480  19.203  21.450 -0.0771  0.3414  0.2317
 2616DPPC   C4A53084  10.830  19.284  21.607  0.3461 -0.0187 -0.0330
 2616DPPC   C1B53085   9.802  18.553  20.793  0.0912  0.0188  0.0708
 2616DPPC   C2B53086   9.659  18.644  21.138 -0.0264  0.2023 -0.1227
 2616DPPC   C3B53087   9.942  18.591  21.475  0.1915  0.1254  0.1886
 2616DPPC   C4B53088  10.338  18.670  21.540 -0.4764 -0.1626 -0.0097
 2617DPPC   NC353089   4.000  16.210  35.719 -0.0884 -0.1578 -0.0800
 2617DPPC   PO453090   3.985  16.076  35.273 -0.0190 -0.3842  0.0081
 2617DPPC   GL153091   4.449  16.139  34.978  0.0075  0.2429 -0.2523
 2617DPPC   GL253092   4.445  16.389  34.824  0.0955 -0.2103  0.0618
 2617DPPC   C1A53093   4.836  16.053  34.985 -0.0168  0.0325  0.0567
 2617DPPC   C2A53094   5.201  15.773  34.951 -0.1411  0.0997 -0.1204
 2617DPPC   C3A53095   5.538  15.629  34.601  0.0726  0.0147  0.1541
 2617DPPC   C4A53096   5.923  15.469  34.725  0.3144 -0.0238  0.0320
 2617DPPC   C1B53097   4.664  16.516  34.379 -0.1204  0.3234 -0.0853
 2617DPPC   C2B53098   4.940  16.335  34.170  0.0137 -0.1630  0.0895
 2617DPPC   C3B53099   5.409  16.407  34.070 -0.2683  0.0634 -0.4267
 2617DPPC   C4B53100   5.887  16.297  34.181  0.1480  0.0132 -0.0208
 2618DPPC   NC353101  15.792   1.660  22.594 -0.1460  0.3860 -0.1814
 2618DPPC   PO453102  15.517   1.673  22.246 -0.1289 -0.0540 -0.0957
 2618DPPC   GL153103  15.610   2.099  22.479 -0.0433  0.0915 -0.1386
 2618DPPC   GL253104  15.305   2.108  22.607  0.0194  0.0502 -0.0451
 2618DPPC   C1A53105  15.773   2.287  22.832 -0.0498 -0.1356 -0.0068
 2618DPPC   C2A53106  16.039   2.606  23.010 -0.0485 -0.1485  0.0168
 2618DPPC   C3A53107  16.294   2.947  23.010  0.0065 -0.0661  0.0037
 2618DPPC   C4A53108  16.514   3.241  23.171  0.0384  0.0933 -0.2160
 2618DPPC   C1B53109  15.292   2.334  23.011 -0.0302 -0.2257 -0.2483
 2618DPPC   C2B53110  15.537   2.675  23.189  0.1358  0.0535  0.2058
 2618DPPC   C3B53111  15.768   3.021  23.094  0.0104 -0.0081 -0.0298
 2618DPPC   C4B53112  15.920   3.353  23.031 -0.1199  0.1104 -0.2147
 2619DPPC   NC353113  18.035  15.212  19.357  0.4731  0.0370 -0.1432
 2619DPPC   PO453114  17.790  14.754  19.332 -0.1810  0.1483 -0.1372
 2619DPPC   GL153115  17.957  14.887  18.892  0.1520  0.0858 -0.2075
 2619DPPC   GL253116  17.791  15.042  18.678  0.1598  0.0732  0.2354
 2619DPPC   C1A53117  18.132  14.756  18.389 -0.3618  0.2443  0.2175
 2619DPPC   C2A53118  18.305  15.109  18.253 -0.0213  0.0428  0.1547
 2619DPPC   C3A53119  18.493  15.343  17.996  0.1578 -0.2148 -0.0522
 2619DPPC   C4A53120  18.602  15.460  17.614  0.0802 -0.0363  0.0725
 2619DPPC   C1B53121  17.763  15.123  18.261  0.1881 -0.2600 -0.0144
 2619DPPC   C2B53122  17.896  15.197  17.950  0.0101 -0.1095  0.0442
 2619DPPC   C3B53123  18.193  15.055  17.641  0.0487  0.1241  0.0514
 2619DPPC   C4B53124  18.430  14.678  17.532  0.1855 -0.1342  0.2740
 2620DPPC   NC353125   8.425  21.625  36.866 -0.1029 -0.0251 -0.2954
 2620DPPC   PO453126   8.719  21.652  37.260 -0.2306 -0.2741 -0.1577
 2620DPPC   GL153127   8.793  21.286  37.003 -0.0670  0.0062 -0.2761
 2620DPPC   GL253128   8.951  21.052  37.039 -0.0815  0.2779  0.1274
 2620DPPC   C1A53129   9.066  21.229  36.565 -0.0995  0.0176 -0.0172
 2620DPPC   C2A53130   9.250  21.033  36.206  0.0939 -0.0812  0.2703
 2620DPPC   C3A53131   9.388  20.643  35.930 -0.0149 -0.3487 -0.2513
 2620DPPC   C4A53132   9.592  20.184  36.012  0.0323 -0.1910 -0.1520
 2620DPPC   C1B53133   9.131  20.736  36.676  0.2597 -0.2250  0.1632
 2620DPPC   C2B53134   9.072  20.364  36.307 -0.1176  0.1313  0.2769
 2620DPPC   C3B53135   9.131  20.216  35.851 -0.0770 -0.0082 -0.0008
 2620DPPC   C4B53136   9.334  19.805  35.671  0.0928 -0.2301 -0.6030
 2621DPPC   NC353137  22.907   6.805  41.320  0.2926  0.0503 -0.0695
 2621DPPC   PO453138  22.575   6.902  41.091 -0.4271  0.0346  0.0472
 2621DPPC   GL153139  22.165   7.159  40.925  0.1365  0.1148 -0.3771
 2621DPPC   GL253140  22.133   7.150  40.628  0.1542 -0.0814  0.2314
 2621DPPC   C1A53141  22.032   7.669  40.793  0.0140  0.3712  0.1366
 2621DPPC   C2A53142  22.091   8.044  40.872  0.2252  0.2948 -0.1869
 2621DPPC   C3A53143  21.802   8.299  40.916 -0.1853 -0.0589 -0.0471
 2621DPPC   C4A53144  21.469   8.504  40.819 -0.4451  0.2384  0.2046
 2621DPPC   C1B53145  22.114   7.202  40.234 -0.2079  0.2105  0.1660
 2621DPPC   C2B53146  21.717   7.244  39.975 -0.0819  0.1722  0.1162
 2621DPPC   C3B53147  21.647   7.265  39.589  0.2048 -0.1777 -0.0220
 2621DPPC   C4B53148  21.636   7.478  39.279  0.1634 -0.1843 -0.0984
 2622DPPC   NC353149  19.039   0.286  27.642 -0.0199  0.1650 -0.0849
 2622DPPC   PO453150  18.799   0.145  27.194  0.0855  0.1731  0.2514
 2622DPPC   GL153151  18.582   0.399  27.424 -0.2017 -0.2691 -0.2801
 2622DPPC   GL253152  18.506   0.764  27.380 -0.2258  0.1646  0.4187
 2622DPPC   C1A53153  18.577   0.621  27.900  0.2839  0.1453  0.1831
 2622DPPC   C2A53154  18.595   0.984  27.992  0.0463  0.3269 -0.1521
 2622DPPC   C3A53155  18.518   1.314  28.226  0.0698 -0.1993 -0.0758
 2622DPPC   C4A53156  18.337   1.345  28.606 -0.0315  0.3132 -0.0313
 2622DPPC   C1B53157  18.619   1.188  27.532  0.2247  0.1273  0.0820
 2622DPPC   C2B53158  18.505   1.579  27.848 -0.2839 -0.0833  0.2707
 2622DPPC   C3B53159  18.633   1.979  27.885  0.2042  0.1569  0.2357
 2622DPPC   C4B53160  18.576   2.408  27.973 -0.2308 -0.0512  0.0648
 2623DPPC   NC353161  23.162  17.383  20.604  0.4063  0.3088  0.1398
 2623DPPC   PO453162  23.337  17.576  20.942 -0.3909 -0.4259  0.0573
 2623DPPC   GL153163  23.134  17.306  21.214  0.2144 -0.0293 -0.1407
 2623DPPC   GL253164  23.337  17.070  21.397  0.1579 -0.1853 -0.0914
 2623DPPC   C1A53165  22.836  16.985  21.117  0.0286 -0.0364  0.1310
 2623DPPC   C2A53166  22.626  16.671  21.170 -0.2926 -0.1500 -0.0759
 2623DPPC   C3A53167  22.355  16.328  21.103  0.1210 -0.0127 -0.1969
 2623DPPC   C4A53168  21.916  16.450  21.155  0.0203  0.1079  0.2049
 2623DPPC   C1B53169  23.194  16.632  21.344  0.3906  0.0844 -0.0155
 2623DPPC   C2B53170  22.914  16.250  21.345 -0.0752  0.0464 -0.0099
 2623DPPC   C3B53171  22.858  16.024  21.722 -0.2223 -0.1247 -0.1719
 2623DPPC   C4B53172  22.797  15.749  22.045 -0.1362  0.1802 -0.0409
 2624DPPC   NC353173  25.581   4.203  27.030 -0.3048 -0.1458 -0.2230
 2624DPPC   PO453174  25.437   4.457  27.212 -0.0047  0.0706  0.0984
 2624DPPC   GL153175  25.090   4.711  27.400 -0.1761 -0.0528 -0.1020
 2624DPPC   GL253176  25.220   4.925  27.641 -0.0009  0.1027  0.1887
 2624DPPC   C1A53177  24.898   4.932  27.208  0.0829  0.2414 -0.0473
 2624DPPC   C2A53178  24.415   5.018  27.333 -0.1882 -0.4653  0.3029
 2624DPPC   C3A53179  24.101   5.104  27.683  0.0806  0.2626 -0.1781
 2624DPPC   C4A53180  23.957   5.213  28.077  0.1846  0.1717 -0.2099
 2624DPPC   C1B53181  24.745   4.877  27.678 -0.1037 -0.0662  0.0648
 2624DPPC   C2B53182  24.431   5.079  28.066  0.0351 -0.1412  0.1213
 2624DPPC   C3B53183  24.534   5.575  28.183  0.0678  0.1953  0.0650
 2624DPPC   C4B53184  24.696   6.072  28.142 -0.1228 -0.1692 -0.1218
 2625DPPC   NC353185   8.077  21.708  37.658  0.0356 -0.2567 -0.2522
 2625DPPC   PO453186   8.251  21.492  37.297  0.1657 -0.0959  0.0594
 2625DPPC   GL153187   8.228  21.064  37.234  0.1455  0.1462  0.6538
 2625DPPC   GL253188   8.197  20.954  36.895 -0.0265  0.1362 -0.0494
 2625DPPC   C1A53189   8.529  20.813  37.272  0.2091  0.5145 -0.2707
 2625DPPC   C2A53190   8.919  20.559  37.267 -0.1307 -0.0006  0.2712
 2625DPPC   C3A53191   9.209  20.145  37.248  0.0837 -0.1632  0.1442
 2625DPPC   C4A53192   9.603  19.922  37.106  0.2220 -0.0004  0.1575
 2625DPPC   C1B53193   8.164  20.574  36.640 -0.1921 -0.2127  0.0486
 2625DPPC   C2B53194   8.439  20.494  36.313 -0.4862  0.0679  0.3228
 2625DPPC   C3B53195   8.674  20.126  36.422  0.0374  0.2212 -0.1457
 2625DPPC   C4B53196   8.672  19.673  36.289  0.3139  0.4201 -0.1547
 2626DPPC   NC353197  21.094   9.030  37.160 -0.1880  0.0069 -0.0713
 2626DPPC   PO453198  21.395   9.180  36.920 -0.1298  0.1922 -0.1531
 2626DPPC   GL153199  21.778   9.206  37.202  0.2067 -0.1364 -0.2570
 2626DPPC   GL253200  21.850   9.573  37.332  0.1648  0.1471  0.0369
 2626DPPC   C1A53201  22.164   9.218  37.177 -0.3323 -0.1039  0.2233
 2626DPPC   C2A53202  22.494   9.093  37.414 -0.2114  0.2321 -0.3194
 2626DPPC   C3A53203  22.706   9.441  37.752  0.0941  0.0710 -0.1345
 2626DPPC   C4A53204  22.949   9.447  38.027  0.0770 -0.1918  0.1317
 2626DPPC   C1B53205  21.954   9.207  37.624 -0.1402 -0.0021  0.2894
 2626DPPC   C2B53206  21.989   8.861  37.511 -0.0298 -0.1020 -0.0350
 2626DPPC   C3B53207  22.125   8.540  37.624  0.0372  0.2614  0.1342
 2626DPPC   C4B53208  22.319   8.080  37.562 -0.1264 -0.3341 -0.2314
 2627DPPC   NC353209  23.544  16.465  18.337 -0.2217 -0.1262 -0.0617
 2627DPPC   PO453210  23.129  16.670  18.455 -0.3071  0.2136 -0.0712
 2627DPPC   GL153211  22.730  16.613  18.574  0.0843  0.0877  0.0785
 2627DPPC   GL253212  22.597  16.486  18.350 -0.2949 -0.0246  0.0879
 2627DPPC   C1A53213  22.392  16.692  18.929 -0.0940 -0.1950 -0.2235
 2627DPPC   C2A53214  21.939  16.550  18.952  0.0939  0.3504 -0.1685
 2627DPPC   C3A53215  21.569  16.683  18.880 -0.1519 -0.0211 -0.2691
 2627DPPC   C4A53216  21.154  16.734  18.759  0.0758  0.0516 -0.0205
 2627DPPC   C1B53217  22.250  16.273  18.644 -0.1795  0.1100  0.0384
 2627DPPC   C2B53218  22.067  16.033  18.926  0.1633 -0.1320 -0.1574
 2627DPPC   C3B53219  22.123  15.671  19.070  0.0278 -0.0731 -0.1795
 2627DPPC   C4B53220  21.899  15.411  19.070  0.2949  0.0481  0.0292
 2628DPPC   NC353221   5.831   6.231  26.535 -0.0371 -0.0306  0.0832
 2628DPPC   PO453222   5.792   6.448  26.925  0.2425  0.0654 -0.0467
 2628DPPC   GL153223   6.257   6.436  27.062  0.1455 -0.0056  0.0102
 2628DPPC   GL253224   6.432   6.287  26.721  0.2014  0.0205 -0.1252
 2628DPPC   C1A53225   6.603   6.689  27.165 -0.0699  0.4112  0.1187
 2628DPPC   C2A53226   6.753   6.998  27.193 -0.0630 -0.1811 -0.0392
 2628DPPC   C3A53227   6.799   7.349  27.299 -0.2272 -0.1847 -0.1030
 2628DPPC   C4A53228   6.744   7.807  27.229 -0.1367 -0.0379 -0.0167
 2628DPPC   C1B53229   6.796   6.286  26.474  0.0471  0.2428  0.0037
 2628DPPC   C2B53230   7.250   6.377  26.447 -0.4492 -0.1187  0.1641
 2628DPPC   C3B53231   7.554   6.735  26.544 -0.1632  0.0925  0.0825
 2628DPPC   C4B53232   7.705   7.169  26.727 -0.1900  0.0980  0.0482
 2629DPPC   NC353233  21.026   6.130  41.418  0.3383  0.1973  0.0166
 2629DPPC   PO453234  21.061   6.566  41.368  0.5326 -0.2006  0.1407
 2629DPPC   GL153235  20.897   6.619  41.036  0.0692 -0.2609  0.0647
 2629DPPC   GL253236  20.780   6.845  40.911 -0.1969 -0.0157 -0.0670
 2629DPPC   C1A53237  20.507   6.446  40.781  0.2521 -0.1980 -0.2844
 2629DPPC   C2A53238  20.258   6.190  40.672  0.0712 -0.2125 -0.3561
 2629DPPC   C3A53239  19.904   6.115  40.667  0.0647  0.1553  0.0152
 2629DPPC   C4A53240  19.750   6.239  40.227 -0.0290  0.1085  0.1640
 2629DPPC   C1B53241  20.693   6.808  40.519  0.2777 -0.2528 -0.0743
 2629DPPC   C2B53242  20.337   6.994  40.223  0.1362  0.0268 -0.0419
 2629DPPC   C3B53243  19.998   7.227  40.149 -0.1799 -0.1509  0.0406
 2629DPPC   C4B53244  19.937   7.327  39.742  0.0406 -0.2849  0.0076
 2630DPPC   NC353245  14.800   7.094  22.190 -0.2254 -0.1277 -0.3140
 2630DPPC   PO453246  14.926   7.439  21.880 -0.0057 -0.1501 -0.0236
 2630DPPC   GL153247  14.790   7.311  21.530 -0.3925  0.1022 -0.1837
 2630DPPC   GL253248  14.688   7.599  21.450 -0.2816  0.1048  0.0815
 2630DPPC   C1A53249  14.585   7.165  21.038 -0.0925 -0.2349 -0.3681
 2630DPPC   C2A53250  14.489   6.970  20.680 -0.0655  0.1279 -0.1873
 2630DPPC   C3A53251  14.607   6.776  20.186 -0.2077  0.2967 -0.0533
 2630DPPC   C4A53252  14.310   6.814  19.908 -0.0147 -0.1744 -0.0588
 2630DPPC   C1B53253  14.273   7.291  21.435 -0.1132  0.0917 -0.3557
 2630DPPC   C2B53254  14.196   6.895  21.164 -0.0900 -0.1953  0.1693
 2630DPPC   C3B53255  14.012   6.806  20.682  0.1563 -0.2087 -0.0479
 2630DPPC   C4B53256  13.874   6.853  20.210 -0.0324 -0.1356 -0.0711
 2631DPPC   NC353257  19.604  11.176  19.034 -0.0551 -0.1657  0.0682
 2631DPPC   PO453258  20.024  11.157  19.174 -0.0335 -0.2852  0.2690
 2631DPPC   GL153259  19.974  11.112  18.724  0.0323 -0.0392  0.3262
 2631DPPC   GL253260  20.053  10.800  18.549  0.1497 -0.1769 -0.0860
 2631DPPC   C1A53261  19.996  11.160  18.242  0.0313  0.0390 -0.1255
 2631DPPC   C2A53262  20.064  11.098  17.829  0.2702  0.0868 -0.2537
 2631DPPC   C3A53263  20.412  11.008  17.648  0.0946 -0.1192  0.2212
 2631DPPC   C4A53264  20.725  11.044  17.495 -0.0505 -0.1969  0.0360
 2631DPPC   C1B53265  20.092  10.485  18.380  0.0804  0.3616  0.1643
 2631DPPC   C2B53266  20.595  10.405  18.192  0.1018  0.0318 -0.1229
 2631DPPC   C3B53267  20.865  10.642  18.082  0.0913  0.0651  0.1980
 2631DPPC   C4B53268  20.869  11.075  17.965  0.1885  0.0892  0.4247
 2632DPPC   NC353269  20.123  14.425  26.863 -0.2124 -0.0037  0.2362
 2632DPPC   PO453270  19.816  14.158  26.699  0.1327  0.2115 -0.1703
 2632DPPC   GL153271  19.925  14.404  26.366 -0.0426 -0.0005 -0.1584
 2632DPPC   GL253272  19.911  14.157  26.100 -0.3663 -0.1910 -0.1309
 2632DPPC   C1A53273  19.684  14.667  26.078  0.0170 -0.0723 -0.1205
 2632DPPC   C2A53274  19.824  14.945  25.681 -0.0362 -0.3063  0.2850
 2632DPPC   C3A53275  19.699  15.322  25.383 -0.1744 -0.1843 -0.0851
 2632DPPC   C4A53276  19.718  15.648  25.097  0.0684  0.1676 -0.0215
 2632DPPC   C1B53277  19.521  14.145  26.009 -0.0329  0.0328 -0.3711
 2632DPPC   C2B53278  19.350  14.446  25.822 -0.0653 -0.0340  0.0105
 2632DPPC   C3B53279  19.018  14.665  25.529  0.0367 -0.3002  0.0977
 2632DPPC   C4B53280  18.733  14.574  25.252  0.3813 -0.1567 -0.0494
 2633DPPC   NC353281  17.815   9.893  26.558  0.0488  0.0880  0.0875
 2633DPPC   PO453282  17.880  10.236  26.850 -0.0571 -0.4018 -0.1548
 2633DPPC   GL153283  17.643  10.626  26.731 -0.0819  0.0693 -0.3745
 2633DPPC   GL253284  17.556  10.573  26.415  0.2944  0.1753 -0.0426
 2633DPPC   C1A53285  17.322  10.889  26.787 -0.2006 -0.2804 -0.1558
 2633DPPC   C2A53286  17.372  11.342  26.706 -0.2608  0.1789  0.0825
 2633DPPC   C3A53287  17.258  11.650  27.033  0.1482  0.3116  0.1518
 2633DPPC   C4A53288  17.252  11.883  27.486 -0.1155  0.0604  0.1332
 2633DPPC   C1B53289  17.531  10.996  26.345  0.3395  0.0920 -0.1650
 2633DPPC   C2B53290  17.337  11.347  26.190  0.2093  0.1933 -0.5156
 2633DPPC   C3B53291  17.493  11.793  26.226 -0.1544  0.2597  0.0680
 2633DPPC   C4B53292  17.700  12.067  26.448 -0.4476  0.0187 -0.3169
 2634DPPC   NC353293  18.162  17.981  23.482  0.0495  0.0241  0.0514
 2634DPPC   PO453294  18.294  18.582  23.498  0.0504  0.0573 -0.1216
 2634DPPC   GL153295  18.604  19.013  23.456  0.5202 -0.3591  0.2553
 2634DPPC   GL253296  18.770  19.087  23.126  0.0179  0.1005  0.0145
 2634DPPC   C1A53297  19.006  19.325  23.515  0.1713  0.0699 -0.1988
 2634DPPC   C2A53298  19.317  19.670  23.390  0.5260  0.2200 -0.2858
 2634DPPC   C3A53299  19.498  20.087  23.509  0.2734  0.2678  0.0135
 2634DPPC   C4A53300  19.556  20.536  23.651  0.2078  0.3826  0.1783
 2634DPPC   C1B53301  19.051  19.197  22.862  0.1816  0.1531 -0.0430
 2634DPPC   C2B53302  19.229  19.702  22.905  0.3433 -0.0939  0.0889
 2634DPPC   C3B53303  19.125  20.179  22.955  0.0493 -0.3119  0.4144
 2634DPPC   C4B53304  19.317  20.437  23.178  0.0183 -0.4497 -0.1443
 2635DPPC   NC353305  19.844  14.887  20.210  0.2283 -0.2034 -0.1775
 2635DPPC   PO453306  19.782  15.317  20.502 -0.2165  0.2124 -0.1800
 2635DPPC   GL153307  20.053  15.392  20.188 -0.1204 -0.0932  0.1723
 2635DPPC   GL253308  20.259  15.176  20.148  0.2091  0.1914 -0.2649
 2635DPPC   C1A53309  20.052  15.609  19.782 -0.0217 -0.3193 -0.4694
 2635DPPC   C2A53310  20.272  15.828  19.426  0.0503 -0.2022  0.0645
 2635DPPC   C3A53311  20.528  16.075  19.186 -0.0467 -0.1547 -0.0098
 2635DPPC   C4A53312  20.557  16.007  18.689  0.3839 -0.0912  0.2910
 2635DPPC   C1B53313  20.484  15.262  19.790  0.1193  0.0868 -0.2022
 2635DPPC   C2B53314  20.669  15.487  19.409  0.0324 -0.0217  0.2254
 2635DPPC   C3B53315  20.693  15.607  18.977  0.1438  0.3786 -0.0588
 2635DPPC   C4B53316  20.904  15.353  18.868 -0.0852 -0.3124 -0.0669
 2636DPPC   NC353317  21.022   7.362  35.788  0.2534 -0.2115  0.2665
 2636DPPC   PO453318  20.656   7.343  35.942 -0.0080  0.1828  0.1443
 2636DPPC   GL153319  20.971   6.903  35.987  0.0140  0.0127  0.0108
 2636DPPC   GL253320  21.059   6.764  35.645  0.1346  0.1168 -0.1882
 2636DPPC   C1A53321  21.312   6.493  36.031  0.1353 -0.0751 -0.2513
 2636DPPC   C2A53322  21.558   6.275  35.863  0.0965  0.1495  0.2417
 2636DPPC   C3A53323  21.863   5.946  35.897  0.1536 -0.0599  0.2053
 2636DPPC   C4A53324  21.999   5.505  35.833  0.0334  0.1321 -0.2237
 2636DPPC   C1B53325  21.438   6.644  35.465 -0.1088  0.3305 -0.1494
 2636DPPC   C2B53326  21.827   6.464  35.470  0.1342 -0.0503 -0.2283
 2636DPPC   C3B53327  22.132   6.158  35.514  0.1997 -0.0619 -0.0381
 2636DPPC   C4B53328  22.331   5.849  35.544 -0.1078 -0.1215  0.0728
 2637DPPC   NC353329  12.556   5.643  33.830  0.1242  0.3754 -0.1207
 2637DPPC   PO453330  12.478   5.533  34.313  0.0179 -0.1584  0.0327
 2637DPPC   GL153331  12.258   5.202  34.090  0.0507  0.3609 -0.0251
 2637DPPC   GL253332  12.407   4.889  34.035  0.1579  0.0148 -0.0434
 2637DPPC   C1A53333  11.896   5.093  34.152 -0.0893 -0.0427 -0.0963
 2637DPPC   C2A53334  11.731   4.798  34.154  0.0345  0.3162  0.3077
 2637DPPC   C3A53335  11.556   4.428  34.112 -0.1669  0.0696  0.1511
 2637DPPC   C4A53336  11.200   4.148  34.181 -0.3377 -0.0912 -0.2788
 2637DPPC   C1B53337  12.168   4.565  34.163 -0.1054 -0.1492 -0.4307
 2637DPPC   C2B53338  12.184   4.120  34.238  0.0968 -0.2064 -0.0489
 2637DPPC   C3B53339  12.153   3.677  34.127  0.0902 -0.1750  0.3901
 2637DPPC   C4B53340  12.483   3.355  34.147  0.1589 -0.0238 -0.0933
 2638DPPC   NC353341  11.441   6.476  25.809  0.1065 -0.1132  0.0413
 2638DPPC   PO453342  11.685   6.191  25.885  0.1446 -0.1763  0.1445
 2638DPPC   GL153343  11.311   5.957  25.703  0.1366 -0.0442  0.2635
 2638DPPC   GL253344  11.307   6.099  25.420  0.3146  0.1187  0.2517
 2638DPPC   C1A53345  10.980   5.707  25.669 -0.0249  0.2748  0.0166
 2638DPPC   C2A53346  10.740   5.467  25.334  0.3159  0.0029 -0.0658
 2638DPPC   C3A53347  10.582   5.180  25.212  0.3584 -0.2760  0.3315
 2638DPPC   C4A53348  10.767   4.826  24.940  0.0439  0.1309 -0.0277
 2638DPPC   C1B53349  10.894   5.998  25.284 -0.1602 -0.1450  0.2008
 2638DPPC   C2B53350  10.473   5.881  25.384 -0.0199 -0.0887 -0.0234
 2638DPPC   C3B53351  10.188   5.547  25.263 -0.0096  0.1811 -0.0861
 2638DPPC   C4B53352   9.880   5.168  25.192 -0.1450 -0.1100 -0.0923
 2639DPPC   NC353353  21.491   9.260  35.849  0.0580  0.4132  0.2536
 2639DPPC   PO453354  21.729   8.862  35.839  0.1712 -0.0514 -0.1224
 2639DPPC   GL153355  22.212   9.020  35.913 -0.0737 -0.1530  0.3265
 2639DPPC   GL253356  22.060   8.808  36.210 -0.0907  0.0780 -0.1423
 2639DPPC   C1A53357  22.730   8.877  35.839  0.1155  0.0559  0.1833
 2639DPPC   C2A53358  23.166   9.053  36.020 -0.2673 -0.0011 -0.1067
 2639DPPC   C3A53359  23.456   8.925  36.345  0.0199 -0.2416  0.1710
 2639DPPC   C4A53360  23.697   8.930  36.826 -0.0613 -0.0063  0.1559
 2639DPPC   C1B53361  22.480   8.525  36.223  0.0559 -0.2344  0.1977
 2639DPPC   C2B53362  22.596   8.133  36.382 -0.0028  0.3128  0.0992
 2639DPPC   C3B53363  22.980   7.905  36.278 -0.1072 -0.0510  0.5703
 2639DPPC   C4B53364  23.218   7.528  36.289 -0.0953 -0.0083 -0.0893
 2640DPPC   NC353365  19.130  17.348  36.701 -0.3233 -0.0168 -0.1348
 2640DPPC   PO453366  19.198  17.598  36.324  0.2172  0.0734  0.2391
 2640DPPC   GL153367  19.555  17.724  36.581 -0.0710  0.2580  0.0647
 2640DPPC   GL253368  19.351  17.900  36.880 -0.0515 -0.0283 -0.0116
 2640DPPC   C1A53369  19.958  17.774  36.712  0.2066  0.0037 -0.1034
 2640DPPC   C2A53370  20.398  17.728  36.719 -0.1640 -0.4784  0.1007
 2640DPPC   C3A53371  20.729  18.046  36.803 -0.1408  0.2371 -0.0570
 2640DPPC   C4A53372  20.940  18.290  37.099  0.3589  0.1477 -0.2574
 2640DPPC   C1B53373  19.658  18.123  37.185  0.0210 -0.1702  0.0905
 2640DPPC   C2B53374  19.779  18.563  37.110 -0.1064  0.3974  0.1806
 2640DPPC   C3B53375  20.083  18.922  37.004  0.0799  0.1220 -0.3254
 2640DPPC   C4B53376  20.414  19.134  37.050  0.1222  0.2743 -0.0871
 2641DPPC   NC353377  11.715   5.949  40.950  0.2793 -0.1158  0.3383
 2641DPPC   PO453378  11.912   5.852  41.377 -0.2072  0.3036 -0.0620
 2641DPPC   GL153379  12.363   6.062  41.294  0.0359  0.1297 -0.3164
 2641DPPC   GL253380  12.367   6.096  40.883 -0.0588 -0.0490 -0.2852
 2641DPPC   C1A53381  12.692   6.396  41.114  0.1424 -0.0657 -0.1464
 2641DPPC   C2A53382  12.897   6.555  40.754  0.0473  0.0498 -0.0403
 2641DPPC   C3A53383  12.759   6.741  40.444  0.1379 -0.2894 -0.1924
 2641DPPC   C4A53384  12.876   6.742  39.989 -0.2214  0.2301  0.1136
 2641DPPC   C1B53385  12.381   6.502  40.678 -0.4179 -0.2564 -0.0510
 2641DPPC   C2B53386  12.340   6.941  40.579  0.1611 -0.0053 -0.0130
 2641DPPC   C3B53387  12.259   7.253  40.858 -0.2388 -0.1204  0.0177
 2641DPPC   C4B53388  11.980   7.582  40.789  0.0719  0.1300  0.0700
 2642DPPC   NC353389  15.508  12.131  19.580  0.2290  0.2459  0.0872
 2642DPPC   PO453390  15.501  11.889  19.298  0.2591  0.1546  0.1648
 2642DPPC   GL153391  15.193  12.099  19.087  0.2102 -0.0348 -0.2726
 2642DPPC   GL253392  15.169  11.843  18.894 -0.2646  0.1119  0.1578
 2642DPPC   C1A53393  15.076  12.303  18.638  0.1543 -0.0396 -0.0719
 2642DPPC   C2A53394  15.108  12.278  18.175 -0.0048 -0.0744  0.0613
 2642DPPC   C3A53395  15.266  11.992  17.885  0.1144 -0.2600 -0.0973
 2642DPPC   C4A53396  15.630  11.802  17.634  0.2583  0.1644 -0.0556
 2642DPPC   C1B53397  14.855  11.446  18.894 -0.0030 -0.2366  0.0213
 2642DPPC   C2B53398  14.601  11.134  18.746 -0.0244  0.4206  0.0361
 2642DPPC   C3B53399  14.420  11.101  18.328 -0.1507 -0.1353  0.0892
 2642DPPC   C4B53400  14.262  10.901  17.994 -0.2594 -0.3275  0.2921
 2643DPPC   NC353401  17.856  19.596  35.226 -0.4265  0.3902 -0.2006
 2643DPPC   PO453402  17.468  19.323  35.365 -0.2886 -0.2298 -0.2349
 2643DPPC   GL153403  17.474  19.848  35.480 -0.2344 -0.1946  0.2457
 2643DPPC   GL253404  17.276  20.113  35.238 -0.3743 -0.2201 -0.0340
 2643DPPC   C1A53405  17.670  20.354  35.550  0.0049 -0.0319  0.0025
 2643DPPC   C2A53406  17.933  20.715  35.434 -0.2414 -0.0295  0.2295
 2643DPPC   C3A53407  18.289  20.884  35.740  0.2372  0.2779 -0.2379
 2643DPPC   C4A53408  18.623  20.564  35.801  0.1863 -0.0499  0.0709
 2643DPPC   C1B53409  17.369  20.596  35.107  0.5379 -0.1208  0.3802
 2643DPPC   C2B53410  17.508  20.989  35.149  0.0100  0.0621 -0.0329
 2643DPPC   C3B53411  17.494  21.361  34.873 -0.0699 -0.0454 -0.1023
 2643DPPC   C4B53412  17.301  21.716  34.957  0.0991  0.0396 -0.0307
 2644DPPC   NC353413  19.852  12.594  14.909  0.2651  0.0734  0.1291
 2644DPPC   PO453414  19.870  12.092  15.039 -0.1587 -0.2631  0.1888
 2644DPPC   GL153415  19.832  12.004  15.510 -0.4335 -0.1152 -0.3531
 2644DPPC   GL253416  19.729  11.716  15.575 -0.1377 -0.2630  0.0950
 2644DPPC   C1A53417  19.821  12.225  15.874  0.1278 -0.1932 -0.0678
 2644DPPC   C2A53418  19.434  12.296  16.099  0.2234  0.0005  0.2816
 2644DPPC   C3A53419  19.313  12.281  16.610  0.1897  0.0399 -0.3916
 2644DPPC   C4A53420  19.442  12.527  16.968  0.0537  0.2966  0.1854
 2644DPPC   C1B53421  19.612  11.858  16.035 -0.0724 -0.0450 -0.2161
 2644DPPC   C2B53422  19.676  11.973  16.424 -0.3546 -0.1614 -0.0898
 2644DPPC   C3B53423  19.738  12.022  16.803 -0.0752 -0.2118 -0.2217
 2644DPPC   C4B53424  19.624  12.095  17.186  0.1990 -0.1655 -0.1127
 2645DPPC   NC353425  13.791   6.294  34.959  0.0093  0.1319  0.2265
 2645DPPC   PO453426  13.526   5.954  35.328 -0.0404  0.1141 -0.0361
 2645DPPC   GL153427  13.403   5.510  35.397  0.0848 -0.0076 -0.0363
 2645DPPC   GL253428  13.523   5.389  35.758 -0.0181  0.2587 -0.0257
 2645DPPC   C1A53429  13.112   5.200  35.595  0.1226 -0.1101  0.0766
 2645DPPC   C2A53430  12.853   4.864  35.519  0.0758 -0.2496  0.0091
 2645DPPC   C3A53431  12.816   4.425  35.653  0.1005 -0.1487 -0.0979
 2645DPPC   C4A53432  12.954   4.121  35.761  0.0276  0.2151 -0.0245
 2645DPPC   C1B53433  13.138   5.471  36.050 -0.0215 -0.1409  0.3402
 2645DPPC   C2B53434  12.835   5.386  36.147  0.3058  0.1574 -0.3907
 2645DPPC   C3B53435  12.516   5.375  36.429 -0.0164 -0.2032 -0.0832
 2645DPPC   C4B53436  12.407   5.203  36.768 -0.1063  0.0346 -0.0416
 2646DPPC   NC353437  13.099  19.427  35.500 -0.1901  0.1752  0.2184
 2646DPPC   PO453438  13.165  19.271  35.912 -0.1439  0.2016  0.2434
 2646DPPC   GL153439  12.970  19.424  36.255 -0.1883 -0.0205 -0.1808
 2646DPPC   GL253440  12.834  19.305  36.459 -0.0756  0.0701 -0.2407
 2646DPPC   C1A53441  12.771  19.766  36.528  0.0195  0.1050 -0.1527
 2646DPPC   C2A53442  12.538  20.143  36.665  0.0115 -0.1669  0.1629
 2646DPPC   C3A53443  12.560  20.686  36.755 -0.1774  0.2245 -0.0076
 2646DPPC   C4A53444  12.439  21.049  36.810  0.1288 -0.3746  0.0136
 2646DPPC   C1B53445  12.418  19.427  36.654 -0.2733 -0.1502  0.2048
 2646DPPC   C2B53446  12.148  19.704  36.768 -0.2638 -0.2322  0.2688
 2646DPPC   C3B53447  12.108  20.078  36.998  0.0131  0.0806 -0.0066
 2646DPPC   C4B53448  12.146  20.314  37.361  0.2794  0.0820  0.1952
 2647DPPC   NC353449  21.694  14.844  27.466 -0.2602  0.0238 -0.1211
 2647DPPC   PO453450  21.611  14.941  27.935 -0.0644  0.3514 -0.0956
 2647DPPC   GL153451  21.733  15.337  27.870 -0.0187  0.0408 -0.0583
 2647DPPC   GL253452  21.951  15.528  27.948  0.1700  0.0620  0.1307
 2647DPPC   C1A53453  21.918  15.506  27.445 -0.1902 -0.3073  0.0076
 2647DPPC   C2A53454  22.360  15.692  27.342 -0.0384  0.0206  0.1999
 2647DPPC   C3A53455  22.746  15.812  27.042  0.0694 -0.0227 -0.0004
 2647DPPC   C4A53456  23.087  16.029  26.885 -0.0298  0.0360  0.0928
 2647DPPC   C1B53457  22.459  15.786  27.907  0.2758  0.0706  0.1183
 2647DPPC   C2B53458  22.620  16.253  27.909 -0.0429 -0.0609 -0.0328
 2647DPPC   C3B53459  22.855  16.590  27.646 -0.2656  0.4549 -0.0840
 2647DPPC   C4B53460  22.692  16.804  27.289  0.1027  0.1714  0.0059
 2648DPPC   NC353461  20.841  17.269  32.240 -0.0755  0.1246 -0.0705
 2648DPPC   PO453462  21.001  17.608  32.658 -0.1534  0.1480 -0.0271
 2648DPPC   GL153463  21.291  17.956  32.510 -0.4283  0.0861 -0.2208
 2648DPPC   GL253464  21.220  18.237  32.670  0.6588  0.2826 -0.1978
 2648DPPC   C1A53465  21.785  18.104  32.522  0.0369 -0.2582  0.0086
 2648DPPC   C2A53466  22.098  18.344  32.480 -0.0604 -0.2705  0.1206
 2648DPPC   C3A53467  22.332  18.654  32.323 -0.3825 -0.1350 -0.1664
 2648DPPC   C4A53468  22.780  18.764  32.347 -0.1411  0.2457  0.1763
 2648DPPC   C1B53469  21.463  18.549  32.930  0.1638  0.0478  0.0581
 2648DPPC   C2B53470  21.904  18.602  32.906  0.2212  0.1652 -0.2461
 2648DPPC   C3B53471  22.255  18.686  33.207 -0.0582 -0.1127  0.0693
 2648DPPC   C4B53472  22.636  18.687  33.202 -0.2962  0.2179  0.0169
 2649DPPC   NC353473  21.809   8.319  23.296 -0.1810  0.2841 -0.3274
 2649DPPC   PO453474  22.177   8.606  23.034  0.0894 -0.0666  0.0240
 2649DPPC   GL153475  22.450   8.304  22.796 -0.1099 -0.0772  0.1054
 2649DPPC   GL253476  22.346   8.064  22.634  0.0300  0.0388 -0.0236
 2649DPPC   C1A53477  22.703   7.832  22.988 -0.4224  0.2274 -0.0267
 2649DPPC   C2A53478  22.959   7.628  23.348  0.0661 -0.0229  0.1282
 2649DPPC   C3A53479  23.234   7.458  23.586  0.0885  0.1010 -0.1098
 2649DPPC   C4A53480  23.522   7.326  23.980  0.1062  0.2730 -0.0019
 2649DPPC   C1B53481  22.767   8.028  22.443 -0.1447  0.2043  0.2855
 2649DPPC   C2B53482  23.104   8.172  22.120 -0.1202 -0.1208 -0.0118
 2649DPPC   C3B53483  23.204   8.121  21.669  0.1639  0.2368  0.0233
 2649DPPC   C4B53484  23.056   7.850  21.408 -0.4274 -0.0900 -0.1737
 2650DPPC   NC353485  14.354  20.032  41.159 -0.0856  0.0465  0.2127
 2650DPPC   PO453486  14.592  20.351  41.127  0.0472 -0.0756 -0.2980
 2650DPPC   GL153487  14.836  20.008  40.860  0.1462  0.1065 -0.0908
 2650DPPC   GL253488  15.031  19.992  41.107  0.1289 -0.1878  0.2000
 2650DPPC   C1A53489  15.022  19.811  40.568 -0.2544  0.0160  0.1639
 2650DPPC   C2A53490  15.150  19.446  40.267  0.1549  0.5067 -0.2045
 2650DPPC   C3A53491  15.509  19.277  39.985  0.3613 -0.0407  0.3101
 2650DPPC   C4A53492  15.994  19.286  40.000  0.2171 -0.2093  0.0848
 2650DPPC   C1B53493  15.123  19.584  41.032  0.4772  0.0266  0.3767
 2650DPPC   C2B53494  14.888  19.283  40.805  0.2269 -0.2046  0.3058
 2650DPPC   C3B53495  14.875  18.881  40.573 -0.1308 -0.2423  0.1623
 2650DPPC   C4B53496  14.581  18.600  40.344 -0.2444  0.2195  0.0963
 2651DPPC   NC353497  16.554   4.853  31.692  0.1551  0.4336  0.1968
 2651DPPC   PO453498  16.886   4.731  31.825 -0.1721 -0.3099 -0.3616
 2651DPPC   GL153499  16.809   4.278  31.826 -0.1250 -0.2949 -0.0761
 2651DPPC   GL253500  16.953   4.082  31.644 -0.0828 -0.3147 -0.1064
 2651DPPC   C1A53501  16.755   3.902  32.140  0.0234 -0.0319  0.0712
 2651DPPC   C2A53502  17.115   3.717  32.476 -0.1473  0.1229  0.2067
 2651DPPC   C3A53503  17.413   3.567  32.673  0.0210  0.2321  0.0758
 2651DPPC   C4A53504  17.626   3.137  32.717  0.1081 -0.1033 -0.3528
 2651DPPC   C1B53505  17.243   3.849  31.568 -0.0980 -0.1503 -0.0148
 2651DPPC   C2B53506  17.644   3.610  31.853  0.1816 -0.1248  0.1688
 2651DPPC   C3B53507  17.462   3.293  32.175  0.2610 -0.1177  0.3621
 2651DPPC   C4B53508  17.179   3.185  32.544 -0.1643  0.0812 -0.1150
 2652DPPC   NC353509  21.662  14.880  36.552  0.1073 -0.0462 -0.0112
 2652DPPC   PO453510  21.563  15.276  36.322  0.1046 -0.1294  0.5197
 2652DPPC   GL153511  21.861  15.349  36.546  0.0964  0.0308 -0.0525
 2652DPPC   GL253512  22.009  15.192  36.753 -0.4387 -0.2132 -0.0234
 2652DPPC   C1A53513  21.972  15.724  36.768 -0.0477 -0.3645 -0.0379
 2652DPPC   C2A53514  22.225  15.933  36.887  0.0115  0.0187 -0.0523
 2652DPPC   C3A53515  22.492  16.045  37.255 -0.0538  0.1938 -0.0444
 2652DPPC   C4A53516  22.568  16.326  37.535  0.1957  0.0252 -0.3486
 2652DPPC   C1B53517  22.152  15.469  37.101  0.0300 -0.3863  0.1598
 2652DPPC   C2B53518  22.476  15.529  37.444  0.0315  0.3551 -0.2758
 2652DPPC   C3B53519  22.832  15.352  37.790 -0.1466 -0.1257  0.0421
 2652DPPC   C4B53520  23.162  15.409  38.159  0.1941  0.1100 -0.5048
 2653DPPC   NC353521  12.745  20.056  33.339 -0.1162 -0.0192  0.0896
 2653DPPC   PO453522  12.460  20.450  33.387 -0.1565  0.3602  0.0993
 2653DPPC   GL153523  12.255  20.607  33.717  0.2233  0.2082 -0.0824
 2653DPPC   GL253524  11.917  20.735  33.537  0.1045  0.0594  0.1501
 2653DPPC   C1A53525  12.073  20.662  34.086 -0.1907  0.3221  0.2518
 2653DPPC   C2A53526  11.788  21.117  34.213 -0.1470 -0.0334 -0.3387
 2653DPPC   C3A53527  11.610  21.475  34.362  0.4954 -0.2909 -0.0239
 2653DPPC   C4A53528  11.259  21.824  34.406  0.1940 -0.1555 -0.0447
 2653DPPC   C1B53529  11.783  21.190  33.561  0.0543  0.1190  0.0693
 2653DPPC   C2B53530  11.425  21.405  33.835 -0.0996  0.0762 -0.0479
 2653DPPC   C3B53531  11.052  21.679  33.844 -0.1257 -0.0224  0.1122
 2653DPPC   C4B53532  10.671  21.902  33.794  0.1045  0.0234  0.2523
 2654DPPC   NC353533  14.457   5.280  26.343 -0.6297  0.2477 -0.3749
 2654DPPC   PO453534  14.225   4.930  26.063 -0.0640  0.0427 -0.0675
 2654DPPC   GL153535  14.086   4.624  25.952 -0.0187 -0.1847 -0.2912
 2654DPPC   GL253536  14.210   4.400  26.075 -0.1086 -0.1173  0.0653
 2654DPPC   C1A53537  13.839   4.339  25.623  0.2873  0.0611  0.2957
 2654DPPC   C2A53538  13.567   3.973  25.486  0.1104  0.0501 -0.1521
 2654DPPC   C3A53539  13.763   3.644  25.347  0.1286 -0.2272  0.0768
 2654DPPC   C4A53540  14.006   3.474  24.985 -0.1182 -0.3879  0.1609
 2654DPPC   C1B53541  13.846   4.057  26.248 -0.0302  0.1007 -0.0296
 2654DPPC   C2B53542  14.037   3.661  26.198  0.2711  0.1946  0.5028
 2654DPPC   C3B53543  14.165   3.361  25.834  0.2366 -0.1220 -0.2196
 2654DPPC   C4B53544  14.383   3.003  25.779 -0.0816 -0.0474  0.0195
 2655DPPC   NC353545   3.675  13.121  33.716  0.2149 -0.0198 -0.0248
 2655DPPC   PO453546   3.812  12.955  34.084 -0.1503  0.0048 -0.4156
 2655DPPC   GL153547   4.212  12.954  34.042  0.0190 -0.3749  0.2389
 2655DPPC   GL253548   4.282  12.697  34.255  0.1751 -0.1387 -0.0177
 2655DPPC   C1A53549   4.624  13.058  33.963 -0.3558 -0.0094  0.2401
 2655DPPC   C2A53550   4.997  13.363  34.031 -0.1221  0.0510  0.0939
 2655DPPC   C3A53551   5.292  13.773  34.075 -0.4035  0.1265  0.1685
 2655DPPC   C4A53552   5.399  14.009  34.443 -0.0205 -0.1256 -0.4698
 2655DPPC   C1B53553   4.480  12.517  33.936  0.0679 -0.3548 -0.2776
 2655DPPC   C2B53554   4.809  12.414  33.907 -0.1870  0.0524  0.0937
 2655DPPC   C3B53555   5.067  12.332  33.527 -0.1454 -0.1382 -0.2526
 2655DPPC   C4B53556   5.242  12.241  33.136 -0.0073  0.2927 -0.0623
 2656DPPC   NC353557  19.915   3.194  39.225 -0.2465  0.3378 -0.1440
 2656DPPC   PO453558  20.164   3.405  39.003  0.1351 -0.3442 -0.0374
 2656DPPC   GL153559  19.844   3.736  38.859 -0.0667 -0.0983  0.0181
 2656DPPC   GL253560  19.763   3.518  38.468 -0.1680 -0.1248 -0.0611
 2656DPPC   C1A53561  19.408   3.894  39.158  0.0808 -0.0962  0.2675
 2656DPPC   C2A53562  18.892   4.035  39.048  0.4308  0.0577 -0.1111
 2656DPPC   C3A53563  18.563   4.057  38.763 -0.1417 -0.4786  0.4379
 2656DPPC   C4A53564  18.323   4.016  38.530 -0.0850 -0.0502  0.3020
 2656DPPC   C1B53565  19.442   3.849  38.394  0.2654 -0.2058 -0.0548
 2656DPPC   C2B53566  19.343   4.329  38.297  0.2010 -0.2233  0.1899
 2656DPPC   C3B53567  19.144   4.743  38.266 -0.3401  0.1057 -0.0062
 2656DPPC   C4B53568  18.658   4.930  38.326  0.2733 -0.0904 -0.4840
 2657DPPC   NC353569  11.890  16.762  37.856  0.1683 -0.0775  0.2603
 2657DPPC   PO453570  11.713  16.407  37.864  0.0327 -0.5167  0.0156
 2657DPPC   GL153571  11.439  16.571  38.192 -0.1026  0.0527  0.0244
 2657DPPC   GL253572  11.549  16.846  38.309  0.0513 -0.0677 -0.0955
 2657DPPC   C1A53573  11.092  16.875  38.425  0.0634  0.1398  0.0894
 2657DPPC   C2A53574  11.139  17.204  38.722  0.1093  0.0764  0.4285
 2657DPPC   C3A53575  11.174  17.392  39.051 -0.2692 -0.0990 -0.1992
 2657DPPC   C4A53576  11.022  17.796  39.184  0.0172 -0.1529 -0.3309
 2657DPPC   C1B53577  11.588  17.103  38.638 -0.0310  0.0190 -0.2204
 2657DPPC   C2B53578  11.982  17.127  38.939  0.1634 -0.2471 -0.2348
 2657DPPC   C3B53579  12.351  16.920  39.134  0.5342  0.2221  0.3385
 2657DPPC   C4B53580  12.433  16.959  39.519  0.0268  0.0728 -0.0862
 2658DPPC   NC353581  23.363  11.528  30.599 -0.0464 -0.2592  0.1104
 2658DPPC   PO453582  23.735  11.578  30.554 -0.0623  0.2992  0.1107
 2658DPPC   GL153583  24.176  11.422  30.813  0.1586  0.1409  0.0633
 2658DPPC   GL253584  24.442  11.722  30.845  0.0255 -0.2946 -0.5400
 2658DPPC   C1A53585  24.516  11.288  31.013  0.2103 -0.0991  0.4141
 2658DPPC   C2A53586  24.965  11.158  30.933 -0.1440  0.0542  0.1607
 2658DPPC   C3A53587  25.261  10.836  30.931 -0.2195 -0.1824 -0.2408
 2658DPPC   C4A53588  25.599  10.532  31.124 -0.1520 -0.0843  0.0175
 2658DPPC   C1B53589  24.901  11.619  31.016 -0.2881  0.0072 -0.1796
 2658DPPC   C2B53590  25.161  11.935  31.298 -0.0438 -0.1652  0.2630
 2658DPPC   C3B53591  25.533  12.131  31.093 -0.0596  0.0440 -0.2013
 2658DPPC   C4B53592  25.755  12.527  31.071  0.3251 -0.0693  0.1443
 2659DPPC   NC353593  19.490  15.692  23.519 -0.2749 -0.3135  0.2116
 2659DPPC   PO453594  19.258  16.046  23.516  0.1836 -0.4085  0.3322
 2659DPPC   GL153595  19.284  16.375  23.846  0.0895  0.1884  0.0576
 2659DPPC   GL253596  19.587  16.549  23.902 -0.1260 -0.1428 -0.1089
 2659DPPC   C1A53597  19.190  16.395  24.264 -0.1875  0.2689 -0.0888
 2659DPPC   C2A53598  18.828  16.328  24.620  0.1734 -0.0833 -0.2454
 2659DPPC   C3A53599  18.754  16.558  25.000 -0.0270 -0.1289  0.3030
 2659DPPC   C4A53600  18.680  16.304  25.411 -0.5031  0.1790  0.1253
 2659DPPC   C1B53601  19.691  16.377  24.342  0.1160 -0.2880  0.1260
 2659DPPC   C2B53602  19.409  16.029  24.480  0.0075  0.0944 -0.2584
 2659DPPC   C3B53603  19.387  15.729  24.739  0.2095 -0.1563  0.0718
 2659DPPC   C4B53604  19.251  15.674  25.326  0.1199 -0.1195  0.2303
 2660DPPC   NC353605  12.445  18.144  36.038  0.2874 -0.2353 -0.0197
 2660DPPC   PO453606  12.314  18.559  35.956 -0.3120  0.0241  0.1651
 2660DPPC   GL153607  12.338  18.886  36.230 -0.2415  0.1600  0.0110
 2660DPPC   GL253608  12.384  19.211  36.213  0.1689  0.0635 -0.0292
 2660DPPC   C1A53609  12.089  19.025  36.641 -0.0600  0.0098  0.1502
 2660DPPC   C2A53610  11.783  19.231  36.852  0.1837 -0.0079 -0.0052
 2660DPPC   C3A53611  11.718  19.638  37.075 -0.0033  0.1999  0.2560
 2660DPPC   C4A53612  11.854  19.909  37.449  0.2375  0.2509  0.0856
 2660DPPC   C1B53613  11.983  19.296  36.237  0.0156  0.1805  0.0732
 2660DPPC   C2B53614  11.768  19.618  36.430  0.1548  0.2414  0.2593
 2660DPPC   C3B53615  11.752  20.016  36.724 -0.0529 -0.2828  0.0038
 2660DPPC   C4B53616  11.527  20.187  37.087  0.1865 -0.1030 -0.3046
 2661DPPC   NC353617  12.630  24.055  22.946  0.2380  0.0631 -0.1940
 2661DPPC   PO453618  12.241  23.820  23.053 -0.0854  0.0158 -0.4347
 2661DPPC   GL153619  12.228  23.480  23.286  0.2774  0.0447 -0.0123
 2661DPPC   GL253620  12.545  23.276  23.211  0.3747 -0.2315 -0.1541
 2661DPPC   C1A53621  12.168  23.092  23.592 -0.2478  0.2085  0.1875
 2661DPPC   C2A53622  12.046  22.700  23.868  0.2397  0.1886  0.1927
 2661DPPC   C3A53623  12.089  22.388  24.175 -0.2526 -0.0694 -0.0461
 2661DPPC   C4A53624  12.265  21.996  24.222  0.0919 -0.0044 -0.0762
 2661DPPC   C1B53625  12.607  22.874  23.401  0.0043 -0.0571 -0.1448
 2661DPPC   C2B53626  12.578  22.526  23.791 -0.0485 -0.2634 -0.1119
 2661DPPC   C3B53627  12.763  22.161  24.101  0.3705  0.1445 -0.1823
 2661DPPC   C4B53628  12.990  21.783  24.202  0.0967 -0.0273 -0.0652
 2662DPPC   NC353629  18.447  14.972  27.769  0.0020 -0.1992  0.0401
 2662DPPC   PO453630  18.438  15.047  27.248  0.0916  0.3794 -0.6666
 2662DPPC   GL153631  18.381  14.790  27.067  0.6395  0.1790  0.3509
 2662DPPC   GL253632  17.995  14.946  27.055 -0.0758  0.3795  0.1973
 2662DPPC   C1A53633  18.543  14.441  26.953 -0.0415  0.2618  0.0116
 2662DPPC   C2A53634  18.910  14.490  26.625  0.2112  0.4318  0.1101
 2662DPPC   C3A53635  19.190  14.220  26.374  0.2054 -0.0569  0.1215
 2662DPPC   C4A53636  19.299  13.836  26.350 -0.6266  0.1143  0.2230
 2662DPPC   C1B53637  18.040  14.688  26.624  0.1446  0.0038  0.2487
 2662DPPC   C2B53638  18.065  14.691  26.230  0.2729 -0.3063  0.0715
 2662DPPC   C3B53639  18.066  14.668  25.801 -0.0511 -0.0645  0.3345
 2662DPPC   C4B53640  17.888  14.279  25.566  0.0331  0.2569 -0.1214
 2663DPPC   NC353641  17.694  10.648  19.049 -0.0923 -0.0297  0.2301
 2663DPPC   PO453642  17.657  11.107  19.118  0.1448  0.2481  0.3202
 2663DPPC   GL153643  17.513  10.995  18.686 -0.0271  0.2124  0.0446
 2663DPPC   GL253644  17.155  11.028  18.638  0.0372 -0.1318 -0.1339
 2663DPPC   C1A53645  17.645  10.803  18.200 -0.0748 -0.4047 -0.1276
 2663DPPC   C2A53646  17.446  10.522  17.859 -0.2070  0.2943  0.0543
 2663DPPC   C3A53647  17.504  10.284  17.531 -0.0225 -0.0184 -0.1795
 2663DPPC   C4A53648  17.598   9.949  17.474 -0.0752 -0.2363 -0.0738
 2663DPPC   C1B53649  16.960  11.247  18.296 -0.0075  0.0893  0.0471
 2663DPPC   C2B53650  16.703  11.162  17.840  0.1109  0.0246 -0.1277
 2663DPPC   C3B53651  16.531  11.260  17.425 -0.0456  0.0818 -0.0985
 2663DPPC   C4B53652  16.533  11.256  16.915 -0.0693 -0.0540 -0.0275
 2664DPPC   NC353653  16.592   4.508  30.395 -0.0549 -0.1248  0.2389
 2664DPPC   PO453654  16.405   4.220  30.284  0.3373 -0.1697 -0.0779
 2664DPPC   GL153655  16.380   3.765  30.171  0.2094  0.2591 -0.1151
 2664DPPC   GL253656  16.174   3.824  30.025  0.1397 -0.1315  0.1196
 2664DPPC   C1A53657  16.323   3.450  30.352 -0.0069  0.0756  0.1615
 2664DPPC   C2A53658  16.310   2.977  30.176  0.0612  0.1210  0.3315
 2664DPPC   C3A53659  16.016   2.765  29.895 -0.0258 -0.0285 -0.2811
 2664DPPC   C4A53660  15.768   2.585  29.617  0.0547  0.0020 -0.0532
 2664DPPC   C1B53661  16.078   3.310  29.897 -0.2592 -0.4143  0.2586
 2664DPPC   C2B53662  15.909   3.188  29.585 -0.1884  0.0673 -0.0790
 2664DPPC   C3B53663  16.188   2.859  29.461  0.1851  0.3308 -0.2910
 2664DPPC   C4B53664  16.301   2.494  29.486 -0.0463  0.0118  0.1303
 2665DPPC   NC353665  11.502  15.936  38.072  0.2880 -0.1806  0.1301
 2665DPPC   PO453666  11.966  15.960  37.920 -0.0234 -0.1247  0.2324
 2665DPPC   GL153667  11.824  16.195  38.346 -0.1233 -0.3585  0.2353
 2665DPPC   GL253668  11.917  16.502  38.316  0.2565 -0.0851 -0.0141
 2665DPPC   C1A53669  11.493  16.362  38.680  0.1776  0.4523  0.0468
 2665DPPC   C2A53670  11.427  16.785  38.963  0.0415  0.3686  0.0077
 2665DPPC   C3A53671  11.448  17.055  39.260  0.0536 -0.0611 -0.0226
 2665DPPC   C4A53672  11.428  17.115  39.594 -0.2897 -0.1216 -0.0192
 2665DPPC   C1B53673  11.871  16.647  38.753 -0.2515  0.0454  0.1785
 2665DPPC   C2B53674  11.877  16.698  39.174 -0.0170  0.1101 -0.0134
 2665DPPC   C3B53675  11.912  17.051  39.494 -0.1668  0.2931 -0.3040
 2665DPPC   C4B53676  11.913  17.379  39.841 -0.1391  0.0450 -0.2631
 2666DPPC   NC353677  10.186  17.374  25.205 -0.1174 -0.0563  0.0142
 2666DPPC   PO453678   9.966  17.727  25.325 -0.0137  0.0154 -0.0388
 2666DPPC   GL153679   9.784  18.136  25.334 -0.0586 -0.1029 -0.1146
 2666DPPC   GL253680   9.713  18.392  25.587  0.0803 -0.0207 -0.0327
 2666DPPC   C1A53681   9.684  18.508  25.111 -0.2761  0.1530 -0.0034
 2666DPPC   C2A53682   9.426  18.816  24.857 -0.4759 -0.1320 -0.0336
 2666DPPC   C3A53683   9.173  18.919  24.528 -0.3902  0.2943 -0.2974
 2666DPPC   C4A53684   8.817  19.224  24.303 -0.0898 -0.0150  0.0207
 2666DPPC   C1B53685   9.263  18.507  25.341  0.1448 -0.0657 -0.2957
 2666DPPC   C2B53686   8.924  18.706  25.150  0.1787  0.1923  0.0294
 2666DPPC   C3B53687   8.882  19.152  24.861 -0.1415  0.3378  0.2754
 2666DPPC   C4B53688   8.750  19.574  24.756 -0.3067  0.2540 -0.3037
 2667DPPC   NC353689  24.247   4.368  22.782 -0.1336 -0.0306  0.0395
 2667DPPC   PO453690  24.196   4.817  22.755 -0.0519 -0.0606  0.1298
 2667DPPC   GL153691  24.058   5.173  23.001  0.0652 -0.0940  0.0369
 2667DPPC   GL253692  24.151   5.088  23.366 -0.0082 -0.0334 -0.1117
 2667DPPC   C1A53693  23.763   5.551  22.905 -0.1253 -0.0213  0.2811
 2667DPPC   C2A53694  23.408   5.926  22.859  0.1807 -0.1563  0.1717
 2667DPPC   C3A53695  23.087   6.132  22.991  0.1704  0.1383 -0.0185
 2667DPPC   C4A53696  23.030   6.353  23.387 -0.1637 -0.2595  0.0805
 2667DPPC   C1B53697  23.660   5.283  23.338 -0.0697  0.0996  0.2064
 2667DPPC   C2B53698  23.556   5.762  23.297  0.1158 -0.1057  0.3034
 2667DPPC   C3B53699  23.150   5.894  23.541  0.1880  0.1902  0.3349
 2667DPPC   C4B53700  22.763   5.861  23.312  0.2867  0.2313  0.1905
 2668DPPC   NC353701  21.827  14.578  29.115 -0.1964 -0.0741  0.1326
 2668DPPC   PO453702  22.139  14.848  28.898  0.0459  0.0549 -0.0983
 2668DPPC   GL153703  22.380  15.110  28.603  0.2230  0.4802  0.1012
 2668DPPC   GL253704  22.202  15.378  28.413  0.0395  0.1382  0.0519
 2668DPPC   C1A53705  22.907  15.200  28.617  0.0011  0.1213  0.0605
 2668DPPC   C2A53706  23.248  15.353  28.834 -0.1533  0.0481 -0.0081
 2668DPPC   C3A53707  23.651  15.400  28.765 -0.2629  0.0355 -0.0417
 2668DPPC   C4A53708  23.983  15.624  28.503  0.0494  0.0082  0.1912
 2668DPPC   C1B53709  22.577  15.677  28.375  0.2290 -0.1201 -0.1731
 2668DPPC   C2B53710  22.999  15.663  28.597  0.0031 -0.1172  0.1526
 2668DPPC   C3B53711  23.384  15.831  28.749 -0.1115 -0.5178  0.0597
 2668DPPC   C4B53712  23.672  16.064  28.633 -0.0146  0.1591  0.1727
 2669DPPC   NC353713  13.015  21.200  32.280  0.1474 -0.1526 -0.1359
 2669DPPC   PO453714  13.481  21.364  32.063 -0.0617  0.0359  0.2423
 2669DPPC   GL153715  13.255  21.675  32.246  0.0130 -0.0009 -0.0981
 2669DPPC   GL253716  13.182  21.581  32.539  0.1095  0.1231  0.0423
 2669DPPC   C1A53717  13.135  22.045  32.426 -0.3675 -0.1680 -0.0134
 2669DPPC   C2A53718  12.946  22.384  32.640  0.0947 -0.3189 -0.0518
 2669DPPC   C3A53719  12.716  22.739  32.532  0.0128  0.1908 -0.2902
 2669DPPC   C4A53720  12.353  22.742  32.340  0.1490  0.0959 -0.0423
 2669DPPC   C1B53721  13.333  21.894  32.856  0.0521  0.0679  0.2189
 2669DPPC   C2B53722  13.380  22.240  33.043 -0.1713 -0.3140  0.1994
 2669DPPC   C3B53723  13.114  22.597  33.043  0.0159  0.0299  0.1985
 2669DPPC   C4B53724  12.770  22.922  32.993 -0.3088 -0.0012 -0.2358
 2670DPPC   NC353725  15.802   6.612  22.500  0.2465 -0.0873  0.3880
 2670DPPC   PO453726  16.199   6.658  22.280 -0.1058 -0.2133 -0.1862
 2670DPPC   GL153727  16.091   6.373  21.947  0.0245  0.0995 -0.0489
 2670DPPC   GL253728  16.239   6.107  21.994 -0.2706  0.1645 -0.3609
 2670DPPC   C1A53729  15.834   6.227  21.636 -0.1566  0.0067  0.4352
 2670DPPC   C2A53730  15.894   6.019  21.294  0.0773 -0.0619  0.0221
 2670DPPC   C3A53731  15.680   5.856  20.957  0.2049 -0.0975  0.1990
 2670DPPC   C4A53732  15.362   5.685  20.577 -0.1370 -0.2918 -0.0447
 2670DPPC   C1B53733  16.021   5.831  21.772  0.0454  0.1793  0.1448
 2670DPPC   C2B53734  16.218   5.478  21.673  0.1517 -0.0790  0.0386
 2670DPPC   C3B53735  16.345   5.132  21.580  0.1116  0.1183  0.1466
 2670DPPC   C4B53736  16.098   4.731  21.458  0.2976  0.1386  0.1035
 2671DPPC   NC353737  21.189  15.285  27.964  0.0471  0.2586  0.2522
 2671DPPC   PO453738  20.961  15.290  27.478  0.0455  0.2067 -0.0804
 2671DPPC   GL153739  21.142  15.469  27.065  0.1542 -0.2059  0.0129
 2671DPPC   GL253740  21.316  15.237  26.853 -0.2315 -0.2254 -0.3718
 2671DPPC   C1A53741  21.538  15.674  27.074 -0.1527 -0.1302 -0.2843
 2671DPPC   C2A53742  21.744  15.674  26.750  0.0958 -0.1283 -0.0478
 2671DPPC   C3A53743  21.924  15.258  26.552  0.2842 -0.1425 -0.1125
 2671DPPC   C4A53744  22.333  15.080  26.649  0.2373 -0.2269  0.2545
 2671DPPC   C1B53745  21.190  15.733  26.685  0.0054  0.0887  0.1650
 2671DPPC   C2B53746  21.549  16.114  26.789 -0.2586 -0.0483  0.2057
 2671DPPC   C3B53747  21.892  16.153  26.579  0.0606 -0.0518  0.2569
 2671DPPC   C4B53748  22.100  15.809  26.382  0.0647  0.1742 -0.3038
 2672DPPC   NC353749   7.343  11.928  20.486 -0.2223 -0.1361 -0.1841
 2672DPPC   PO453750   7.365  12.071  20.041 -0.2741 -0.2035  0.1192
 2672DPPC   GL153751   7.825  12.125  20.284  0.0260 -0.0205 -0.1297
 2672DPPC   GL253752   8.080  12.437  20.136  0.0955  0.1430  0.1278
 2672DPPC   C1A53753   8.177  12.051  20.471 -0.0973  0.0145  0.1300
 2672DPPC   C2A53754   8.600  11.934  20.777  0.4632 -0.0209  0.3080
 2672DPPC   C3A53755   8.677  12.026  21.205  0.1681  0.0739  0.0665
 2672DPPC   C4A53756   8.509  12.117  21.493 -0.0909  0.0685  0.0237
 2672DPPC   C1B53757   8.109  12.530  20.619 -0.2064 -0.0857  0.2617
 2672DPPC   C2B53758   8.368  12.683  20.943  0.3131  0.0292 -0.1500
 2672DPPC   C3B53759   8.555  12.600  21.271  0.1718  0.0899 -0.5166
 2672DPPC   C4B53760   8.851  12.481  21.626 -0.1033  0.0578  0.3530
 2673DPPC   NC353761  21.451  13.588  36.832 -0.0419 -0.0648  0.0775
 2673DPPC   PO453762  21.525  13.616  37.375  0.1093 -0.0804  0.0934
 2673DPPC   GL153763  21.597  13.923  37.744 -0.0897  0.1687 -0.0841
 2673DPPC   GL253764  21.556  14.175  37.709  0.2116 -0.1256 -0.1249
 2673DPPC   C1A53765  21.780  13.962  38.099  0.3628 -0.0769  0.1842
 2673DPPC   C2A53766  21.752  14.003  38.576  0.1670 -0.4172 -0.0533
 2673DPPC   C3A53767  21.960  13.955  38.998  0.3010 -0.0429  0.3905
 2673DPPC   C4A53768  22.074  13.798  39.393 -0.1139  0.2411 -0.0855
 2673DPPC   C1B53769  21.920  14.388  37.929  0.4045  0.1884  0.1364
 2673DPPC   C2B53770  22.120  14.296  38.262 -0.0202 -0.1620 -0.1524
 2673DPPC   C3B53771  22.141  14.284  38.705 -0.1973  0.1074 -0.4270
 2673DPPC   C4B53772  22.498  14.128  38.947  0.2222  0.2141  0.1555
 2674DPPC   NC353773  21.309   7.370  34.920 -0.1117 -0.0519 -0.0899
 2674DPPC   PO453774  21.163   7.071  34.717 -0.3255 -0.1731  0.0190
 2674DPPC   GL153775  21.410   6.847  35.009  0.1194 -0.0351 -0.1114
 2674DPPC   GL253776  21.656   7.016  35.252  0.2061  0.0358  0.1185
 2674DPPC   C1A53777  21.578   6.432  34.987 -0.1992  0.2561 -0.1822
 2674DPPC   C2A53778  21.870   6.116  35.131  0.0942 -0.0456  0.0473
 2674DPPC   C3A53779  21.891   5.682  35.332 -0.3807 -0.0726 -0.0582
 2674DPPC   C4A53780  22.040   5.259  35.349  0.0662 -0.4121  0.0678
 2674DPPC   C1B53781  22.015   6.974  35.384 -0.0176 -0.0443  0.0948
 2674DPPC   C2B53782  22.314   6.852  35.683 -0.1086  0.1651 -0.0706
 2674DPPC   C3B53783  22.576   6.768  36.073 -0.0350  0.0522 -0.2945
 2674DPPC   C4B53784  22.770   7.108  36.345 -0.2267  0.2149  0.0359
 2675DPPC   NC353785  23.060  10.772  27.126 -0.2625 -0.0997  0.2531
 2675DPPC   PO453786  23.417  10.952  27.128  0.0366  0.1271  0.0279
 2675DPPC   GL153787  23.670  10.651  27.212 -0.0555  0.2072 -0.1427
 2675DPPC   GL253788  23.890  10.647  27.563  0.0899 -0.4562  0.2801
 2675DPPC   C1A53789  24.053  10.584  26.971  0.3187  0.0940  0.2375
 2675DPPC   C2A53790  24.376  10.253  26.797  0.0668 -0.1108 -0.2058
 2675DPPC   C3A53791  24.667  10.026  26.519 -0.0271 -0.2055 -0.0945
 2675DPPC   C4A53792  24.970   9.727  26.259 -0.0552  0.3101 -0.0564
 2675DPPC   C1B53793  24.253  10.680  27.548  0.0603 -0.4015  0.1225
 2675DPPC   C2B53794  24.689  10.430  27.377 -0.0506 -0.1097  0.4448
 2675DPPC   C3B53795  25.002  10.250  27.018  0.0246  0.0180 -0.3232
 2675DPPC   C4B53796  25.387  10.301  26.915  0.0920  0.2580  0.0375
 2676DPPC   NC353797  12.080  18.753  24.491  0.3298 -0.1590 -0.0520
 2676DPPC   PO453798  12.239  19.057  24.353 -0.1689 -0.2879 -0.0522
 2676DPPC   GL153799  11.981  19.558  24.244  0.1585 -0.0287  0.1684
 2676DPPC   GL253800  11.692  19.640  24.542  0.1045  0.1475 -0.2387
 2676DPPC   C1A53801  11.761  19.945  24.107 -0.1513  0.1943  0.2668
 2676DPPC   C2A53802  11.463  19.994  23.809  0.1691  0.0993  0.3251
 2676DPPC   C3A53803  11.330  19.995  23.441  0.0729 -0.0290 -0.4504
 2676DPPC   C4A53804  11.175  19.932  23.069  0.0693 -0.1749 -0.2535
 2676DPPC   C1B53805  11.292  19.916  24.433  0.0481  0.1294  0.1194
 2676DPPC   C2B53806  11.030  19.991  24.084  0.3162 -0.2966 -0.1830
 2676DPPC   C3B53807  10.929  19.940  23.763  0.0477  0.2494 -0.0892
 2676DPPC   C4B53808  10.771  19.864  23.387 -0.0010 -0.0494 -0.1299
 2677DPPC   NC353809   8.857  11.809  25.672  0.1129  0.5132  0.1119
 2677DPPC   PO453810   9.082  11.559  25.388  0.1339  0.1043  0.1325
 2677DPPC   GL153811   8.742  11.388  25.394  0.0717  0.1765 -0.0772
 2677DPPC   GL253812   8.659  11.004  25.609  0.0325 -0.3779  0.0376
 2677DPPC   C1A53813   8.479  11.080  25.144  0.0331 -0.1691  0.1735
 2677DPPC   C2A53814   8.125  11.037  24.866  0.1555 -0.3298  0.3082
 2677DPPC   C3A53815   7.908  10.633  24.717 -0.0590 -0.0697  0.0321
 2677DPPC   C4A53816   8.078  10.246  24.809  0.0816 -0.0523 -0.1214
 2677DPPC   C1B53817   8.258  10.979  25.591  0.3589  0.0858 -0.1894
 2677DPPC   C2B53818   7.887  11.085  25.264 -0.3527 -0.4590  0.2158
 2677DPPC   C3B53819   7.661  11.067  24.873  0.1027  0.2993  0.1602
 2677DPPC   C4B53820   7.381  11.259  24.473 -0.0608  0.1990 -0.3204
 2678DPPC   NC353821   9.340  16.862  25.439  0.0151 -0.2899 -0.0021
 2678DPPC   PO453822   9.233  16.959  25.917 -0.1621  0.2897  0.0827
 2678DPPC   GL153823   9.122  17.322  25.572 -0.1357  0.0595 -0.1428
 2678DPPC   GL253824   9.048  17.663  25.718  0.2898 -0.1861 -0.1283
 2678DPPC   C1A53825   8.681  17.385  25.386  0.1083 -0.2224  0.2356
 2678DPPC   C2A53826   8.318  17.438  25.159  0.0910  0.2802 -0.0795
 2678DPPC   C3A53827   7.922  17.771  24.984  0.1763 -0.0571  0.2294
 2678DPPC   C4A53828   7.779  18.063  24.643 -0.2789 -0.4110  0.0035
 2678DPPC   C1B53829   8.575  17.833  25.643 -0.2192  0.1340  0.1187
 2678DPPC   C2B53830   8.221  17.909  25.489 -0.0712  0.1044 -0.0511
 2678DPPC   C3B53831   7.780  18.046  25.452 -0.3027 -0.0471 -0.2724
 2678DPPC   C4B53832   7.536  18.222  25.133  0.1642  0.0050  0.1340
 2679DPPC   NC353833  11.181   8.414  18.141  0.3133  0.0142  0.0538
 2679DPPC   PO453834  11.267   8.057  18.294 -0.0515 -0.2035  0.1156
 2679DPPC   GL153835  11.373   8.367  18.582 -0.0432  0.2519  0.1006
 2679DPPC   GL253836  11.154   8.340  18.706  0.3101  0.3818 -0.2592
 2679DPPC   C1A53837  11.512   8.692  18.812  0.0813  0.1003 -0.0224
 2679DPPC   C2A53838  11.892   8.846  18.943 -0.0837 -0.0929  0.1319
 2679DPPC   C3A53839  12.107   8.916  19.214  0.1995 -0.2270  0.0382
 2679DPPC   C4A53840  12.008   9.187  19.479  0.2681  0.0787  0.3273
 2679DPPC   C1B53841  11.219   8.417  19.131  0.1177 -0.2438  0.0500
 2679DPPC   C2B53842  11.553   8.743  19.342  0.1666 -0.1543  0.1349
 2679DPPC   C3B53843  11.706   8.933  19.764 -0.1311  0.2296 -0.0599
 2679DPPC   C4B53844  11.795   8.937  20.183  0.0507 -0.0965 -0.1396
 2680DPPC   NC353845  20.514  22.126  22.614  0.1356 -0.3167  0.0446
 2680DPPC   PO453846  20.518  22.226  23.073 -0.1701  0.3569 -0.0072
 2680DPPC   GL153847  20.559  21.812  23.275 -0.0792 -0.3314  0.1321
 2680DPPC   GL253848  20.412  21.808  23.545  0.1291  0.0311  0.0622
 2680DPPC   C1A53849  20.429  21.375  23.227  0.2231  0.1273 -0.0244
 2680DPPC   C2A53850  20.186  21.009  23.340 -0.0719 -0.1106  0.2835
 2680DPPC   C3A53851  20.012  20.727  23.586  0.2208 -0.0236 -0.1017
 2680DPPC   C4A53852  20.042  20.342  23.554 -0.0242 -0.0463  0.2383
 2680DPPC   C1B53853  20.015  21.586  23.422  0.0853 -0.1917  0.1681
 2680DPPC   C2B53854  19.749  21.308  23.437  0.2993 -0.0242 -0.0118
 2680DPPC   C3B53855  19.557  20.987  23.240  0.2063  0.1920 -0.3580
 2680DPPC   C4B53856  19.120  20.871  23.179  0.0560  0.0223  0.2435
 2681DPPC   NC353857  20.009  14.471  42.778 -0.1487 -0.1026 -0.1100
 2681DPPC   PO453858  19.984  14.872  42.485 -0.3565 -0.0777  0.2046
 2681DPPC   GL153859  19.859  14.894  42.136 -0.0374  0.1618  0.2174
 2681DPPC   GL253860  20.049  15.227  42.109  0.0840  0.2312  0.2306
 2681DPPC   C1A53861  19.820  14.671  41.711 -0.2228  0.6872 -0.4725
 2681DPPC   C2A53862  19.781  14.278  41.463  0.2838  0.0215 -0.0301
 2681DPPC   C3A53863  19.701  14.110  41.085  0.2717 -0.2365  0.0423
 2681DPPC   C4A53864  19.444  14.170  40.730 -0.1915  0.1799  0.0189
 2681DPPC   C1B53865  19.806  15.349  41.750 -0.2430  0.3247  0.1584
 2681DPPC   C2B53866  19.727  15.093  41.399 -0.2136  0.3448 -0.2997
 2681DPPC   C3B53867  19.673  14.687  41.199  0.0489  0.2530 -0.0297
 2681DPPC   C4B53868  19.329  14.643  40.824  0.2193 -0.0414 -0.0154
 2682DPPC   NC353869   8.525  23.542  29.624 -0.2482 -0.4989  0.0046
 2682DPPC   PO453870   8.825  23.822  29.375 -0.0525 -0.1128  0.0575
 2682DPPC   GL153871   8.990  23.760  29.736 -0.3215  0.1181  0.1326
 2682DPPC   GL253872   9.030  23.395  29.759  0.1380  0.0798  0.1817
 2682DPPC   C1A53873   9.420  23.625  29.997  0.0008 -0.4411  0.1407
 2682DPPC   C2A53874   9.608  23.226  30.075 -0.1450  0.1126 -0.0493
 2682DPPC   C3A53875   9.824  22.868  30.101 -0.1340  0.0798 -0.0976
 2682DPPC   C4A53876   9.983  22.520  30.145 -0.1183  0.0172  0.1519
 2682DPPC   C1B53877   9.355  23.213  29.630 -0.4244 -0.1595  0.3067
 2682DPPC   C2B53878   9.855  23.089  29.649 -0.1656  0.0229  0.1484
 2682DPPC   C3B53879  10.113  22.678  29.686 -0.0510 -0.0013  0.0639
 2682DPPC   C4B53880  10.308  22.289  29.886 -0.0265 -0.1817  0.0536
 2683DPPC   NC353881  19.730  15.114  27.338  0.1161  0.2756 -0.0170
 2683DPPC   PO453882  20.060  14.868  27.168  0.1856  0.3860  0.1373
 2683DPPC   GL153883  19.726  14.843  26.840 -0.0411 -0.1301 -0.0267
 2683DPPC   GL253884  19.925  14.868  26.494 -0.0374 -0.3327 -0.0374
 2683DPPC   C1A53885  19.435  14.611  26.509 -0.0483 -0.2047  0.3542
 2683DPPC   C2A53886  19.113  14.673  26.214  0.4234 -0.1305 -0.4130
 2683DPPC   C3A53887  19.078  14.979  25.947 -0.0598  0.0345 -0.0717
 2683DPPC   C4A53888  19.168  15.292  25.639 -0.0654  0.0425  0.0724
 2683DPPC   C1B53889  20.011  15.061  26.155  0.0952 -0.0658  0.0319
 2683DPPC   C2B53890  20.029  15.392  25.818 -0.0300 -0.0306  0.0753
 2683DPPC   C3B53891  20.181  15.756  25.661  0.0840  0.1718  0.0368
 2683DPPC   C4B53892  20.367  15.951  25.406 -0.0831  0.0252 -0.1832
 2684DPPC   NC353893   8.572  15.165  35.226 -0.0131  0.0922 -0.1838
 2684DPPC   PO453894   8.643  15.480  35.089  0.1517 -0.0715 -0.1930
 2684DPPC   GL153895   8.179  15.407  35.160  0.1374 -0.0560 -0.2554
 2684DPPC   GL253896   8.083  15.112  35.316 -0.1509 -0.0714  0.0678
 2684DPPC   C1A53897   7.765  15.586  35.222 -0.1114  0.4695  0.0491
 2684DPPC   C2A53898   7.465  15.687  35.463  0.3211 -0.1173 -0.0701
 2684DPPC   C3A53899   7.153  15.956  35.604  0.2150 -0.1148 -0.2789
 2684DPPC   C4A53900   6.910  16.311  35.881 -0.0186  0.2556  0.0500
 2684DPPC   C1B53901   7.746  15.244  35.613 -0.2276 -0.1512 -0.2479
 2684DPPC   C2B53902   7.329  15.146  35.463 -0.0177  0.0458 -0.0925
 2684DPPC   C3B53903   7.004  15.302  35.476  0.1566 -0.0769 -0.0683
 2684DPPC   C4B53904   6.781  15.618  35.611 -0.1172 -0.3622  0.2912
 2685DPPC   NC353905  10.591   6.841  26.431 -0.0722 -0.1988 -0.0508
 2685DPPC   PO453906  10.566   6.667  26.710  0.3608  0.1536 -0.2307
 2685DPPC   GL153907  10.294   6.283  26.544  0.1277 -0.1989  0.2080
 2685DPPC   GL253908  10.283   6.090  26.868  0.2019 -0.1808  0.2727
 2685DPPC   C1A53909  10.022   5.982  26.277 -0.0599 -0.0528 -0.1095
 2685DPPC   C2A53910   9.887   5.683  25.921  0.0136  0.2035 -0.1070
 2685DPPC   C3A53911   9.732   5.429  25.643 -0.1701 -0.2996 -0.1637
 2685DPPC   C4A53912   9.407   5.008  25.611 -0.2350 -0.1053 -0.0079
 2685DPPC   C1B53913   9.807   5.989  26.833  0.1884  0.2319 -0.1097
 2685DPPC   C2B53914   9.504   5.772  26.814 -0.2304  0.0819 -0.0060
 2685DPPC   C3B53915   9.143   5.647  26.801 -0.2421 -0.0966  0.0871
 2685DPPC   C4B53916   9.462   5.262  26.675  0.0284  0.3792  0.0540
 2686DPPC   NC353917   8.910  15.193  25.298 -0.0857 -0.0155  0.3655
 2686DPPC   PO453918   9.306  15.514  25.442  0.2314  0.3032 -0.1420
 2686DPPC   GL153919   8.767  15.718  25.372 -0.0851  0.0708 -0.3458
 2686DPPC   GL253920   8.637  16.032  25.336  0.4131  0.0008  0.4381
 2686DPPC   C1A53921   8.337  15.656  25.178 -0.2730 -0.3431  0.4272
 2686DPPC   C2A53922   7.978  15.742  24.950 -0.0162  0.2723  0.0690
 2686DPPC   C3A53923   7.822  16.010  24.647  0.3127  0.0166 -0.1433
 2686DPPC   C4A53924   7.514  16.173  24.327 -0.1019 -0.0394  0.2790
 2686DPPC   C1B53925   8.390  16.403  25.382  0.1739  0.1667  0.0326
 2686DPPC   C2B53926   8.037  16.571  25.202 -0.2247 -0.1031 -0.1889
 2686DPPC   C3B53927   7.849  16.910  25.007 -0.0096  0.1869  0.1159
 2686DPPC   C4B53928   7.724  17.318  24.991  0.0115 -0.0071  0.1275
 2687DPPC   NC353929  11.283  15.176  37.774 -0.1248  0.3472 -0.4165
 2687DPPC   PO453930  11.548  15.397  38.122  0.2287  0.0764 -0.5225
 2687DPPC   GL153931  11.273  15.525  38.403  0.0034  0.0254 -0.3043
 2687DPPC   GL253932  11.316  15.818  38.513 -0.0521 -0.1172 -0.1767
 2687DPPC   C1A53933  10.914  15.423  38.648 -0.0145  0.1032 -0.1120
 2687DPPC   C2A53934  10.628  15.607  38.849 -0.2710  0.0478 -0.1749
 2687DPPC   C3A53935  10.343  15.804  39.021  0.1760  0.0688 -0.1449
 2687DPPC   C4A53936  10.064  16.213  38.851  0.0672  0.2779 -0.0058
 2687DPPC   C1B53937  11.026  15.909  38.769  0.0491 -0.1973 -0.2395
 2687DPPC   C2B53938  10.857  15.994  39.140  0.1809 -0.1077 -0.2275
 2687DPPC   C3B53939  11.052  16.074  39.483  0.0368 -0.1381 -0.0082
 2687DPPC   C4B53940  10.957  15.897  39.885  0.2551  0.0201 -0.1778
 2688DPPC   NC353941  19.501  11.474  38.831  0.1838 -0.1402 -0.3173
 2688DPPC   PO453942  19.454  11.713  39.093  0.0303 -0.1483 -0.2639
 2688DPPC   GL153943  19.573  11.754  39.546  0.3037 -0.0820 -0.0061
 2688DPPC   GL253944  19.912  11.779  39.652  0.2396 -0.0413  0.2550
 2688DPPC   C1A53945  19.365  11.956  39.937  0.0393 -0.1032  0.0096
 2688DPPC   C2A53946  18.987  11.782  40.195 -0.1144 -0.2497  0.1428
 2688DPPC   C3A53947  18.704  11.444  40.190 -0.2293 -0.1058  0.1756
 2688DPPC   C4A53948  18.504  11.461  40.579 -0.0411  0.2645  0.1479
 2688DPPC   C1B53949  19.834  11.732  40.069 -0.2247  0.0047 -0.2007
 2688DPPC   C2B53950  19.739  12.026  40.440  0.2614  0.2142  0.0178
 2688DPPC   C3B53951  19.664  11.884  40.841  0.0096  0.1140 -0.2626
 2688DPPC   C4B53952  19.424  12.059  41.202  0.2982  0.1803  0.1312
 2689DPPC   NC353953   7.949  12.856  27.607 -0.5786 -0.2243 -0.0493
 2689DPPC   PO453954   7.944  13.310  27.697  0.0069  0.2716  0.2236
 2689DPPC   GL153955   7.532  13.160  27.725  0.3001 -0.2557 -0.0428
 2689DPPC   GL253956   7.479  12.932  27.432 -0.3015  0.2108  0.0800
 2689DPPC   C1A53957   7.167  12.837  27.736  0.2066 -0.0891 -0.0849
 2689DPPC   C2A53958   6.741  12.673  27.544 -0.0178  0.0920  0.0669
 2689DPPC   C3A53959   6.370  12.662  27.470  0.0198 -0.0506 -0.0837
 2689DPPC   C4A53960   5.951  12.567  27.577 -0.3134  0.0316 -0.0759
 2689DPPC   C1B53961   7.055  12.896  27.183  0.0413 -0.0059  0.0843
 2689DPPC   C2B53962   6.683  12.747  26.952 -0.3443 -0.2477 -0.2230
 2689DPPC   C3B53963   6.258  12.530  27.025  0.1973  0.0285  0.1850
 2689DPPC   C4B53964   5.781  12.593  27.133 -0.0096  0.0104 -0.0591
 2690DPPC   NC353965   6.440  14.670  20.916  0.3426  0.0100  0.2005
 2690DPPC   PO453966   6.674  14.979  20.852  0.0833 -0.0577 -0.1850
 2690DPPC   GL153967   7.083  14.956  21.020  0.2999 -0.0663  0.2297
 2690DPPC   GL253968   7.271  14.982  20.728  0.2641  0.2625 -0.0344
 2690DPPC   C1A53969   7.370  14.820  21.286  0.1974  0.3695  0.0380
 2690DPPC   C2A53970   7.649  14.802  21.596  0.0663 -0.1621  0.1039
 2690DPPC   C3A53971   7.959  14.422  21.612 -0.0348  0.1200  0.1005
 2690DPPC   C4A53972   8.321  14.332  21.273 -0.2647  0.0112  0.2008
 2690DPPC   C1B53973   7.430  14.532  20.850  0.0728  0.3392  0.3671
 2690DPPC   C2B53974   7.781  14.222  21.017  0.3833  0.2331 -0.1308
 2690DPPC   C3B53975   7.971  13.965  21.318  0.1944 -0.0234 -0.0667
 2690DPPC   C4B53976   8.223  13.990  21.708 -0.2203  0.1654  0.4266
 2691DPPC   NC353977  17.268   9.958  24.276  0.2139  0.0198 -0.0938
 2691DPPC   PO453978  17.198  10.081  24.622 -0.0324 -0.1869 -0.1097
 2691DPPC   GL153979  17.059  10.510  24.843 -0.0897 -0.0922 -0.0839
 2691DPPC   GL253980  16.794  10.677  24.728 -0.0155  0.0838  0.0782
 2691DPPC   C1A53981  17.068  10.958  25.028 -0.2994  0.2064  0.1585
 2691DPPC   C2A53982  17.272  11.183  24.771 -0.1446 -0.0254  0.0168
 2691DPPC   C3A53983  17.649  11.498  24.725 -0.1884  0.1460  0.1117
 2691DPPC   C4A53984  17.994  11.794  24.761 -0.0575 -0.0006 -0.1718
 2691DPPC   C1B53985  16.605  10.789  25.094 -0.1477  0.0495 -0.0871
 2691DPPC   C2B53986  16.620  10.940  25.623 -0.0271 -0.0794 -0.1661
 2691DPPC   C3B53987  16.695  10.985  26.163 -0.1660 -0.0818  0.3637
 2691DPPC   C4B53988  17.013  11.095  26.446 -0.0168  0.1948 -0.1820
 2692DPPC   NC353989  14.239   9.818  21.556 -0.1235  0.0986  0.0325
 2692DPPC   PO453990  14.012   9.771  21.104 -0.4282  0.0496 -0.4205
 2692DPPC   GL153991  13.804   9.684  20.781  0.0098 -0.2214 -0.0746
 2692DPPC   GL253992  13.564   9.484  20.896  0.1996  0.3480  0.0103
 2692DPPC   C1A53993  13.644   9.771  20.415  0.1708 -0.3881  0.0007
 2692DPPC   C2A53994  13.445   9.764  20.088 -0.2934 -0.1669 -0.0511
 2692DPPC   C3A53995  13.407   9.982  19.667  0.0066 -0.1593  0.3351
 2692DPPC   C4A53996  13.371  10.308  19.367  0.1955  0.3103 -0.3352
 2692DPPC   C1B53997  13.229   9.558  20.550  0.2241  0.0916  0.0574
 2692DPPC   C2B53998  12.913   9.363  20.296 -0.3545  0.1594 -0.3341
 2692DPPC   C3B53999  12.643   9.152  19.994 -0.0149  0.0522  0.1129
 2692DPPC   C4B54000  12.251   9.068  19.983  0.1128 -0.0752  0.1269
 2693DPPC   NC354001  21.928  10.437  42.564  0.1677 -0.0667 -0.0481
 2693DPPC   PO454002  22.094  10.410  42.166 -0.1767  0.0771  0.1969
 2693DPPC   GL154003  21.760  10.675  42.028 -0.3227 -0.3529 -0.1048
 2693DPPC   GL254004  21.448  10.548  42.169 -0.4386  0.0223  0.0978
 2693DPPC   C1A54005  21.564  10.959  41.776  0.2333  0.1011  0.2527
 2693DPPC   C2A54006  21.242  10.956  41.448 -0.0435 -0.1771  0.2381
 2693DPPC   C3A54007  21.533  11.039  41.153 -0.0974  0.0304  0.2802
 2693DPPC   C4A54008  21.367  11.246  40.761 -0.1287  0.0778 -0.0505
 2693DPPC   C1B54009  21.142  10.608  41.824 -0.3050 -0.0664 -0.0199
 2693DPPC   C2B54010  20.904  10.540  41.491 -0.0643  0.1252 -0.0082
 2693DPPC   C3B54011  20.724  10.396  41.099 -0.2324 -0.0870 -0.2023
 2693DPPC   C4B54012  20.289  10.528  41.059 -0.1075 -0.0637  0.0576
 2694DPPC   NC354013   8.087  15.330  27.235 -0.1176  0.1364 -0.1170
 2694DPPC   PO454014   8.211  15.296  26.704  0.0372  0.2150  0.3923
 2694DPPC   GL154015   7.828  15.529  26.841 -0.1069  0.0668  0.2315
 2694DPPC   GL254016   7.616  15.367  26.673  0.1162 -0.2669 -0.2435
 2694DPPC   C1A54017   7.333  15.771  26.723 -0.0547 -0.3713  0.0422
 2694DPPC   C2A54018   7.059  16.001  26.501 -0.1471 -0.1242 -0.1499
 2694DPPC   C3A54019   6.848  16.050  26.108 -0.1771  0.1768  0.0478
 2694DPPC   C4A54020   6.677  15.884  25.733  0.1150 -0.0697 -0.2629
 2694DPPC   C1B54021   7.474  15.717  26.260  0.0928 -0.2246  0.0165
 2694DPPC   C2B54022   7.501  16.115  26.224  0.1280  0.0761  0.3145
 2694DPPC   C3B54023   7.197  16.372  25.951 -0.0222 -0.3637  0.1503
 2694DPPC   C4B54024   6.759  16.607  26.010 -0.2221 -0.1892 -0.1808
 2695DPPC   NC354025  22.806  11.072  16.259 -0.1698  0.2021 -0.1681
 2695DPPC   PO454026  22.980  11.448  16.320 -0.0204  0.0409 -0.1025
 2695DPPC   GL154027  22.753  11.309  16.660 -0.1304  0.2422 -0.0853
 2695DPPC   GL254028  22.518  11.455  16.563 -0.1221  0.2296 -0.2728
 2695DPPC   C1A54029  22.691  11.455  17.105  0.0791  0.4005  0.1621
 2695DPPC   C2A54030  22.999  11.728  17.308  0.0153  0.0109  0.1566
 2695DPPC   C3A54031  23.188  12.101  17.507 -0.0350  0.1079  0.0542
 2695DPPC   C4A54032  23.108  12.472  17.445 -0.0175  0.0927 -0.1296
 2695DPPC   C1B54033  22.300  11.265  16.875  0.2292 -0.0813 -0.0375
 2695DPPC   C2B54034  22.012  11.093  17.226 -0.1756 -0.0334  0.0431
 2695DPPC   C3B54035  21.983  11.051  17.653 -0.1135  0.2079  0.0838
 2695DPPC   C4B54036  22.055  10.973  18.083 -0.1807  0.3416 -0.1370
 2696DPPC   NC354037  23.224  10.266  25.890 -0.0770 -0.0661  0.2014
 2696DPPC   PO454038  23.321  10.494  26.254 -0.0500  0.1402 -0.2884
 2696DPPC   GL154039  23.526  10.894  26.197  0.3371 -0.1914 -0.0513
 2696DPPC   GL254040  23.774  10.687  26.063 -0.0926  0.1137  0.1185
 2696DPPC   C1A54041  23.919  11.122  26.314 -0.0458 -0.3426  0.1844
 2696DPPC   C2A54042  24.350  11.181  26.358  0.0883  0.2355  0.0143
 2696DPPC   C3A54043  24.772  11.350  26.434 -0.3152 -0.0031 -0.1414
 2696DPPC   C4A54044  25.030  11.459  26.215  0.0735  0.0918  0.1414
 2696DPPC   C1B54045  24.110  10.584  25.739  0.3061 -0.0701  0.4848
 2696DPPC   C2B54046  24.560  10.459  25.603 -0.0050  0.3854 -0.1031
 2696DPPC   C3B54047  24.947  10.488  25.487  0.1618  0.0807 -0.0629
 2696DPPC   C4B54048  25.409  10.589  25.462  0.0705 -0.1329 -0.1553
 2697DPPC   NC354049  21.421   8.355  42.758  0.2059 -0.0553  0.2770
 2697DPPC   PO454050  21.574   8.021  42.532 -0.4551  0.0965 -0.0466
 2697DPPC   GL154051  21.357   8.272  42.256  0.1335 -0.1554 -0.1350
 2697DPPC   GL254052  21.010   8.227  42.354 -0.0198 -0.1054  0.3725
 2697DPPC   C1A54053  20.999   8.458  41.943  0.0455  0.0603 -0.0650
 2697DPPC   C2A54054  20.669   8.622  41.895  0.2365 -0.0102 -0.0607
 2697DPPC   C3A54055  20.299   8.808  42.037  0.2736  0.0991 -0.1901
 2697DPPC   C4A54056  19.923   8.848  42.168  0.0216 -0.0099 -0.0805
 2697DPPC   C1B54057  20.569   8.245  42.166 -0.1341  0.0260 -0.2563
 2697DPPC   C2B54058  20.074   8.199  42.115  0.1721  0.0602 -0.1324
 2697DPPC   C3B54059  19.709   8.412  41.991 -0.0186 -0.0386  0.0960
 2697DPPC   C4B54060  19.604   8.795  41.703 -0.0157  0.1048  0.2807
 2698DPPC   NC354061   8.014  16.021  31.626 -0.2155  0.0765 -0.3219
 2698DPPC   PO454062   7.547  16.012  31.520 -0.4345  0.2756 -0.0214
 2698DPPC   GL154063   7.216  16.248  31.654  0.2457 -0.0020 -0.1716
 2698DPPC   GL254064   7.221  16.313  31.953 -0.2499  0.2494 -0.2014
 2698DPPC   C1A54065   6.859  16.563  31.503  0.1648  0.1682  0.0757
 2698DPPC   C2A54066   6.449  16.654  31.404  0.0771  0.0590 -0.1172
 2698DPPC   C3A54067   6.111  16.407  31.478 -0.1387  0.2977  0.3089
 2698DPPC   C4A54068   5.847  16.185  31.306  0.1921 -0.1070 -0.1246
 2698DPPC   C1B54069   6.814  16.314  32.203  0.2099 -0.1401 -0.3397
 2698DPPC   C2B54070   6.438  16.508  32.392  0.1500 -0.1701  0.0315
 2698DPPC   C3B54071   5.973  16.737  32.390 -0.0290 -0.0007 -0.1250
 2698DPPC   C4B54072   5.821  17.111  32.328  0.3351  0.1861 -0.1012
 2699DPPC   NC354073   5.975   5.218  30.925 -0.2116  0.2625 -0.4820
 2699DPPC   PO454074   6.144   5.175  31.318  0.3024  0.0355 -0.4626
 2699DPPC   GL154075   6.468   5.435  31.201 -0.1097 -0.0461  0.2869
 2699DPPC   GL254076   6.714   5.337  30.905  0.1941 -0.0701  0.2245
 2699DPPC   C1A54077   6.761   5.541  31.476 -0.5715  0.1246 -0.2019
 2699DPPC   C2A54078   7.066   5.789  31.749  0.2339 -0.0632  0.0147
 2699DPPC   C3A54079   7.147   6.033  31.980  0.1686  0.1779  0.2308
 2699DPPC   C4A54080   7.360   6.380  32.031  0.0498  0.1726  0.2867
 2699DPPC   C1B54081   6.830   5.679  30.656 -0.4390  0.3817 -0.6283
 2699DPPC   C2B54082   6.793   6.078  30.617 -0.0915  0.0011  0.2398
 2699DPPC   C3B54083   7.013   6.362  30.432 -0.0691 -0.0234 -0.5112
 2699DPPC   C4B54084   7.187   6.306  30.133 -0.2033  0.2513  0.2788
 2700DPPC   NC354085   7.717  12.814  33.367  0.0060  0.1527 -0.0159
 2700DPPC   PO454086   7.674  13.175  33.190 -0.0294 -0.0287 -0.0277
 2700DPPC   GL154087   7.431  13.397  33.549 -0.0235 -0.2715  0.1488
 2700DPPC   GL254088   7.254  13.443  33.384  0.0123  0.0002  0.2055
 2700DPPC   C1A54089   7.256  13.578  33.952  0.2463  0.0297  0.0006
 2700DPPC   C2A54090   6.933  13.704  34.136 -0.0178 -0.1655 -0.0998
 2700DPPC   C3A54091   6.530  13.723  34.252  0.0504 -0.0917 -0.1103
 2700DPPC   C4A54092   6.132  13.772  34.202 -0.0688 -0.4286  0.0327
 2700DPPC   C1B54093   6.919  13.704  33.659 -0.0847 -0.1437 -0.1156
 2700DPPC   C2B54094   6.521  14.025  33.817  0.1797  0.2527  0.2324
 2700DPPC   C3B54095   6.204  14.195  33.962 -0.3238  0.1402  0.0878
 2700DPPC   C4B54096   5.977  14.497  34.105 -0.1274  0.0118  0.0353
 2701DPPC   NC354097  12.558  10.860  15.892 -0.4604  0.1940  0.0698
 2701DPPC   PO454098  12.764  11.197  16.096 -0.3089  0.0959  0.1380
 2701DPPC   GL154099  13.146  11.110  16.424  0.0994 -0.0344 -0.0584
 2701DPPC   GL254100  13.028  11.308  16.591 -0.0752 -0.0493 -0.0374
 2701DPPC   C1A54101  13.279  10.734  16.570  0.0954  0.3331 -0.0886
 2701DPPC   C2A54102  13.654  10.493  16.741  0.2504 -0.0365  0.1023
 2701DPPC   C3A54103  13.892  10.699  16.967 -0.1587 -0.1862  0.2456
 2701DPPC   C4A54104  14.177  11.000  16.785 -0.1539  0.0447 -0.1635
 2701DPPC   C1B54105  13.040  10.996  16.951  0.1532  0.2231 -0.1895
 2701DPPC   C2B54106  13.243  11.105  17.320 -0.1728 -0.2116 -0.2458
 2701DPPC   C3B54107  13.520  10.994  17.642  0.0264 -0.0648  0.1072
 2701DPPC   C4B54108  13.742  10.709  17.919 -0.5954  0.1096  0.0695
 2702DPPC   NC354109  11.684  19.919  34.130  0.3232 -0.0446  0.0095
 2702DPPC   PO454110  11.688  19.855  34.610 -0.2129 -0.0200 -0.0982
 2702DPPC   GL154111  11.366  20.261  34.634 -0.1183  0.1378 -0.0557
 2702DPPC   GL254112  11.556  20.494  34.439 -0.2049  0.2127 -0.0379
 2702DPPC   C1A54113  11.199  20.616  34.785 -0.5124 -0.1487  0.3752
 2702DPPC   C2A54114  11.109  20.891  35.156 -0.0211  0.1577  0.2710
 2702DPPC   C3A54115  10.822  21.139  35.257 -0.2339 -0.2277  0.3233
 2702DPPC   C4A54116  10.701  21.533  35.298  0.0115 -0.0204 -0.0850
 2702DPPC   C1B54117  11.353  20.955  34.399  0.1782  0.0399  0.1905
 2702DPPC   C2B54118  11.224  21.322  34.696 -0.0416 -0.0657 -0.1110
 2702DPPC   C3B54119  10.896  21.570  34.789  0.0455  0.0130  0.2410
 2702DPPC   C4B54120  10.856  22.039  34.939  0.1956  0.4839  0.1840
 2703DPPC   NC354121  17.880   0.235  30.774 -0.0150 -0.0270  0.0218
 2703DPPC   PO454122  18.218   0.187  30.396 -0.0261  0.1186  0.2405
 2703DPPC   GL154123  18.161   0.580  30.323  0.1802 -0.2007 -0.2638
 2703DPPC   GL254124  17.978   0.667  29.977  0.1681 -0.2130 -0.1060
 2703DPPC   C1A54125  18.071   1.067  30.374 -0.2921  0.2307  0.2648
 2703DPPC   C2A54126  18.103   1.175  29.934  0.0209  0.1590  0.0707
 2703DPPC   C3A54127  18.195   1.482  29.696  0.0470 -0.2783 -0.2752
 2703DPPC   C4A54128  18.012   1.758  29.803 -0.0731  0.0074  0.1942
 2703DPPC   C1B54129  17.995   0.830  29.493  0.0136  0.0103  0.0169
 2703DPPC   C2B54130  18.087   1.253  29.156  0.0946 -0.0680 -0.3416
 2703DPPC   C3B54131  18.037   1.661  28.910  0.2303  0.1171  0.2708
 2703DPPC   C4B54132  18.037   1.978  28.961 -0.0014  0.2250 -0.0785
 2704DPPC   NC354133   4.514  19.725  32.788 -0.3147  0.1788 -0.0442
 2704DPPC   PO454134   4.157  19.417  32.833 -0.0340  0.1817  0.1925
 2704DPPC   GL154135   4.394  18.981  32.613  0.0729  0.0011  0.1622
 2704DPPC   GL254136   4.519  18.648  32.668  0.1200  0.1376  0.3841
 2704DPPC   C1A54137   4.715  18.769  32.248  0.1265  0.1130 -0.3427
 2704DPPC   C2A54138   5.158  18.544  32.338  0.1343 -0.0068  0.4027
 2704DPPC   C3A54139   5.421  18.211  32.265  0.0206 -0.0235  0.0374
 2704DPPC   C4A54140   5.487  17.786  32.074  0.3283  0.0334 -0.3370
 2704DPPC   C1B54141   4.899  18.954  32.666 -0.0014  0.0489  0.0559
 2704DPPC   C2B54142   5.326  19.003  32.403 -0.0936  0.0887  0.1979
 2704DPPC   C3B54143   5.376  18.867  31.996  0.0572 -0.2464 -0.3437
 2704DPPC   C4B54144   5.412  18.827  31.584  0.2098  0.0780 -0.1024
 2705DPPC   NC354145  22.075   7.917  33.014  0.0321  0.2453  0.1536
 2705DPPC   PO454146  22.395   7.969  33.074  0.3157 -0.1066  0.1821
 2705DPPC   GL154147  22.824   7.818  33.104  0.0088 -0.0601 -0.1651
 2705DPPC   GL254148  22.772   7.559  33.087 -0.0302  0.2128 -0.4691
 2705DPPC   C1A54149  23.234   7.886  33.198  0.4037  0.1251 -0.0073
 2705DPPC   C2A54150  23.521   7.629  33.269  0.0365  0.1847  0.2445
 2705DPPC   C3A54151  23.702   7.218  33.481 -0.1337  0.1105  0.0859
 2705DPPC   C4A54152  24.087   6.988  33.681 -0.0967 -0.1162  0.0624
 2705DPPC   C1B54153  23.120   7.517  32.846 -0.0899  0.3324 -0.0127
 2705DPPC   C2B54154  23.544   7.192  32.864 -0.0521 -0.1035  0.1402
 2705DPPC   C3B54155  23.520   6.745  32.951  0.2281 -0.0880 -0.1659
 2705DPPC   C4B54156  23.499   6.346  32.734  0.0510  0.2911  0.0105
 2706DPPC   NC354157  16.410   5.580  33.707  0.2163  0.3133  0.0355
 2706DPPC   PO454158  16.185   5.257  33.506 -0.0949 -0.0588 -0.1659
 2706DPPC   GL154159  16.314   4.766  33.555  0.1881  0.5899  0.2036
 2706DPPC   GL254160  16.671   4.602  33.521 -0.1654  0.1431  0.0712
 2706DPPC   C1A54161  16.294   4.275  33.524 -0.0759  0.0323 -0.1740
 2706DPPC   C2A54162  16.355   3.842  33.612 -0.1632 -0.0516  0.1979
 2706DPPC   C3A54163  16.509   3.449  33.670  0.4673  0.0117 -0.3149
 2706DPPC   C4A54164  16.572   2.992  33.814 -0.1111  0.2127  0.1214
 2706DPPC   C1B54165  16.846   4.224  33.779 -0.3478 -0.2255 -0.1578
 2706DPPC   C2B54166  16.934   3.868  33.871  0.1426 -0.2930 -0.3532
 2706DPPC   C3B54167  16.912   3.445  33.986  0.3702 -0.2783  0.0872
 2706DPPC   C4B54168  17.063   3.019  33.984  0.3511  0.1229  0.1136
 2707DPPC   NC354169  16.522  10.173  39.895  0.0274 -0.1876 -0.1301
 2707DPPC   PO454170  16.821  10.416  39.678 -0.0387  0.0547 -0.0486
 2707DPPC   GL154171  16.974  10.569  40.070 -0.1715  0.0259  0.1670
 2707DPPC   GL254172  16.742  10.683  40.161 -0.0542 -0.1814 -0.0796
 2707DPPC   C1A54173  17.157  10.737  40.464 -0.0467 -0.2071 -0.0847
 2707DPPC   C2A54174  17.146  11.012  40.828  0.1534  0.3408 -0.2267
 2707DPPC   C3A54175  17.055  10.896  41.318  0.5019 -0.1428  0.0491
 2707DPPC   C4A54176  16.885  10.922  41.743 -0.0907 -0.1340 -0.1946
 2707DPPC   C1B54177  16.811  10.470  40.586  0.0750  0.0497 -0.1861
 2707DPPC   C2B54178  16.489  10.433  41.001  0.3153  0.0897 -0.0561
 2707DPPC   C3B54179  16.408  10.238  41.333  0.2816  0.0075  0.1401
 2707DPPC   C4B54180  16.296   9.785  41.488 -0.2165 -0.0171  0.3798
 2708DPPC   NC354181  10.683  16.411  23.346  0.0686 -0.1743  0.2171
 2708DPPC   PO454182  10.773  16.570  22.983 -0.1011 -0.2727  0.0208
 2708DPPC   GL154183  10.656  16.830  22.681  0.1921  0.2972 -0.1477
 2708DPPC   GL254184  10.871  17.047  22.647 -0.2155  0.0756  0.3109
 2708DPPC   C1A54185  10.545  16.839  22.296  0.0966 -0.4454 -0.0601
 2708DPPC   C2A54186  10.277  17.072  22.018 -0.1772 -0.0899  0.0232
 2708DPPC   C3A54187  10.161  17.012  21.631  0.1197 -0.0225 -0.3155
 2708DPPC   C4A54188   9.992  16.763  21.344  0.0745  0.1202 -0.0017
 2708DPPC   C1B54189  10.714  17.288  22.284 -0.1104 -0.3969 -0.0734
 2708DPPC   C2B54190  10.610  17.421  21.888 -0.0152  0.1457 -0.2063
 2708DPPC   C3B54191  10.576  17.261  21.440 -0.3972 -0.1090  0.1527
 2708DPPC   C4B54192  10.347  17.150  21.105  0.0823  0.0664  0.0867
 2709DPPC   NC354193  16.230  18.998  36.273 -0.1193  0.0295  0.1026
 2709DPPC   PO454194  16.439  18.649  36.489 -0.0963  0.0802 -0.0513
 2709DPPC   GL154195  16.433  18.928  36.878  0.0156 -0.3381  0.0435
 2709DPPC   GL254196  16.841  19.161  36.946 -0.1235 -0.0015  0.2030
 2709DPPC   C1A54197  16.377  19.215  37.160  0.3663 -0.6130  0.3157
 2709DPPC   C2A54198  16.311  19.273  37.590  0.0993 -0.2430  0.2497
 2709DPPC   C3A54199  16.271  19.561  37.805  0.0661 -0.1122  0.0181
 2709DPPC   C4A54200  16.095  19.904  38.139  0.1889 -0.0361 -0.0685
 2709DPPC   C1B54201  16.689  19.575  36.922 -0.0340 -0.0165 -0.0241
 2709DPPC   C2B54202  16.897  20.020  36.787 -0.0877 -0.2436 -0.3721
 2709DPPC   C3B54203  17.184  20.347  36.684 -0.0783 -0.2609  0.1827
 2709DPPC   C4B54204  17.569  20.540  36.679 -0.1172  0.2755  0.1961
 2710DPPC   NC354205   8.086  10.902  31.145 -0.2175  0.0838 -0.2908
 2710DPPC   PO454206   7.749  10.949  31.422 -0.4600 -0.0921  0.2058
 2710DPPC   GL154207   7.293  10.839  31.434 -0.4011 -0.1189  0.0690
 2710DPPC   GL254208   7.144  10.765  31.750  0.0953  0.2538 -0.1955
 2710DPPC   C1A54209   6.797  10.845  31.366 -0.0376 -0.2549 -0.2291
 2710DPPC   C2A54210   6.574  10.511  31.139 -0.1204  0.3382 -0.0560
 2710DPPC   C3A54211   6.322  10.487  30.805 -0.3767  0.0852 -0.1197
 2710DPPC   C4A54212   5.962  10.469  30.510 -0.0830  0.0179  0.0895
 2710DPPC   C1B54213   6.929  10.427  31.634  0.1658  0.0571 -0.0088
 2710DPPC   C2B54214   6.500  10.278  31.589  0.0232 -0.0816  0.0560
 2710DPPC   C3B54215   6.060  10.280  31.787  0.1642  0.0564  0.0331
 2710DPPC   C4B54216   5.829  10.562  31.918  0.1786  0.0711  0.1586
 2711DPPC   NC354217  17.350   7.644  43.302  0.1613  0.1351 -0.1195
 2711DPPC   PO454218  17.467   7.316  43.184 -0.1043 -0.1307  0.2003
 2711DPPC   GL154219  17.562   7.299  42.803  0.2287 -0.1183  0.1576
 2711DPPC   GL254220  17.353   7.440  42.677  0.0073  0.1827  0.2283
 2711DPPC   C1A54221  17.701   7.676  42.516  0.4382 -0.0225  0.3558
 2711DPPC   C2A54222  17.604   8.027  42.320 -0.1880  0.2293 -0.2757
 2711DPPC   C3A54223  17.688   8.360  42.424 -0.1370  0.3796 -0.1250
 2711DPPC   C4A54224  17.702   8.752  42.645 -0.2058  0.1694  0.1017
 2711DPPC   C1B54225  17.268   7.667  42.241 -0.3739  0.4626  0.1877
 2711DPPC   C2B54226  17.448   7.805  41.906  0.0047 -0.1689  0.0556
 2711DPPC   C3B54227  17.606   8.187  41.852  0.0043  0.2097  0.2521
 2711DPPC   C4B54228  17.656   8.518  41.978  0.0843  0.2669 -0.0423
 2712DPPC   NC354229  21.624  13.513  24.065  0.1775 -0.0959 -0.0702
 2712DPPC   PO454230  21.544  13.641  24.555  0.0278 -0.1104  0.0201
 2712DPPC   GL154231  21.931  13.955  24.652 -0.1796  0.0391 -0.1308
 2712DPPC   GL254232  22.153  13.759  24.475 -0.1014  0.3855  0.0556
 2712DPPC   C1A54233  22.062  14.415  24.671 -0.2768  0.3322  0.1200
 2712DPPC   C2A54234  22.225  14.773  24.908 -0.0297  0.2117  0.2274
 2712DPPC   C3A54235  22.119  15.229  24.963  0.0745  0.4147 -0.2064
 2712DPPC   C4A54236  21.860  15.449  25.204 -0.0072 -0.0508  0.1462
 2712DPPC   C1B54237  22.534  14.037  24.441 -0.2707  0.4776 -0.1252
 2712DPPC   C2B54238  22.590  14.537  24.472 -0.1178  0.0504 -0.2835
 2712DPPC   C3B54239  22.720  14.823  24.828 -0.1025  0.0584  0.0539
 2712DPPC   C4B54240  23.012  15.081  24.902 -0.4804  0.2192  0.2256
 2713DPPC   NC354241  22.975   7.366  40.385  0.0213  0.4061  0.0882
 2713DPPC   PO454242  23.231   7.200  40.055  0.0512 -0.0954  0.2652
 2713DPPC   GL154243  23.006   7.178  39.737 -0.1400  0.2431  0.0258
 2713DPPC   GL254244  22.724   6.944  39.680  0.0619 -0.2614 -0.0521
 2713DPPC   C1A54245  22.989   7.540  39.376  0.2592  0.1404 -0.0482
 2713DPPC   C2A54246  22.951   7.938  39.248 -0.2366  0.2311  0.1857
 2713DPPC   C3A54247  22.980   8.345  39.191 -0.2818 -0.0170 -0.4075
 2713DPPC   C4A54248  22.772   8.544  38.980  0.2986 -0.1908 -0.0439
 2713DPPC   C1B54249  22.524   7.145  39.491 -0.2955 -0.0276  0.2073
 2713DPPC   C2B54250  22.049   7.196  39.244  0.0070  0.0691 -0.2327
 2713DPPC   C3B54251  21.845   7.351  38.787  0.0429  0.0536 -0.4318
 2713DPPC   C4B54252  21.462   7.447  38.504  0.2517  0.0019 -0.1643
 2714DPPC   NC354253  16.767   0.114  27.226 -0.2113 -0.2990  0.3339
 2714DPPC   PO454254  16.560   0.151  26.767  0.0429 -0.0742  0.1372
 2714DPPC   GL154255  16.527   0.562  26.663 -0.1796 -0.0960 -0.2558
 2714DPPC   GL254256  16.702   0.615  26.985 -0.0381 -0.0148  0.0025
 2714DPPC   C1A54257  16.322   0.850  26.411  0.3542 -0.1569  0.0957
 2714DPPC   C2A54258  16.304   1.234  26.511 -0.1327 -0.4382  0.0031
 2714DPPC   C3A54259  16.096   1.696  26.508 -0.3737 -0.0189 -0.0852
 2714DPPC   C4A54260  16.135   2.051  26.793 -0.1379  0.0857  0.0333
 2714DPPC   C1B54261  16.633   1.108  27.079  0.3174 -0.0012  0.0867
 2714DPPC   C2B54262  16.242   1.276  27.016 -0.0804  0.3526  0.3348
 2714DPPC   C3B54263  15.938   1.575  27.074 -0.0131 -0.2113  0.1091
 2714DPPC   C4B54264  15.488   1.708  27.238 -0.1282  0.0689  0.0499
 2715DPPC   NC354265   9.932  19.911  20.407 -0.0211 -0.1238 -0.0059
 2715DPPC   PO454266  10.172  20.282  20.311  0.0592  0.2460 -0.1269
 2715DPPC   GL154267  10.376  20.023  20.622 -0.1621 -0.2274 -0.0374
 2715DPPC   GL254268  10.407  19.609  20.546  0.1936 -0.2147 -0.1864
 2715DPPC   C1A54269  10.674  19.845  20.860 -0.1262 -0.1845  0.0365
 2715DPPC   C2A54270  10.828  19.464  21.113  0.3375 -0.1020 -0.0468
 2715DPPC   C3A54271  11.302  19.341  21.309  0.1543  0.1858  0.0174
 2715DPPC   C4A54272  11.323  19.116  21.629 -0.0358  0.3080  0.1476
 2715DPPC   C1B54273  10.155  19.456  20.943  0.0452 -0.0980 -0.0751
 2715DPPC   C2B54274  10.126  19.547  21.247  0.0328 -0.1223 -0.2279
 2715DPPC   C3B54275  10.003  19.821  21.512 -0.1572  0.1026 -0.1179
 2715DPPC   C4B54276   9.526  19.942  21.702  0.0496  0.0652 -0.2481
 2716DPPC   NC354277   8.050   9.561  31.225  0.0192 -0.0361  0.0553
 2716DPPC   PO454278   7.723   9.863  31.219  0.0354  0.0209  0.3706
 2716DPPC   GL154279   7.305  10.083  31.268  0.1727 -0.1498 -0.0044
 2716DPPC   GL254280   7.234   9.783  31.045 -0.1987 -0.1805 -0.0291
 2716DPPC   C1A54281   6.915  10.032  31.332  0.2015  0.2074  0.1263
 2716DPPC   C2A54282   6.468  10.030  31.114 -0.3066  0.0730  0.0437
 2716DPPC   C3A54283   5.994  10.013  31.008  0.1621 -0.0036 -0.2165
 2716DPPC   C4A54284   5.667  10.235  31.010 -0.0022 -0.0851  0.1607
 2716DPPC   C1B54285   6.812   9.702  30.939 -0.0221 -0.2443 -0.0768
 2716DPPC   C2B54286   6.401   9.484  31.062 -0.1225 -0.1585  0.1399
 2716DPPC   C3B54287   6.287   9.131  30.772 -0.4333  0.0200 -0.2022
 2716DPPC   C4B54288   6.214   8.838  30.544  0.1204 -0.0560 -0.1835
 2717DPPC   NC354289  14.607   5.526  34.519  0.0203 -0.1554 -0.2294
 2717DPPC   PO454290  14.192   5.447  34.726  0.1885 -0.2491  0.2704
 2717DPPC   GL154291  14.153   5.003  34.666 -0.0469 -0.1489  0.1202
 2717DPPC   GL254292  13.904   4.986  34.510  0.1878 -0.2676  0.0795
 2717DPPC   C1A54293  13.929   4.662  34.895  0.3323  0.1073 -0.2271
 2717DPPC   C2A54294  13.763   4.441  35.102  0.0421 -0.1565  0.1830
 2717DPPC   C3A54295  13.780   4.315  35.555  0.0035  0.0966  0.2482
 2717DPPC   C4A54296  13.964   4.267  35.993 -0.0523  0.2628  0.1485
 2717DPPC   C1B54297  13.730   4.661  34.292  0.0890  0.1057  0.3784
 2717DPPC   C2B54298  13.500   4.227  34.172  0.0172 -0.1042 -0.0504
 2717DPPC   C3B54299  13.187   4.036  34.343  0.0770  0.0612  0.0571
 2717DPPC   C4B54300  12.838   4.162  34.724  0.1434 -0.1864  0.0340
 2718DPPC   NC354301  15.417  20.986  26.925 -0.1390 -0.1102  0.1761
 2718DPPC   PO454302  15.217  20.942  26.566  0.2958 -0.0872 -0.0042
 2718DPPC   GL154303  15.163  21.386  26.485  0.0280  0.1889  0.1028
 2718DPPC   GL254304  15.212  21.614  26.242 -0.0745  0.1289 -0.1176
 2718DPPC   C1A54305  14.875  21.911  26.491  0.1943 -0.3858  0.2028
 2718DPPC   C2A54306  14.602  22.195  26.236 -0.1379 -0.1428 -0.0882
 2718DPPC   C3A54307  14.612  22.655  26.231 -0.2101  0.1534 -0.0365
 2718DPPC   C4A54308  14.193  22.956  26.181  0.1559  0.1739 -0.0446
 2718DPPC   C1B54309  15.059  21.935  25.947 -0.0629  0.1743 -0.0224
 2718DPPC   C2B54310  14.937  22.410  25.777 -0.2908 -0.1161 -0.1909
 2718DPPC   C3B54311  14.807  22.827  25.782 -0.0046  0.1523 -0.2631
 2718DPPC   C4B54312  14.645  23.255  25.624  0.1089  0.0542  0.3660
 2719DPPC   NC354313  18.669   5.596  33.830  0.1056  0.1440 -0.1276
 2719DPPC   PO454314  18.834   5.616  33.461  0.2754 -0.0217 -0.0619
 2719DPPC   GL154315  18.995   5.213  33.669 -0.2429  0.2351  0.1313
 2719DPPC   GL254316  19.291   5.147  33.845 -0.0738 -0.2440 -0.0933
 2719DPPC   C1A54317  18.961   4.722  33.567  0.0310 -0.3625  0.0238
 2719DPPC   C2A54318  19.067   4.260  33.459  0.0287 -0.1868 -0.1006
 2719DPPC   C3A54319  19.141   3.833  33.396 -0.0533 -0.1133 -0.3255
 2719DPPC   C4A54320  19.012   3.379  33.449  0.0781 -0.0279  0.0880
 2719DPPC   C1B54321  19.373   4.679  33.997  0.2261 -0.4085 -0.0798
 2719DPPC   C2B54322  19.278   4.183  33.973 -0.5618  0.0909 -0.2267
 2719DPPC   C3B54323  19.440   3.915  34.184  0.2811  0.2466 -0.0569
 2719DPPC   C4B54324  19.718   3.584  34.101  0.3366  0.1604  0.1526
 2720DPPC   NC354325   9.773  21.925  21.415 -0.2205  0.2105 -0.1570
 2720DPPC   PO454326   9.696  21.780  21.751  0.0409  0.1164  0.1159
 2720DPPC   GL154327   9.825  21.528  22.008  0.1803  0.0555  0.0539
 2720DPPC   GL254328   9.625  21.320  22.202  0.3535  0.2063  0.0706
 2720DPPC   C1A54329  10.046  21.114  22.108 -0.1352 -0.0887 -0.0501
 2720DPPC   C2A54330  10.470  20.793  22.072  0.1999 -0.1671  0.0332
 2720DPPC   C3A54331  10.626  20.579  22.386  0.0601 -0.3343 -0.1834
 2720DPPC   C4A54332  10.936  20.538  22.396 -0.1306 -0.1130 -0.0704
 2720DPPC   C1B54333   9.603  20.865  22.323 -0.0818 -0.1945  0.2004
 2720DPPC   C2B54334   9.628  20.416  22.399 -0.1079 -0.1486  0.0973
 2720DPPC   C3B54335   9.817  20.078  22.645 -0.0590  0.1632  0.1098
 2720DPPC   C4B54336   9.787  20.011  23.090 -0.1583  0.0165  0.3474
 2721DPPC   NC354337  11.039   1.614  27.797 -0.0071 -0.0407 -0.0829
 2721DPPC   PO454338  11.370   1.305  27.876  0.0993 -0.4358  0.0641
 2721DPPC   GL154339  11.841   1.451  27.837 -0.1605  0.1027 -0.1476
 2721DPPC   GL254340  11.854   1.499  27.485  0.0726  0.0064  0.1387
 2721DPPC   C1A54341  11.980   1.811  28.110  0.1807  0.0604 -0.1748
 2721DPPC   C2A54342  12.138   2.161  28.260  0.0239 -0.0006  0.2658
 2721DPPC   C3A54343  12.143   2.487  27.928 -0.1569 -0.0042  0.1017
 2721DPPC   C4A54344  12.173   2.913  27.781 -0.0346 -0.3042 -0.1186
 2721DPPC   C1B54345  11.904   1.951  27.502 -0.3241  0.0921  0.1265
 2721DPPC   C2B54346  12.060   2.395  27.412  0.0818  0.2921 -0.1588
 2721DPPC   C3B54347  12.057   2.754  27.186  0.1263 -0.2227 -0.5168
 2721DPPC   C4B54348  12.432   2.967  27.048 -0.3143 -0.3700 -0.1016
 2722DPPC   NC354349  21.284  22.192  30.495 -0.1077  0.0552  0.1558
 2722DPPC   PO454350  21.065  22.393  30.200  0.3622 -0.0764  0.0433
 2722DPPC   GL154351  20.864  22.007  30.242  0.0109 -0.3179  0.0920
 2722DPPC   GL254352  20.891  21.846  30.472 -0.2648  0.3041 -0.0541
 2722DPPC   C1A54353  20.455  21.863  30.154 -0.1098 -0.2675  0.1407
 2722DPPC   C2A54354  20.209  21.640  30.185  0.0531 -0.0571 -0.1445
 2722DPPC   C3A54355  19.843  21.751  30.216 -0.0126  0.1654  0.0981
 2722DPPC   C4A54356  19.476  21.436  30.039  0.1161 -0.1883  0.0301
 2722DPPC   C1B54357  20.628  21.494  30.664  0.1584 -0.1875  0.3014
 2722DPPC   C2B54358  20.620  21.206  31.028  0.0814 -0.5322 -0.2712
 2722DPPC   C3B54359  20.917  21.213  31.428 -0.0386  0.0946 -0.0403
 2722DPPC   C4B54360  20.702  21.107  31.799  0.1883 -0.3425 -0.1691
 2723DPPC   NC354361   8.064  10.700  30.258 -0.2135  0.0619  0.1574
 2723DPPC   PO454362   7.798  10.490  30.020 -0.0209 -0.0309 -0.0161
 2723DPPC   GL154363   7.393  10.344  29.977 -0.1685 -0.3050  0.1559
 2723DPPC   GL254364   7.427  10.269  30.288 -0.0351  0.1285 -0.1331
 2723DPPC   C1A54365   7.021  10.317  29.822  0.1932 -0.1277  0.4073
 2723DPPC   C2A54366   6.642  10.138  29.758  0.0232 -0.1344  0.0285
 2723DPPC   C3A54367   6.322  10.281  29.563 -0.1460  0.1087  0.0057
 2723DPPC   C4A54368   6.037  10.189  29.163 -0.0658  0.0334  0.1573
 2723DPPC   C1B54369   6.960  10.321  30.302 -0.2725 -0.1547 -0.3051
 2723DPPC   C2B54370   6.574  10.356  30.194  0.0599  0.1118 -0.1040
 2723DPPC   C3B54371   6.274  10.125  30.148 -0.0399  0.0392  0.0112
 2723DPPC   C4B54372   5.863  10.206  29.975  0.2136  0.2583 -0.3970
 2724DPPC   NC354373  11.729   8.753  36.772 -0.0242  0.0531  0.1762
 2724DPPC   PO454374  12.022   8.444  36.988  0.1288  0.0689  0.0508
 2724DPPC   GL154375  11.824   8.056  37.091  0.0024  0.0329 -0.2452
 2724DPPC   GL254376  11.735   7.967  37.426 -0.0396 -0.2780  0.1315
 2724DPPC   C1A54377  11.492   7.660  37.098 -0.0346 -0.1310 -0.3107
 2724DPPC   C2A54378  11.355   7.395  37.386 -0.0145 -0.1861  0.2471
 2724DPPC   C3A54379  11.305   7.043  37.609  0.0929  0.0025  0.3172
 2724DPPC   C4A54380  11.342   6.875  38.048  0.0723 -0.1550 -0.0058
 2724DPPC   C1B54381  11.376   7.820  37.615 -0.0393 -0.0542 -0.0815
 2724DPPC   C2B54382  11.312   7.474  37.871  0.3701 -0.0285 -0.1100
 2724DPPC   C3B54383  11.442   7.362  38.288 -0.0406 -0.0630 -0.0453
 2724DPPC   C4B54384  11.629   7.313  38.680 -0.0063 -0.0024 -0.0275
 2725DPPC   NC354385  13.670  15.906  21.597  0.0390 -0.0831  0.0330
 2725DPPC   PO454386  13.344  15.821  21.315 -0.0166  0.0909 -0.3048
 2725DPPC   GL154387  13.022  15.892  20.950  0.0846  0.3784 -0.1037
 2725DPPC   GL254388  13.104  15.902  20.662  0.1855 -0.0343 -0.0756
 2725DPPC   C1A54389  12.632  16.118  20.957 -0.1230  0.1741  0.2330
 2725DPPC   C2A54390  12.240  16.140  20.839  0.0841  0.1834  0.0378
 2725DPPC   C3A54391  11.967  16.187  20.577  0.0865  0.0328  0.1140
 2725DPPC   C4A54392  11.652  16.260  20.276 -0.1152 -0.1975 -0.0307
 2725DPPC   C1B54393  12.826  16.237  20.515 -0.0902 -0.1507  0.1298
 2725DPPC   C2B54394  12.704  16.494  20.187  0.2816 -0.1796 -0.0325
 2725DPPC   C3B54395  12.550  16.741  19.759  0.0531  0.2728 -0.2491
 2725DPPC   C4B54396  12.559  16.979  19.351 -0.1274  0.0056 -0.1219
 2726DPPC   NC354397  22.981   9.187  16.581  0.0939 -0.0669 -0.0689
 2726DPPC   PO454398  22.612   9.559  16.599  0.1227 -0.1016 -0.0488
 2726DPPC   GL154399  22.292   9.533  16.930 -0.2258  0.0921 -0.2069
 2726DPPC   GL254400  22.441   9.912  17.044  0.0326 -0.1631 -0.3567
 2726DPPC   C1A54401  22.044   9.648  17.265 -0.1997  0.1370  0.2652
 2726DPPC   C2A54402  21.667   9.836  17.297 -0.1709 -0.2132  0.1822
 2726DPPC   C3A54403  21.274   9.973  17.293  0.1863 -0.0531 -0.0913
 2726DPPC   C4A54404  21.011  10.234  17.656 -0.0667  0.2770 -0.4988
 2726DPPC   C1B54405  22.048  10.129  17.009  0.1463  0.1433  0.0863
 2726DPPC   C2B54406  21.940  10.341  17.394 -0.0866 -0.1063 -0.2518
 2726DPPC   C3B54407  21.890  10.580  17.792 -0.0684 -0.3156 -0.0715
 2726DPPC   C4B54408  21.524  10.838  18.005  0.0767  0.0590  0.1176
 2727DPPC   NC354409  10.149  17.725  24.377 -0.0263 -0.1007 -0.0592
 2727DPPC   PO454410   9.916  17.289  24.420 -0.2481  0.1230  0.1189
 2727DPPC   GL154411   9.720  17.655  24.128  0.0479 -0.1266 -0.4019
 2727DPPC   GL254412   9.697  17.859  24.400  0.3454  0.1058  0.1073
 2727DPPC   C1A54413   9.525  17.911  23.800 -0.0490 -0.1253 -0.4244
 2727DPPC   C2A54414   9.612  18.292  23.507  0.2218  0.1838  0.1268
 2727DPPC   C3A54415   9.463  18.410  23.176  0.1560 -0.1153 -0.2116
 2727DPPC   C4A54416   9.202  18.847  23.141 -0.0187  0.1896 -0.0320
 2727DPPC   C1B54417   9.341  17.978  24.386 -0.3851 -0.0482  0.1043
 2727DPPC   C2B54418   8.942  18.140  24.324 -0.1233 -0.1040 -0.0167
 2727DPPC   C3B54419   8.577  18.218  24.132 -0.1616  0.2284  0.3601
 2727DPPC   C4B54420   8.300  18.279  24.522 -0.1637  0.2292 -0.1676
 2728DPPC   NC354421  12.554   6.804  24.485  0.0871  0.0452 -0.2310
 2728DPPC   PO454422  12.440   6.527  24.147 -0.1907 -0.1980 -0.2897
 2728DPPC   GL154423  12.130   6.299  24.130  0.2492  0.1099 -0.1016
 2728DPPC   GL254424  11.939   6.345  23.913  0.5034  0.0072  0.0513
 2728DPPC   C1A54425  11.854   5.888  24.142  0.2929 -0.1317  0.2913
 2728DPPC   C2A54426  11.442   5.855  24.007 -0.1051  0.2438 -0.1663
 2728DPPC   C3A54427  11.099   5.592  23.810  0.0618 -0.2594 -0.0748
 2728DPPC   C4A54428  10.834   5.243  23.749 -0.2852 -0.0674 -0.0324
 2728DPPC   C1B54429  11.689   6.270  23.571  0.1134  0.1821 -0.5728
 2728DPPC   C2B54430  11.305   6.442  23.333 -0.0724  0.2575  0.2450
 2728DPPC   C3B54431  10.926   6.494  23.073  0.2542  0.3961  0.1183
 2728DPPC   C4B54432  10.579   6.668  22.723  0.0268  0.4277  0.0209
 2729DPPC   NC354433  16.704  20.345  27.266  0.3198  0.3232 -0.1159
 2729DPPC   PO454434  16.553  20.311  26.917  0.0497 -0.5039  0.0430
 2729DPPC   GL154435  16.666  20.701  26.765 -0.3164  0.3766 -0.0996
 2729DPPC   GL254436  16.830  20.808  27.103 -0.1063 -0.1291 -0.0830
 2729DPPC   C1A54437  16.614  21.219  26.731 -0.1413  0.0675 -0.0086
 2729DPPC   C2A54438  16.526  21.546  26.532 -0.1254  0.3421  0.2440
 2729DPPC   C3A54439  16.476  21.940  26.639 -0.3264 -0.3230  0.2602
 2729DPPC   C4A54440  16.576  22.289  26.853 -0.0777  0.0236  0.2054
 2729DPPC   C1B54441  17.180  20.784  26.955  0.2414  0.1078  0.0171
 2729DPPC   C2B54442  17.524  20.919  26.884 -0.1182  0.2879 -0.0368
 2729DPPC   C3B54443  17.499  21.317  26.914  0.1136  0.2854 -0.0120
 2729DPPC   C4B54444  17.711  21.609  26.710 -0.0448 -0.2549 -0.0856
 2730DPPC   NC354445  21.868  10.740  36.646  0.2211 -0.0848 -0.0790
 2730DPPC   PO454446  22.205  10.598  36.344 -0.1456 -0.2698  0.2806
 2730DPPC   GL154447  22.623  10.589  36.412 -0.3357 -0.2188 -0.0003
 2730DPPC   GL254448  22.647  10.678  36.765  0.0444  0.2238 -0.1972
 2730DPPC   C1A54449  22.992  10.370  36.458  0.1839 -0.1786 -0.1297
 2730DPPC   C2A54450  23.006  10.056  36.792 -0.1977  0.4772 -0.1347
 2730DPPC   C3A54451  23.199   9.935  37.148 -0.0583  0.0624 -0.3722
 2730DPPC   C4A54452  23.458   9.593  37.151  0.0195  0.1599  0.2645
 2730DPPC   C1B54453  22.977  10.656  37.092 -0.1050  0.0977 -0.0028
 2730DPPC   C2B54454  23.097  10.496  37.387  0.2429 -0.2045 -0.0548
 2730DPPC   C3B54455  23.233  10.335  37.796 -0.1807  0.0683  0.0448
 2730DPPC   C4B54456  23.337  10.199  38.090 -0.2441  0.1501  0.1148
 2731DPPC   NC354457  23.064   8.500  40.620 -0.1130 -0.3739  0.1395
 2731DPPC   PO454458  23.155   8.092  40.607  0.2354  0.2391  0.0877
 2731DPPC   GL154459  22.949   8.183  40.270 -0.0521  0.2700  0.1365
 2731DPPC   GL254460  23.017   8.466  40.085 -0.0357 -0.0685 -0.0970
 2731DPPC   C1A54461  22.570   8.019  40.090  0.1233 -0.0809  0.3243
 2731DPPC   C2A54462  22.267   8.096  39.760 -0.0162 -0.2299 -0.1497
 2731DPPC   C3A54463  21.986   8.233  39.453 -0.2526  0.2696 -0.1735
 2731DPPC   C4A54464  21.605   8.403  39.517  0.3628 -0.2422 -0.0564
 2731DPPC   C1B54465  22.552   8.452  39.984  0.5021 -0.0906  0.1945
 2731DPPC   C2B54466  22.232   8.708  40.197  0.1068  0.1778  0.1279
 2731DPPC   C3B54467  21.769   8.784  40.010 -0.2122  0.0988 -0.4253
 2731DPPC   C4B54468  21.414   8.793  40.252  0.1358  0.0181  0.1228
 2732DPPC   NC354469  20.940  10.583  37.742 -0.1081 -0.2368  0.0945
 2732DPPC   PO454470  21.297  10.858  37.871 -0.2972  0.2697 -0.2767
 2732DPPC   GL154471  21.308  10.852  38.419  0.1717 -0.1774 -0.0098
 2732DPPC   GL254472  21.039  10.933  38.624 -0.1789  0.0120 -0.0676
 2732DPPC   C1A54473  21.646  10.627  38.615  0.0317 -0.0042 -0.0707
 2732DPPC   C2A54474  22.071  10.783  38.838  0.3509  0.1508  0.3997
 2732DPPC   C3A54475  22.561  10.705  38.986  0.1342  0.0667  0.1656
 2732DPPC   C4A54476  22.944  10.629  38.992  0.0246 -0.0115 -0.0525
 2732DPPC   C1B54477  21.283  10.720  39.000 -0.3025 -0.0654 -0.1371
 2732DPPC   C2B54478  21.529  10.496  39.194  0.0425 -0.1991 -0.0585
 2732DPPC   C3B54479  21.749  10.337  39.438  0.0471 -0.1920  0.0304
 2732DPPC   C4B54480  21.698  10.102  39.762 -0.0942 -0.1746  0.2409
 2733DPPC   NC354481  19.174  16.415  27.798  0.0730 -0.0519  0.2884
 2733DPPC   PO454482  19.626  16.357  27.723 -0.2222 -0.0872  0.3697
 2733DPPC   GL154483  19.885  16.576  27.267 -0.0524 -0.1188  0.1395
 2733DPPC   GL254484  19.618  16.705  27.091  0.1800  0.1336 -0.1384
 2733DPPC   C1A54485  20.094  16.705  26.850 -0.1461 -0.0466  0.0904
 2733DPPC   C2A54486  20.127  16.742  26.427 -0.0811  0.1792  0.1194
 2733DPPC   C3A54487  20.356  16.955  26.096 -0.0976  0.0082 -0.3481
 2733DPPC   C4A54488  20.802  17.036  26.055  0.1052  0.1264 -0.0379
 2733DPPC   C1B54489  19.608  16.593  26.702  0.0653  0.1577  0.0646
 2733DPPC   C2B54490  19.706  16.619  26.268 -0.3781  0.0372  0.4237
 2733DPPC   C3B54491  19.781  16.670  25.890  0.0804  0.1946 -0.0730
 2733DPPC   C4B54492  19.929  17.031  25.878  0.2124  0.2620 -0.4755
 2734DPPC   NC354493  21.147  17.023  34.992  0.2430  0.1503  0.0295
 2734DPPC   PO454494  21.624  17.128  34.863  0.2136  0.0089  0.0340
 2734DPPC   GL154495  21.621  17.498  34.661  0.0364  0.2703 -0.0023
 2734DPPC   GL254496  21.665  17.673  34.951 -0.1663 -0.0053 -0.3104
 2734DPPC   C1A54497  21.843  17.872  34.563  0.0562  0.0209  0.2639
 2734DPPC   C2A54498  22.198  18.219  34.695  0.1253  0.0797 -0.0530
 2734DPPC   C3A54499  22.398  18.407  35.038 -0.1102 -0.0887  0.1805
 2734DPPC   C4A54500  22.711  18.763  35.190  0.2039 -0.2169 -0.0963
 2734DPPC   C1B54501  21.945  18.066  35.114 -0.2085 -0.2509  0.3261
 2734DPPC   C2B54502  22.264  18.048  35.434 -0.1008 -0.0242 -0.1648
 2734DPPC   C3B54503  22.000  17.981  35.785  0.3094  0.1855 -0.0837
 2734DPPC   C4B54504  21.617  17.900  35.908 -0.2330 -0.0414  0.0835
 2735DPPC   NC354505   6.778  13.658  20.088 -0.0973 -0.2052  0.2387
 2735DPPC   PO454506   6.834  14.148  19.924  0.0754 -0.0894  0.0964
 2735DPPC   GL154507   7.289  14.204  20.287  0.2153  0.1824  0.1715
 2735DPPC   GL254508   7.154  14.503  20.329  0.0381 -0.2854 -0.0398
 2735DPPC   C1A54509   7.834  14.117  20.456 -0.1779  0.2645  0.0059
 2735DPPC   C2A54510   8.123  13.788  20.621  0.0586  0.1440  0.1439
 2735DPPC   C3A54511   8.306  13.662  20.985 -0.3190  0.1508  0.6728
 2735DPPC   C4A54512   8.572  13.842  21.363  0.1372  0.2825 -0.2095
 2735DPPC   C1B54513   7.305  14.059  20.734 -0.0611 -0.1569 -0.0608
 2735DPPC   C2B54514   7.611  13.814  20.895  0.1497  0.1562  0.1282
 2735DPPC   C3B54515   7.802  13.573  21.078  0.0012 -0.0915 -0.0389
 2735DPPC   C4B54516   8.068  13.534  21.400  0.0536  0.0944  0.1449
 2736DPPC   NC354517   3.355  15.572  33.043 -0.0878 -0.1795  0.1524
 2736DPPC   PO454518   3.346  15.451  32.543  0.0249 -0.0296  0.0325
 2736DPPC   GL154519   3.698  15.687  32.706  0.1419  0.0710  0.3822
 2736DPPC   GL254520   3.664  15.827  32.389  0.0655 -0.1504 -0.0708
 2736DPPC   C1A54521   3.943  15.442  32.927  0.1516 -0.1275  0.1297
 2736DPPC   C2A54522   4.295  15.130  32.809 -0.1413 -0.0379  0.3755
 2736DPPC   C3A54523   4.679  15.067  32.556  0.0148  0.1681 -0.2070
 2736DPPC   C4A54524   4.992  14.995  32.351 -0.0344  0.3282  0.1351
 2736DPPC   C1B54525   4.047  15.955  32.222 -0.2827 -0.1153  0.1417
 2736DPPC   C2B54526   4.415  15.882  31.958  0.3151  0.2885 -0.2586
 2736DPPC   C3B54527   4.505  15.668  31.525  0.0235 -0.0994 -0.3389
 2736DPPC   C4B54528   4.688  15.450  31.319  0.0528 -0.2318  0.1999
 2737DPPC   NC354529  15.773  12.896  28.239 -0.0732  0.0335 -0.0437
 2737DPPC   PO454530  15.697  13.251  28.065  0.0535  0.1966  0.1066
 2737DPPC   GL154531  15.671  13.080  27.651 -0.3290  0.2247 -0.3200
 2737DPPC   GL254532  15.429  13.273  27.586 -0.0231 -0.3275 -0.0281
 2737DPPC   C1A54533  15.873  13.108  27.264 -0.1287 -0.0683 -0.0933
 2737DPPC   C2A54534  15.943  13.323  26.885 -0.1060  0.1358 -0.0345
 2737DPPC   C3A54535  15.936  13.544  26.552 -0.0012 -0.2090  0.0263
 2737DPPC   C4A54536  15.668  13.493  26.216  0.0402 -0.0165  0.2084
 2737DPPC   C1B54537  15.426  13.119  27.058  0.4538 -0.0386 -0.2655
 2737DPPC   C2B54538  15.156  12.912  26.782 -0.0622  0.3173  0.4534
 2737DPPC   C3B54539  15.020  13.010  26.417 -0.2892 -0.1205  0.2991
 2737DPPC   C4B54540  15.156  13.028  26.022  0.1918  0.1751 -0.1287
 2738DPPC   NC354541  22.333  12.838  24.397  0.0466  0.2458 -0.2089
 2738DPPC   PO454542  22.385  12.959  24.910  0.1818  0.0087 -0.0815
 2738DPPC   GL154543  22.792  12.997  25.030 -0.1883  0.1185  0.1024
 2738DPPC   GL254544  22.835  13.366  25.191  0.1299 -0.0576 -0.1297
 2738DPPC   C1A54545  23.227  12.897  25.132  0.5424  0.2799  0.0734
 2738DPPC   C2A54546  23.663  13.102  25.454 -0.1515 -0.1352 -0.1937
 2738DPPC   C3A54547  24.067  13.045  25.230  0.0691  0.0985 -0.1033
 2738DPPC   C4A54548  24.463  12.737  25.272  0.0834 -0.3847  0.0314
 2738DPPC   C1B54549  23.175  13.321  25.368 -0.3064 -0.1295 -0.0882
 2738DPPC   C2B54550  23.461  13.618  25.634  0.0073 -0.0415 -0.2979
 2738DPPC   C3B54551  23.937  13.555  25.383 -0.1948 -0.2953 -0.4979
 2738DPPC   C4B54552  24.259  13.487  25.082  0.4564  0.3425 -0.1098
 2739DPPC   NC354553  13.786  21.041  32.169  0.1037  0.1501  0.1078
 2739DPPC   PO454554  14.190  21.072  32.047 -0.2346  0.0489  0.3815
 2739DPPC   GL154555  14.523  21.355  31.944 -0.0085  0.2227  0.0497
 2739DPPC   GL254556  14.487  21.554  32.236 -0.1755  0.2569  0.2387
 2739DPPC   C1A54557  14.784  21.718  31.935 -0.0590  0.3407  0.0127
 2739DPPC   C2A54558  15.047  22.059  31.940  0.3102 -0.0661  0.0908
 2739DPPC   C3A54559  15.089  22.384  31.990 -0.1927 -0.3007 -0.1987
 2739DPPC   C4A54560  14.954  22.728  32.110  0.0065 -0.1732  0.1873
 2739DPPC   C1B54561  14.636  21.962  32.386  0.0496  0.0196 -0.1990
 2739DPPC   C2B54562  14.788  22.364  32.450 -0.2569  0.2034 -0.2214
 2739DPPC   C3B54563  14.982  22.754  32.638 -0.0438 -0.2174 -0.3353
 2739DPPC   C4B54564  14.856  23.002  33.017  0.0428  0.0935 -0.2879
 2740DPPC   NC354565  13.882  21.468  28.149 -0.0224 -0.1462 -0.1483
 2740DPPC   PO454566  13.637  21.587  28.613  0.0021  0.4551  0.4300
 2740DPPC   GL154567  13.547  21.951  28.579 -0.2611 -0.0775 -0.0359
 2740DPPC   GL254568  13.297  21.813  28.294 -0.1698  0.1434 -0.0894
 2740DPPC   C1A54569  13.229  22.242  28.662 -0.0694  0.1141  0.0035
 2740DPPC   C2A54570  13.021  22.659  28.697  0.0614  0.0840 -0.3460
 2740DPPC   C3A54571  12.716  22.770  29.059 -0.3152  0.1226  0.1342
 2740DPPC   C4A54572  12.885  23.081  29.400 -0.0889  0.0005 -0.2416
 2740DPPC   C1B54573  13.639  22.032  27.977  0.0905 -0.0143 -0.3335
 2740DPPC   C2B54574  13.964  22.350  27.912  0.0623  0.0483  0.0557
 2740DPPC   C3B54575  14.077  22.861  27.729  0.3071  0.4557 -0.2681
 2740DPPC   C4B54576  13.933  23.298  27.767 -0.0191 -0.0040  0.1612
 2741DPPC   NC354577  20.540   6.787  24.474  0.2844 -0.1588  0.2798
 2741DPPC   PO454578  20.962   6.646  24.613  0.0523 -0.0218 -0.0024
 2741DPPC   GL154579  20.937   6.515  24.133  0.0582  0.1735 -0.0387
 2741DPPC   GL254580  21.075   6.684  23.838 -0.0499  0.1399  0.0333
 2741DPPC   C1A54581  20.969   6.145  23.842 -0.5389 -0.0251 -0.2387
 2741DPPC   C2A54582  21.092   5.733  23.590 -0.0245 -0.2958 -0.1396
 2741DPPC   C3A54583  21.351   5.446  23.544 -0.0234  0.2860  0.0253
 2741DPPC   C4A54584  21.641   5.349  23.224  0.1321 -0.0748 -0.0809
 2741DPPC   C1B54585  21.428   6.559  23.570  0.1649  0.0432 -0.0188
 2741DPPC   C2B54586  21.424   6.206  23.432  0.1383 -0.0727  0.0564
 2741DPPC   C3B54587  21.496   5.862  23.183 -0.4271  0.1265  0.0043
 2741DPPC   C4B54588  21.412   5.531  22.768 -0.3236  0.0263  0.1804
 2742DPPC   NC354589  21.363   6.925  24.689 -0.2429 -0.0441 -0.1896
 2742DPPC   PO454590  21.224   6.909  24.274 -0.3227 -0.0206 -0.3507
 2742DPPC   GL154591  21.482   6.627  24.084 -0.3679  0.0592 -0.1071
 2742DPPC   GL254592  21.755   6.647  23.957 -0.1965  0.1163 -0.0331
 2742DPPC   C1A54593  21.470   6.157  24.008 -0.0638  0.0407  0.1161
 2742DPPC   C2A54594  21.609   5.860  23.738 -0.2906  0.2279  0.2065
 2742DPPC   C3A54595  21.918   5.722  23.587 -0.0924  0.1605  0.2010
 2742DPPC   C4A54596  22.033   5.316  23.583 -0.0982  0.6241  0.2941
 2742DPPC   C1B54597  21.899   6.325  23.667 -0.1756  0.2339  0.0864
 2742DPPC   C2B54598  22.279   6.170  23.629  0.1023  0.0304 -0.0357
 2742DPPC   C3B54599  22.374   5.739  23.702 -0.0554 -0.0712  0.0927
 2742DPPC   C4B54600  22.409   5.257  23.841 -0.1364 -0.0280 -0.2331
 2743DPPC   NC354601  15.679   1.869  38.431  0.1376 -0.2823  0.0924
 2743DPPC   PO454602  15.779   2.334  38.223  0.1704 -0.0101 -0.1445
 2743DPPC   GL154603  16.079   2.626  37.929 -0.2873  0.2099  0.0380
 2743DPPC   GL254604  16.333   2.822  38.159 -0.0893 -0.2168  0.0449
 2743DPPC   C1A54605  16.068   2.993  37.743  0.1680 -0.1073  0.0749
 2743DPPC   C2A54606  16.009   3.042  37.388  0.0988  0.1383  0.0365
 2743DPPC   C3A54607  16.156   3.013  36.942 -0.0909  0.0162  0.0205
 2743DPPC   C4A54608  16.560   3.139  36.833  0.1514  0.1720  0.0219
 2743DPPC   C1B54609  16.482   3.141  37.959 -0.1682 -0.2172  0.0879
 2743DPPC   C2B54610  16.457   3.488  37.790 -0.1460  0.1506  0.0524
 2743DPPC   C3B54611  16.552   3.750  37.455  0.2989 -0.3946  0.1426
 2743DPPC   C4B54612  16.594   3.774  36.929 -0.0869  0.0201 -0.1745
 2744DPPC   NC354613  18.398   6.165  24.184 -0.0300  0.2801  0.0481
 2744DPPC   PO454614  18.222   5.755  24.043 -0.2359 -0.1012 -0.1873
 2744DPPC   GL154615  18.119   5.355  23.860 -0.0768  0.0252 -0.2037
 2744DPPC   GL254616  17.831   5.380  23.627  0.2933 -0.2218  0.0346
 2744DPPC   C1A54617  17.943   4.874  23.875 -0.1774 -0.2442  0.2670
 2744DPPC   C2A54618  18.114   4.587  23.763 -0.1661 -0.1678  0.1200
 2744DPPC   C3A54619  18.300   4.308  24.054  0.3731  0.0400 -0.2923
 2744DPPC   C4A54620  18.614   4.267  24.288  0.2256 -0.0670  0.3596
 2744DPPC   C1B54621  17.715   5.067  23.451 -0.0335  0.0352  0.1967
 2744DPPC   C2B54622  17.633   4.813  23.031 -0.1472  0.0325  0.1381
 2744DPPC   C3B54623  17.612   4.398  22.909 -0.0654 -0.0353 -0.1546
 2744DPPC   C4B54624  17.642   4.421  22.516  0.1460 -0.0393  0.1842
 2745DPPC   NC354625  11.104  20.411  28.459  0.0705  0.2660 -0.3459
 2745DPPC   PO454626  11.120  20.542  28.048  0.2746 -0.1038  0.1341
 2745DPPC   GL154627  11.062  20.891  28.178  0.0879  0.0627  0.0203
 2745DPPC   GL254628  11.160  20.950  28.425  0.1539 -0.1224 -0.3922
 2745DPPC   C1A54629  10.955  21.308  28.040  0.0626  0.0613  0.0547
 2745DPPC   C2A54630  10.775  21.694  28.072 -0.1750  0.1583 -0.1783
 2745DPPC   C3A54631  10.486  21.926  28.328  0.1202 -0.2561  0.1076
 2745DPPC   C4A54632  10.283  22.172  28.145  0.1059  0.1680 -0.1145
 2745DPPC   C1B54633  11.446  21.242  28.316  0.0664  0.0006 -0.0727
 2745DPPC   C2B54634  11.340  21.740  28.140 -0.0085 -0.0797 -0.2962
 2745DPPC   C3B54635  11.081  22.147  28.104 -0.4301 -0.1188 -0.2358
 2745DPPC   C4B54636  10.734  22.427  28.166 -0.0139  0.0742  0.0205
 2746DPPC   NC354637  10.298   5.937  40.179  0.2688 -0.1918  0.0462
 2746DPPC   PO454638  10.057   6.099  40.366 -0.0077  0.1718 -0.0506
 2746DPPC   GL154639  10.336   6.407  40.132 -0.1217 -0.3550  0.0027
 2746DPPC   GL254640  10.622   6.300  40.001 -0.1028  0.0163 -0.0383
 2746DPPC   C1A54641  10.363   6.812  39.884 -0.3138  0.1232  0.2107
 2746DPPC   C2A54642  10.768   7.027  39.597  0.1071 -0.1223 -0.0968
 2746DPPC   C3A54643  11.051   7.331  39.534  0.0576 -0.3024 -0.0266
 2746DPPC   C4A54644  11.222   7.707  39.450 -0.3021 -0.1938  0.0607
 2746DPPC   C1B54645  10.520   6.352  39.656  0.1960 -0.0504  0.2232
 2746DPPC   C2B54646  10.614   6.615  39.428 -0.1050  0.0211  0.1052
 2746DPPC   C3B54647  10.590   6.918  39.134 -0.0745 -0.0274 -0.1528
 2746DPPC   C4B54648  10.438   7.084  38.846  0.1098  0.4493 -0.0808
 2747DPPC   NC354649  18.145   6.596  36.760  0.0354  0.0563  0.1621
 2747DPPC   PO454650  18.087   6.355  36.327 -0.2393  0.2101  0.2307
 2747DPPC   GL154651  18.301   5.979  36.542 -0.1909 -0.1738  0.0731
 2747DPPC   GL254652  18.304   6.113  36.879  0.0897  0.1187  0.2145
 2747DPPC   C1A54653  18.583   5.640  36.746 -0.0962 -0.0722  0.0737
 2747DPPC   C2A54654  18.707   5.400  37.048  0.1719  0.1332  0.1133
 2747DPPC   C3A54655  18.526   5.389  37.465 -0.2431 -0.0122  0.5121
 2747DPPC   C4A54656  18.513   5.178  37.863 -0.3398 -0.2908 -0.0688
 2747DPPC   C1B54657  18.173   5.743  37.043 -0.0730 -0.1137 -0.1685
 2747DPPC   C2B54658  17.826   5.481  37.190  0.2508 -0.0644  0.2021
 2747DPPC   C3B54659  17.726   5.044  37.158  0.2565 -0.3192 -0.0910
 2747DPPC   C4B54660  17.389   4.700  37.189 -0.5347  0.0452  0.1448
 2748DPPC   NC354661  17.599   3.806  28.914 -0.2193  0.3058  0.3398
 2748DPPC   PO454662  17.726   3.889  29.357  0.0218  0.1254 -0.0711
 2748DPPC   GL154663  17.363   3.571  29.368  0.2024  0.0934  0.2135
 2748DPPC   GL254664  17.505   3.319  29.493 -0.0637  0.0027 -0.0685
 2748DPPC   C1A54665  17.210   3.224  29.103  0.1237 -0.4296  0.0413
 2748DPPC   C2A54666  17.093   2.826  28.882 -0.3367  0.0063 -0.0990
 2748DPPC   C3A54667  16.886   2.437  28.981 -0.2705  0.4929 -0.0463
 2748DPPC   C4A54668  16.813   2.201  29.222 -0.1422  0.0017 -0.1619
 2748DPPC   C1B54669  17.496   3.122  29.979  0.0213  0.0136 -0.2166
 2748DPPC   C2B54670  17.364   3.000  30.394 -0.4212 -0.1347  0.1298
 2748DPPC   C3B54671  17.668   2.627  30.494 -0.1675  0.2278  0.4250
 2748DPPC   C4B54672  17.733   2.443  30.826 -0.2733 -0.1050  0.0457
 2749DPPC   NC354673  17.808   6.466  37.078 -0.1005  0.3151 -0.1926
 2749DPPC   PO454674  17.823   6.234  36.752  0.0087 -0.0524  0.0556
 2749DPPC   GL154675  17.620   5.847  36.785 -0.2934 -0.1393 -0.3366
 2749DPPC   GL254676  17.403   5.718  37.049  0.3154  0.2082  0.4194
 2749DPPC   C1A54677  17.599   5.335  36.751 -0.1371  0.2181  0.0914
 2749DPPC   C2A54678  17.375   4.997  36.761 -0.2967 -0.0811  0.1783
 2749DPPC   C3A54679  17.268   4.509  36.644 -0.0649 -0.0303 -0.0732
 2749DPPC   C4A54680  16.923   4.384  36.345 -0.1639 -0.1960 -0.0872
 2749DPPC   C1B54681  17.199   5.716  37.547  0.0315  0.0187 -0.1615
 2749DPPC   C2B54682  16.926   5.729  37.951 -0.0764 -0.0406 -0.0263
 2749DPPC   C3B54683  16.746   5.461  38.258 -0.2092  0.1626  0.1336
 2749DPPC   C4B54684  16.966   5.397  38.592 -0.1044 -0.2801 -0.3360
 2750DPPC   NC354685  11.512  24.224  23.441  0.0032  0.1554 -0.0324
 2750DPPC   PO454686  11.445  23.805  23.224  0.1237  0.0729 -0.0783
 2750DPPC   GL154687  11.591  23.388  23.410 -0.1538  0.1009  0.1101
 2750DPPC   GL254688  11.718  23.197  23.335 -0.1185 -0.0969 -0.0380
 2750DPPC   C1A54689  11.813  23.442  23.766 -0.1115 -0.0127 -0.1197
 2750DPPC   C2A54690  12.209  23.274  24.067 -0.2448 -0.2750  0.2111
 2750DPPC   C3A54691  12.474  22.931  24.083  0.0985  0.0043  0.0624
 2750DPPC   C4A54692  12.595  22.530  24.448 -0.1331  0.1458 -0.0474
 2750DPPC   C1B54693  11.648  22.797  23.459 -0.1953 -0.1060  0.2567
 2750DPPC   C2B54694  11.759  22.414  23.630 -0.1015  0.2070 -0.2894
 2750DPPC   C3B54695  11.861  22.024  23.951  0.1073 -0.3342  0.1562
 2750DPPC   C4B54696  11.876  21.593  24.202 -0.1242 -0.1061  0.0020
 2751DPPC   NC354697  16.429  13.915  27.302 -0.0777 -0.1656 -0.1491
 2751DPPC   PO454698  16.618  13.640  27.720  0.1492 -0.0507 -0.2748
 2751DPPC   GL154699  16.596  13.410  27.341  0.1760 -0.0041  0.3371
 2751DPPC   GL254700  16.616  13.537  26.930  0.2112  0.2006 -0.0947
 2751DPPC   C1A54701  16.896  13.158  27.109  0.2734  0.2908  0.0458
 2751DPPC   C2A54702  16.781  13.014  26.750  0.1897 -0.0222 -0.1589
 2751DPPC   C3A54703  16.989  12.839  26.435 -0.0547 -0.3142  0.1252
 2751DPPC   C4A54704  17.106  12.928  25.973 -0.1502 -0.0785 -0.1552
 2751DPPC   C1B54705  16.860  13.440  26.554  0.1025  0.2481 -0.2447
 2751DPPC   C2B54706  16.758  13.225  26.198 -0.0401  0.0979 -0.0581
 2751DPPC   C3B54707  16.577  12.961  25.976  0.0920  0.2715 -0.2584
 2751DPPC   C4B54708  16.519  12.692  25.622 -0.3246  0.2811  0.0040
 2752DPPC   NC354709  16.798   1.927  37.461 -0.2014  0.1842 -0.0617
 2752DPPC   PO454710  16.329   1.875  37.366  0.2447  0.0680 -0.0075
 2752DPPC   GL154711  16.268   2.144  37.100 -0.1924  0.0776 -0.1132
 2752DPPC   GL254712  16.513   2.070  36.920 -0.0608  0.0465 -0.0349
 2752DPPC   C1A54713  16.274   2.542  37.111  0.1730 -0.1098  0.0078
 2752DPPC   C2A54714  16.475   2.839  37.355  0.2818 -0.0220 -0.0190
 2752DPPC   C3A54715  16.612   3.214  37.308  0.4800 -0.3905  0.0584
 2752DPPC   C4A54716  17.041   3.400  37.285  0.0333 -0.0847  0.1771
 2752DPPC   C1B54717  16.399   2.488  36.657  0.1323 -0.0906  0.0797
 2752DPPC   C2B54718  16.401   2.859  36.379 -0.0427 -0.1266  0.2476
 2752DPPC   C3B54719  16.276   3.200  36.148  0.0971  0.2664  0.1370
 2752DPPC   C4B54720  16.306   3.375  35.834  0.1270 -0.1788  0.0333
 2753DPPC   NC354721  21.990  20.080  22.916 -0.4912  0.3226 -0.0745
 2753DPPC   PO454722  21.595  20.357  23.162 -0.2437 -0.0967 -0.2273
 2753DPPC   GL154723  21.257  20.241  23.177 -0.1744 -0.1919 -0.1783
 2753DPPC   GL254724  21.129  20.365  22.909  0.0961  0.0675 -0.1916
 2753DPPC   C1A54725  20.842  20.070  23.472  0.1770  0.0767  0.1759
 2753DPPC   C2A54726  20.428  19.964  23.737 -0.0602 -0.1693  0.0252
 2753DPPC   C3A54727  20.393  19.801  24.199  0.0847 -0.1591 -0.1449
 2753DPPC   C4A54728  20.272  19.745  24.623  0.0818  0.0985 -0.0464
 2753DPPC   C1B54729  20.708  20.236  23.024 -0.0957  0.0679  0.0140
 2753DPPC   C2B54730  20.344  20.208  22.735 -0.1747  0.1107  0.0004
 2753DPPC   C3B54731  19.955  20.093  22.627 -0.1673  0.3709 -0.1863
 2753DPPC   C4B54732  19.511  20.162  22.580  0.2818  0.1715  0.3103
 2754DPPC   NC354733  19.055   6.391  22.922  0.0810 -0.1118  0.0884
 2754DPPC   PO454734  19.417   6.232  22.975  0.1808 -0.0950 -0.2211
 2754DPPC   GL154735  19.261   6.124  22.523 -0.0204  0.2856  0.2491
 2754DPPC   GL254736  18.930   6.054  22.528  0.0075  0.1993 -0.3634
 2754DPPC   C1A54737  19.382   5.899  22.188  0.1059 -0.2970 -0.3036
 2754DPPC   C2A54738  19.304   5.514  21.975  0.0776 -0.2681 -0.4384
 2754DPPC   C3A54739  19.189   5.138  21.856 -0.0495 -0.3189  0.0155
 2754DPPC   C4A54740  19.199   4.759  21.688  0.2240 -0.1710  0.0441
 2754DPPC   C1B54741  19.166   5.585  22.474  0.0017 -0.2484  0.0301
 2754DPPC   C2B54742  19.215   5.202  22.455 -0.2022  0.0178  0.1775
 2754DPPC   C3B54743  19.172   4.800  22.325  0.3036  0.2082  0.1604
 2754DPPC   C4B54744  19.322   4.428  22.209  0.0615  0.0347 -0.2231
 2755DPPC   NC354745  10.170  15.854  36.158  0.0888  0.0461  0.2946
 2755DPPC   PO454746  10.137  16.316  35.966  0.1934  0.1179  0.0556
 2755DPPC   GL154747   9.737  16.469  36.144 -0.1093  0.0970 -0.0231
 2755DPPC   GL254748   9.775  16.532  36.395 -0.1008 -0.2874 -0.0318
 2755DPPC   C1A54749   9.433  16.838  36.215 -0.0012  0.1074 -0.0815
 2755DPPC   C2A54750   8.966  16.923  36.221 -0.0448 -0.2022 -0.2097
 2755DPPC   C3A54751   8.553  16.950  36.485 -0.0323  0.1380 -0.0842
 2755DPPC   C4A54752   8.216  17.179  36.571  0.4188  0.0592  0.0786
 2755DPPC   C1B54753   9.637  16.724  36.673  0.2117 -0.0591 -0.2063
 2755DPPC   C2B54754   9.225  16.956  36.668  0.0545 -0.0029  0.0230
 2755DPPC   C3B54755   8.867  16.865  36.962  0.0780  0.0756  0.2469
 2755DPPC   C4B54756   8.817  16.825  37.423 -0.0498  0.1078  0.2212
 2756DPPC   NC354757  23.612  19.753  26.874  0.1859 -0.2119 -0.3701
 2756DPPC   PO454758  23.388  19.582  26.530 -0.0162  0.0146 -0.3296
 2756DPPC   GL154759  22.962  19.184  26.532 -0.0534 -0.3357 -0.1918
 2756DPPC   GL254760  22.633  19.222  26.424 -0.0156  0.0324  0.1257
 2756DPPC   C1A54761  23.071  18.788  26.349  0.0063 -0.1941  0.3121
 2756DPPC   C2A54762  22.921  18.422  26.275 -0.1632 -0.0970 -0.1281
 2756DPPC   C3A54763  22.595  18.140  26.275  0.2847  0.2645  0.2648
 2756DPPC   C4A54764  22.459  17.771  26.453 -0.0353 -0.0611 -0.0822
 2756DPPC   C1B54765  22.290  19.108  26.750  0.1129 -0.0612 -0.1275
 2756DPPC   C2B54766  22.003  18.834  26.851  0.0491 -0.3330 -0.0399
 2756DPPC   C3B54767  21.858  18.620  27.167 -0.3528 -0.0027 -0.1020
 2756DPPC   C4B54768  21.487  18.414  27.301  0.0468  0.1352  0.0527
 2757DPPC   NC354769  17.047  13.377  23.077 -0.1186 -0.1376 -0.1099
 2757DPPC   PO454770  17.201  13.117  23.329  0.0292  0.1543  0.2012
 2757DPPC   GL154771  17.462  12.979  23.623 -0.0926 -0.1127 -0.0524
 2757DPPC   GL254772  17.824  12.854  23.668 -0.1026 -0.3100  0.0186
 2757DPPC   C1A54773  17.583  13.137  24.047 -0.2334  0.0122  0.2567
 2757DPPC   C2A54774  17.458  13.202  24.350 -0.0293 -0.2343 -0.1600
 2757DPPC   C3A54775  17.359  13.038  24.709 -0.4255  0.1582 -0.2268
 2757DPPC   C4A54776  17.208  13.038  25.010 -0.0640  0.0939 -0.1864
 2757DPPC   C1B54777  18.073  13.028  23.962 -0.0136  0.3778 -0.0721
 2757DPPC   C2B54778  17.979  13.061  24.390 -0.3263 -0.0745 -0.0552
 2757DPPC   C3B54779  17.804  13.333  24.739  0.3853 -0.2382 -0.0749
 2757DPPC   C4B54780  17.616  13.441  25.154  0.0237  0.2063 -0.0061
 2758DPPC   NC354781  13.365   8.398  38.510 -0.1602  0.2564  0.0839
 2758DPPC   PO454782  13.699   8.266  38.197 -0.0801  0.1817 -0.1746
 2758DPPC   GL154783  13.658   7.876  38.508  0.0594  0.4126 -0.1085
 2758DPPC   GL254784  13.328   7.949  38.376  0.1918 -0.1280 -0.1252
 2758DPPC   C1A54785  13.831   7.792  38.918  0.1271  0.2181  0.2298
 2758DPPC   C2A54786  13.879   7.636  39.286 -0.3408  0.2208 -0.1757
 2758DPPC   C3A54787  14.008   7.486  39.621 -0.0935  0.0360 -0.0274
 2758DPPC   C4A54788  14.404   7.406  39.982  0.1044  0.2038  0.3607
 2758DPPC   C1B54789  13.323   7.611  38.759 -0.0592  0.0638 -0.1963
 2758DPPC   C2B54790  13.299   7.663  39.151  0.0238  0.0166  0.1098
 2758DPPC   C3B54791  13.242   7.542  39.520  0.0789 -0.0381  0.0034
 2758DPPC   C4B54792  12.964   7.335  39.781  0.1303 -0.3845  0.3467
 2759DPPC   NC354793  18.490  19.643  32.043  0.0528  0.0805  0.0566
 2759DPPC   PO454794  18.265  19.768  31.784 -0.0385 -0.0539 -0.1005
 2759DPPC   GL154795  18.477  20.165  31.955  0.0833  0.0085 -0.1790
 2759DPPC   GL254796  18.743  20.109  31.971 -0.0984  0.0833  0.0099
 2759DPPC   C1A54797  18.510  20.525  31.666  0.1192  0.0643 -0.0064
 2759DPPC   C2A54798  18.815  20.700  31.377 -0.1681  0.3017  0.1771
 2759DPPC   C3A54799  18.958  21.088  31.144 -0.2413  0.3380 -0.0622
 2759DPPC   C4A54800  19.191  21.243  30.759  0.1583 -0.4091 -0.1035
 2759DPPC   C1B54801  18.919  20.535  31.949 -0.0005  0.4826 -0.2983
 2759DPPC   C2B54802  18.824  20.913  31.845 -0.0392  0.1780  0.2461
 2759DPPC   C3B54803  18.655  21.283  31.689 -0.0584 -0.1118 -0.3241
 2759DPPC   C4B54804  18.491  21.242  31.276 -0.0633 -0.0547 -0.0584
 2760DPPC   NC354805   8.052  14.107  26.584 -0.0912 -0.3293  0.0115
 2760DPPC   PO454806   8.083  14.390  27.046 -0.2472 -0.1278  0.2981
 2760DPPC   GL154807   7.673  14.319  26.782 -0.2464 -0.1798 -0.0274
 2760DPPC   GL254808   7.576  14.505  26.395  0.1541 -0.2547 -0.3719
 2760DPPC   C1A54809   7.294  14.235  26.854  0.0817 -0.1607 -0.0121
 2760DPPC   C2A54810   6.896  14.205  26.775 -0.0950  0.0765  0.0696
 2760DPPC   C3A54811   6.685  14.000  26.607  0.1365 -0.0915 -0.1019
 2760DPPC   C4A54812   6.325  13.787  26.693 -0.0070 -0.2035  0.1211
 2760DPPC   C1B54813   7.164  14.621  26.233  0.1113  0.0010 -0.0688
 2760DPPC   C2B54814   6.984  14.984  26.126  0.1325 -0.1995 -0.1808
 2760DPPC   C3B54815   6.979  15.383  25.976 -0.0420 -0.4320 -0.0988
 2760DPPC   C4B54816   7.247  15.815  25.826 -0.2364  0.1957  0.0685
 2761DPPC   NC354817  26.081   5.548  32.282  0.0191 -0.0053 -0.2402
 2761DPPC   PO454818  25.831   5.333  32.606  0.1564 -0.0748  0.0511
 2761DPPC   GL154819  25.539   5.353  32.210  0.0843 -0.4461  0.1280
 2761DPPC   GL254820  25.463   5.060  32.241 -0.1684  0.0374 -0.0757
 2761DPPC   C1A54821  25.512   5.702  31.930  0.1495  0.1586  0.0685
 2761DPPC   C2A54822  25.260   6.107  32.076  0.0294  0.1633 -0.0086
 2761DPPC   C3A54823  24.925   6.244  32.006  0.1466  0.2155 -0.1483
 2761DPPC   C4A54824  24.654   6.432  32.308  0.1385 -0.1556  0.0544
 2761DPPC   C1B54825  25.184   5.249  31.895 -0.1937  0.1876  0.1452
 2761DPPC   C2B54826  24.827   5.391  31.700  0.1958  0.1213 -0.1029
 2761DPPC   C3B54827  24.575   5.597  31.468 -0.1140 -0.2673 -0.1155
 2761DPPC   C4B54828  24.405   5.967  31.188  0.2565 -0.1298  0.1083
 2762DPPC   NC354829  27.034  12.927  26.182 -0.1209  0.0502  0.2769
 2762DPPC   PO454830  26.813  12.676  25.948  0.0686 -0.0257 -0.2192
 2762DPPC   GL154831  26.537  12.959  26.127  0.0048  0.1324  0.2156
 2762DPPC   GL254832  26.624  13.041  26.477 -0.4231  0.1937  0.1688
 2762DPPC   C1A54833  26.100  13.237  26.271 -0.1856 -0.4974 -0.1479
 2762DPPC   C2A54834  25.639  13.070  26.286  0.0036  0.1640 -0.0182
 2762DPPC   C3A54835  25.317  12.827  26.442 -0.2905  0.2071  0.1734
 2762DPPC   C4A54836  25.165  12.495  26.164  0.1959 -0.1414 -0.0870
 2762DPPC   C1B54837  26.271  12.869  26.492  0.1941  0.2015 -0.2128
 2762DPPC   C2B54838  25.950  12.641  26.420  0.0843 -0.3469 -0.0655
 2762DPPC   C3B54839  25.588  12.425  26.476  0.1803  0.1199  0.0575
 2762DPPC   C4B54840  25.505  12.351  26.811 -0.1040  0.4099  0.0761
 2763DPPC   NC354841  17.532  19.342  28.831  0.0571  0.1339  0.0241
 2763DPPC   PO454842  17.943  19.435  28.654 -0.5625 -0.0852  0.4395
 2763DPPC   GL154843  18.196  19.751  28.550  0.1383 -0.1018  0.0674
 2763DPPC   GL254844  18.296  19.645  28.310  0.2513 -0.0370 -0.2539
 2763DPPC   C1A54845  18.425  20.141  28.545  0.2223 -0.3704  0.1746
 2763DPPC   C2A54846  18.621  20.492  28.420 -0.0082  0.0505  0.1548
 2763DPPC   C3A54847  18.790  20.754  28.162  0.0794  0.3141 -0.1538
 2763DPPC   C4A54848  18.882  21.162  27.950 -0.0251  0.1814 -0.1134
 2763DPPC   C1B54849  18.274  20.061  28.135  0.0686 -0.0375 -0.0228
 2763DPPC   C2B54850  18.651  20.263  27.866  0.0026 -0.0961  0.3259
 2763DPPC   C3B54851  19.018  20.375  27.746  0.0336 -0.0488  0.1873
 2763DPPC   C4B54852  19.194  20.771  27.744 -0.3993  0.2089 -0.0035
 2764DPPC   NC354853  14.389   2.781  20.002 -0.1275  0.1345 -0.0911
 2764DPPC   PO454854  14.677   2.914  20.265 -0.0405  0.1785  0.1242
 2764DPPC   GL154855  15.011   3.046  20.378 -0.1994  0.1791 -0.2625
 2764DPPC   GL254856  15.198   3.019  20.140 -0.1320 -0.1727 -0.3424
 2764DPPC   C1A54857  15.080   3.320  20.703 -0.0832  0.2004  0.0563
 2764DPPC   C2A54858  15.364   3.622  20.874  0.2121 -0.0854 -0.2124
 2764DPPC   C3A54859  15.493   3.802  21.214  0.0934  0.2537  0.0065
 2764DPPC   C4A54860  15.452   3.941  21.717  0.2491 -0.0012  0.1691
 2764DPPC   C1B54861  15.212   3.474  20.233 -0.1825  0.2415 -0.2979
 2764DPPC   C2B54862  15.126   3.836  20.262  0.2921 -0.3231  0.2549
 2764DPPC   C3B54863  15.054   4.252  20.432  0.0719 -0.1655 -0.1009
 2764DPPC   C4B54864  15.077   4.529  20.783  0.3492  0.2179  0.3415
 2765DPPC   NC354865  17.476  14.823  27.922 -0.0000  0.2145  0.0349
 2765DPPC   PO454866  17.632  14.872  27.483 -0.1327 -0.0718 -0.2046
 2765DPPC   GL154867  17.550  14.617  27.290  0.1449  0.2975 -0.1028
 2765DPPC   GL254868  17.417  14.249  27.323 -0.3159  0.1079 -0.1033
 2765DPPC   C1A54869  17.566  14.578  26.749  0.0704  0.1526 -0.0287
 2765DPPC   C2A54870  17.546  14.542  26.258  0.1246  0.5436  0.0468
 2765DPPC   C3A54871  17.685  14.295  25.977 -0.4144 -0.1277  0.0825
 2765DPPC   C4A54872  17.905  13.850  26.048 -0.0137  0.0961 -0.1563
 2765DPPC   C1B54873  17.692  14.241  27.062 -0.0839  0.4090 -0.5000
 2765DPPC   C2B54874  18.160  14.144  26.947 -0.1599  0.0225 -0.1292
 2765DPPC   C3B54875  18.390  14.322  26.509  0.1289 -0.0843 -0.1102
 2765DPPC   C4B54876  18.628  14.530  26.255  0.1810 -0.1515 -0.1073
 2766DPPC   NC354877  14.978  23.703  21.399 -0.2656  0.0191  0.3120
 2766DPPC   PO454878  15.068  23.527  21.851  0.1822  0.1883  0.0061
 2766DPPC   GL154879  15.047  23.236  22.252 -0.1521  0.1886 -0.1645
 2766DPPC   GL254880  15.093  23.456  22.363  0.1076  0.0839 -0.0727
 2766DPPC   C1A54881  15.176  22.763  22.333 -0.1989 -0.2205 -0.2503
 2766DPPC   C2A54882  15.102  22.332  22.312 -0.0881  0.0291  0.1402
 2766DPPC   C3A54883  15.097  21.986  22.107  0.1327  0.1151  0.0346
 2766DPPC   C4A54884  15.158  21.588  21.788 -0.2114 -0.1633 -0.0861
 2766DPPC   C1B54885  15.474  23.242  22.593  0.0258  0.0751  0.3327
 2766DPPC   C2B54886  15.632  22.909  22.534  0.1029  0.1478 -0.3282
 2766DPPC   C3B54887  15.697  22.545  22.530 -0.2359  0.0428  0.3045
 2766DPPC   C4B54888  15.521  22.121  22.496  0.1238  0.0718  0.4970
 2767DPPC   NC354889  18.690  12.404  27.218 -0.1287  0.3355 -0.1315
 2767DPPC   PO454890  18.429  12.314  27.623 -0.0807 -0.0645 -0.1566
 2767DPPC   GL154891  18.230  12.278  27.266 -0.0120  0.2127 -0.0883
 2767DPPC   GL254892  18.138  11.915  27.325  0.1803  0.1966  0.2055
 2767DPPC   C1A54893  17.964  12.239  26.973  0.0734 -0.2551 -0.1457
 2767DPPC   C2A54894  17.455  12.213  26.988  0.1423 -0.0041  0.2680
 2767DPPC   C3A54895  17.099  11.980  26.737 -0.0902 -0.0861 -0.3584
 2767DPPC   C4A54896  17.019  11.710  26.365  0.0343  0.1124  0.0383
 2767DPPC   C1B54897  17.677  11.729  27.285 -0.2301 -0.1681 -0.0211
 2767DPPC   C2B54898  17.531  11.342  27.317  0.0695 -0.2943  0.2521
 2767DPPC   C3B54899  17.107  11.206  27.366 -0.0426  0.0401 -0.2572
 2767DPPC   C4B54900  16.738  11.429  27.445 -0.1143  0.1779 -0.0931
 2768DPPC   NC354901  19.019  13.852  27.974  0.0433 -0.0087  0.6105
 2768DPPC   PO454902  19.004  14.063  27.623 -0.1498  0.0836  0.0969
 2768DPPC   GL154903  18.894  14.094  27.274  0.0231 -0.0104  0.0062
 2768DPPC   GL254904  18.510  13.995  27.231 -0.2561 -0.0656  0.1255
 2768DPPC   C1A54905  18.824  14.043  26.860 -0.0669 -0.0452 -0.2695
 2768DPPC   C2A54906  18.762  13.888  26.424 -0.2757 -0.2116  0.1009
 2768DPPC   C3A54907  18.517  13.990  26.051  0.2513  0.0419 -0.2110
 2768DPPC   C4A54908  18.247  14.214  25.915 -0.1982 -0.1131 -0.0449
 2768DPPC   C1B54909  18.400  13.695  26.848 -0.1768  0.1111  0.2657
 2768DPPC   C2B54910  18.218  13.828  26.470  0.0730 -0.4483  0.1340
 2768DPPC   C3B54911  17.858  14.074  26.506  0.0545  0.1288  0.3069
 2768DPPC   C4B54912  17.423  14.104  26.563 -0.0259 -0.0102  0.2877
 2769DPPC   NC354913   9.454  18.229  34.094  0.1972 -0.0395 -0.3962
 2769DPPC   PO454914   9.285  17.795  34.258 -0.1184  0.0449 -0.1949
 2769DPPC   GL154915   8.998  18.214  34.458  0.0811 -0.3560  0.3037
 2769DPPC   GL254916   8.933  18.370  34.255  0.2575 -0.0057  0.3484
 2769DPPC   C1A54917   8.930  18.544  34.725  0.1984  0.0131 -0.2762
 2769DPPC   C2A54918   8.868  18.742  35.124 -0.0236  0.0262 -0.1533
 2769DPPC   C3A54919   8.703  18.610  35.497 -0.1057  0.1615  0.0318
 2769DPPC   C4A54920   8.453  18.682  35.936 -0.1275  0.1937 -0.4064
 2769DPPC   C1B54921   8.493  18.468  34.464 -0.0892 -0.2996 -0.0048
 2769DPPC   C2B54922   8.142  18.210  34.549 -0.1176  0.2592  0.0791
 2769DPPC   C3B54923   7.929  18.367  35.019 -0.1204 -0.1529  0.1105
 2769DPPC   C4B54924   7.832  18.368  35.425 -0.3418  0.0559 -0.3573
 2770DPPC   NC354925  18.195  11.868  39.139  0.3158 -0.0076 -0.5531
 2770DPPC   PO454926  18.623  11.737  39.088  0.2074 -0.0436  0.0754
 2770DPPC   GL154927  18.709  11.964  39.433  0.1118 -0.0255  0.0667
 2770DPPC   GL254928  18.382  11.902  39.582  0.1421  0.0183 -0.2815
 2770DPPC   C1A54929  18.861  12.189  39.760 -0.1114 -0.0755  0.2371
 2770DPPC   C2A54930  18.646  12.295  40.085 -0.2818 -0.0950 -0.1220
 2770DPPC   C3A54931  18.644  12.341  40.600  0.4420  0.2300  0.1160
 2770DPPC   C4A54932  19.046  12.561  40.633  0.0080  0.1056 -0.2016
 2770DPPC   C1B54933  18.394  11.857  40.041  0.0702  0.0865  0.3356
 2770DPPC   C2B54934  18.578  11.881  40.417 -0.0779 -0.2940  0.1068
 2770DPPC   C3B54935  18.881  11.841  40.684 -0.4053  0.2650 -0.3074
 2770DPPC   C4B54936  19.212  11.689  40.986  0.0863 -0.0781  0.0101
 2771DPPC   NC354937  12.249  18.268  41.860 -0.3310  0.1677  0.2209
 2771DPPC   PO454938  11.911  17.985  41.979 -0.1013  0.1883 -0.0731
 2771DPPC   GL154939  12.173  17.688  41.753 -0.1456  0.3897  0.2366
 2771DPPC   GL254940  12.026  17.779  41.493 -0.0677  0.0988 -0.0287
 2771DPPC   C1A54941  12.554  17.527  41.618 -0.0710 -0.2839  0.0665
 2771DPPC   C2A54942  12.678  17.543  41.171 -0.1950  0.0018 -0.0029
 2771DPPC   C3A54943  12.955  17.594  40.977 -0.0156  0.1598  0.1179
 2771DPPC   C4A54944  13.132  17.794  40.755  0.0253 -0.3362 -0.0137
 2771DPPC   C1B54945  12.114  17.739  41.073  0.0846 -0.0458 -0.1425
 2771DPPC   C2B54946  12.023  17.769  40.627  0.4090 -0.2975 -0.4622
 2771DPPC   C3B54947  11.802  17.645  40.283  0.0506  0.4628 -0.0753
 2771DPPC   C4B54948  11.491  17.667  39.971 -0.1342  0.0194 -0.2257
 2772DPPC   NC354949  20.612   1.147  32.535 -0.2725 -0.0630  0.1558
 2772DPPC   PO454950  20.152   0.946  32.614  0.3624  0.0597  0.1349
 2772DPPC   GL154951  20.154   1.365  32.722 -0.1063 -0.1277  0.3944
 2772DPPC   GL254952  20.381   1.585  32.554 -0.0038 -0.0619 -0.0818
 2772DPPC   C1A54953  20.097   1.740  32.928  0.0253 -0.2592  0.0321
 2772DPPC   C2A54954  20.100   2.236  33.106 -0.0730  0.2295  0.0033
 2772DPPC   C3A54955  19.976   2.463  33.357  0.2378  0.1668 -0.3346
 2772DPPC   C4A54956  20.023   2.852  33.481  0.2141 -0.0745 -0.0322
 2772DPPC   C1B54957  20.430   1.998  32.616 -0.1783  0.0583  0.1189
 2772DPPC   C2B54958  20.601   2.337  32.848  0.0418  0.0927  0.0183
 2772DPPC   C3B54959  21.013   2.482  32.924  0.2068  0.0194 -0.0720
 2772DPPC   C4B54960  21.404   2.322  33.051 -0.0327  0.0706  0.0947
 2773DPPC   NC354961  12.578  25.187  28.573 -0.1103 -0.0220 -0.0299
 2773DPPC   PO454962  13.015  25.177  28.706  0.0176  0.1867  0.2007
 2773DPPC   GL154963  12.931  24.761  28.718  0.1050 -0.1835 -0.1350
 2773DPPC   GL254964  13.214  24.608  28.852  0.3752 -0.0537 -0.2735
 2773DPPC   C1A54965  12.642  24.504  28.847  0.0744 -0.1965  0.0591
 2773DPPC   C2A54966  12.569  24.051  28.711 -0.2153  0.1833  0.0031
 2773DPPC   C3A54967  12.496  23.744  28.371  0.0063  0.1776  0.1238
 2773DPPC   C4A54968  12.298  23.616  28.091  0.1382 -0.0007  0.0413
 2773DPPC   C1B54969  13.139  24.284  28.639 -0.0327  0.1126  0.0096
 2773DPPC   C2B54970  13.039  23.917  28.432  0.0728 -0.3210  0.1959
 2773DPPC   C3B54971  12.834  23.531  28.636 -0.2546 -0.0784 -0.3801
 2773DPPC   C4B54972  12.617  23.136  28.667  0.2021 -0.1750  0.0094
 2774DPPC   NC354973  10.898  11.844  22.827  0.1889 -0.1374 -0.0909
 2774DPPC   PO454974  10.778  11.513  23.018 -0.0494  0.2047  0.0302
 2774DPPC   GL154975  10.433  11.473  22.826  0.2390  0.1309  0.4098
 2774DPPC   GL254976  10.266  11.188  22.999 -0.2753 -0.0812 -0.0243
 2774DPPC   C1A54977   9.963  11.657  22.770 -0.0251 -0.1848  0.0030
 2774DPPC   C2A54978   9.624  11.447  22.482 -0.2070 -0.0302  0.0707
 2774DPPC   C3A54979   9.522  11.099  22.321  0.0956 -0.3387  0.0057
 2774DPPC   C4A54980   9.634  10.813  21.995 -0.0046 -0.1254 -0.2218
 2774DPPC   C1B54981  10.062  11.135  22.698 -0.1402  0.2108 -0.1675
 2774DPPC   C2B54982  10.052  11.071  22.286  0.0208  0.2126 -0.2382
 2774DPPC   C3B54983  10.096  10.969  21.883 -0.4744 -0.0472 -0.1536
 2774DPPC   C4B54984   9.883  10.695  21.549 -0.0085 -0.1164  0.2162
 2775DPPC   NC354985   9.781  11.911  23.785 -0.1656 -0.2948  0.0472
 2775DPPC   PO454986   9.608  12.286  24.027 -0.0367  0.1445  0.0351
 2775DPPC   GL154987   9.292  12.591  23.717 -0.1897  0.1908  0.2573
 2775DPPC   GL254988   8.998  12.594  23.894 -0.4035  0.0401 -0.2131
 2775DPPC   C1A54989   9.040  12.478  23.240 -0.1558  0.4694  0.0208
 2775DPPC   C2A54990   8.703  12.411  22.965 -0.3350  0.0934 -0.0429
 2775DPPC   C3A54991   8.228  12.333  22.768 -0.0961 -0.3818  0.2576
 2775DPPC   C4A54992   7.865  12.370  22.614 -0.0694 -0.1593 -0.0935
 2775DPPC   C1B54993   8.567  12.565  23.647 -0.0708  0.1409  0.2461
 2775DPPC   C2B54994   8.318  12.945  23.528 -0.1825 -0.0587 -0.1568
 2775DPPC   C3B54995   8.073  12.966  23.178  0.0022 -0.2933 -0.0064
 2775DPPC   C4B54996   7.702  13.243  22.914  0.2058  0.0395  0.2190
 2776DPPC   NC354997  11.057   9.708  42.609 -0.1313 -0.0564 -0.4554
 2776DPPC   PO454998  11.276  10.009  42.803 -0.0531  0.0434  0.1945
 2776DPPC   GL154999  11.409   9.992  42.314  0.0396  0.2275  0.0970
 2776DPPC   GL255000  11.265   9.747  42.178 -0.3480  0.5503 -0.1430
 2776DPPC   C1A55001  11.458  10.259  41.856 -0.1041  0.0416 -0.0948
 2776DPPC   C2A55002  11.459  10.371  41.449  0.0520 -0.4485  0.0506
 2776DPPC   C3A55003  11.472  10.503  40.940  0.0056  0.1593  0.5165
 2776DPPC   C4A55004  11.492  10.752  40.569  0.0949  0.0663  0.2102
 2776DPPC   C1B55005  10.982  10.052  41.879 -0.0425  0.1081 -0.3549
 2776DPPC   C2B55006  10.929  10.264  41.516  0.1121  0.0643  0.0200
 2776DPPC   C3B55007  10.986  10.535  41.127 -0.2634 -0.0616  0.3724
 2776DPPC   C4B55008  11.063  10.547  40.637  0.1864 -0.1343 -0.0214
 2777DPPC   NC355009  19.538   1.087  34.270  0.1083  0.1506  0.1153
 2777DPPC   PO455010  19.859   1.034  33.998 -0.0489 -0.1565 -0.0003
 2777DPPC   GL155011  19.603   1.419  33.857 -0.0121  0.1761 -0.0608
 2777DPPC   GL255012  19.843   1.610  33.853  0.0569 -0.1976 -0.2722
 2777DPPC   C1A55013  19.297   1.698  33.836  0.1969 -0.0258  0.2601
 2777DPPC   C2A55014  19.156   2.022  33.486 -0.0535  0.1542  0.3229
 2777DPPC   C3A55015  19.165   2.309  33.320 -0.0272  0.0893  0.1365
 2777DPPC   C4A55016  19.483   2.539  33.227  0.1342  0.0085  0.0262
 2777DPPC   C1B55017  19.975   2.044  33.677 -0.0509 -0.1527 -0.1422
 2777DPPC   C2B55018  20.442   2.094  33.809 -0.0133 -0.3671  0.0591
 2777DPPC   C3B55019  20.829   2.325  33.738 -0.2538  0.1656 -0.1364
 2777DPPC   C4B55020  21.142   2.160  33.400 -0.3326 -0.0956 -0.2820
 2778DPPC   NC355021  10.522  18.092  24.786 -0.2945  0.1165  0.3696
 2778DPPC   PO455022  10.299  17.691  24.832 -0.0223  0.3978 -0.0102
 2778DPPC   GL155023   9.931  18.004  24.852  0.2388  0.2257 -0.0198
 2778DPPC   GL255024   9.628  17.877  24.914  0.4878 -0.2224 -0.3085
 2778DPPC   C1A55025   9.619  18.322  24.638  0.0942 -0.3023 -0.1184
 2778DPPC   C2A55026   9.348  18.490  24.294  0.4387  0.2549 -0.0068
 2778DPPC   C3A55027   9.247  18.377  23.857  0.1818  0.0077 -0.2777
 2778DPPC   C4A55028   9.010  18.421  23.342  0.2985 -0.2327 -0.0790
 2778DPPC   C1B55029   9.264  18.171  24.962 -0.1317 -0.0303  0.2486
 2778DPPC   C2B55030   9.024  18.457  24.712  0.2551 -0.0044  0.2759
 2778DPPC   C3B55031   8.767  18.706  24.307 -0.4857  0.3585  0.0784
 2778DPPC   C4B55032   8.309  18.852  24.221  0.0644 -0.0244  0.0481
 2779DPPC   NC355033   8.331  18.852  21.200 -0.1186 -0.3632  0.3530
 2779DPPC   PO455034   8.008  19.134  21.390 -0.2345  0.1282  0.1723
 2779DPPC   GL155035   8.221  19.070  21.649 -0.4277 -0.1242  0.0698
 2779DPPC   GL255036   8.564  18.812  21.684  0.2072 -0.0262 -0.0724
 2779DPPC   C1A55037   8.603  19.149  22.009  0.2462  0.1332 -0.1875
 2779DPPC   C2A55038   8.755  19.150  22.459  0.2664  0.2518  0.0193
 2779DPPC   C3A55039   8.787  19.054  22.877 -0.1848  0.0172  0.2522
 2779DPPC   C4A55040   8.633  18.715  23.069  0.1588 -0.1103  0.3011
 2779DPPC   C1B55041   8.790  18.702  22.167 -0.2919  0.1513 -0.0652
 2779DPPC   C2B55042   9.162  18.541  22.121  0.0089  0.1300  0.2811
 2779DPPC   C3B55043   9.557  18.541  22.245  0.1147  0.3477  0.0833
 2779DPPC   C4B55044   9.861  18.291  22.580 -0.2540 -0.2725 -0.0063
 2780DPPC   NC355045   0.041   6.696  27.771 -0.0400 -0.0518  0.1380
 2780DPPC   PO455046  26.946   6.849  27.392  0.3020 -0.0953  0.0538
 2780DPPC   GL155047  26.602   6.888  27.591  0.0484  0.0583  0.0593
 2780DPPC   GL255048  26.512   6.628  27.779  0.1812  0.2654  0.1677
 2780DPPC   C1A55049  26.048   6.956  27.583  0.2529  0.0939  0.1372
 2780DPPC   C2A55050  25.648   7.149  27.590  0.1718 -0.4175 -0.0824
 2780DPPC   C3A55051  25.346   7.497  27.734 -0.0432 -0.0318  0.2305
 2780DPPC   C4A55052  24.947   7.641  27.673  0.0866 -0.1487  0.0251
 2780DPPC   C1B55053  25.957   6.489  27.742  0.1182  0.0044  0.3850
 2780DPPC   C2B55054  25.499   6.666  27.604  0.0898 -0.1805  0.1257
 2780DPPC   C3B55055  25.030   6.751  27.602  0.1738  0.2000 -0.0366
 2780DPPC   C4B55056  24.785   7.071  27.786  0.0048  0.1463 -0.1018
 2781DPPC   NC355057  18.057  19.265  27.334  0.0037 -0.2120  0.2542
 2781DPPC   PO455058  17.869  19.612  27.525  0.4698  0.2085 -0.1289
 2781DPPC   GL155059  18.231  19.788  27.402  0.0260 -0.0562 -0.0714
 2781DPPC   GL255060  18.387  19.877  27.691  0.1232  0.0634 -0.0970
 2781DPPC   C1A55061  18.640  19.917  27.090  0.0559 -0.2767  0.1130
 2781DPPC   C2A55062  19.012  20.110  26.882 -0.1282 -0.1123  0.0131
 2781DPPC   C3A55063  19.448  20.362  26.881  0.0027  0.2676 -0.1477
 2781DPPC   C4A55064  19.600  20.737  26.969  0.1272  0.1474  0.1256
 2781DPPC   C1B55065  18.793  19.700  27.599  0.1362 -0.3165 -0.0668
 2781DPPC   C2B55066  19.188  19.950  27.854  0.0795  0.0963  0.2050
 2781DPPC   C3B55067  19.626  20.181  27.946 -0.2550 -0.0443  0.1173
 2781DPPC   C4B55068  20.032  20.377  27.764 -0.2004 -0.0898  0.3377
 2782DPPC   NC355069  14.671   9.252  16.003  0.0774  0.1053 -0.3749
 2782DPPC   PO455070  14.263   9.142  16.033  0.3007 -0.1562  0.1097
 2782DPPC   GL155071  14.491   9.167  16.433 -0.3839  0.0984 -0.2807
 2782DPPC   GL255072  14.834   9.397  16.504  0.1372 -0.0569  0.1766
 2782DPPC   C1A55073  14.379   9.328  16.771  0.1613  0.3938  0.0824
 2782DPPC   C2A55074  14.417   9.006  17.209 -0.5899  0.1004 -0.3241
 2782DPPC   C3A55075  14.377   8.803  17.578  0.1689  0.3741  0.0212
 2782DPPC   C4A55076  14.489   8.624  17.856 -0.2038  0.0189  0.1812
 2782DPPC   C1B55077  14.801   9.686  16.720  0.3441 -0.3368 -0.0466
 2782DPPC   C2B55078  14.969   9.959  17.025  0.1763 -0.0922  0.0288
 2782DPPC   C3B55079  14.964  10.085  17.380  0.0168  0.2163 -0.0334
 2782DPPC   C4B55080  14.922  10.017  17.775  0.2299 -0.0401  0.0079
 2783DPPC   NC355081  10.142  21.749  20.492  0.0380  0.0976  0.2674
 2783DPPC   PO455082  10.265  21.363  20.490  0.1462  0.0891 -0.2081
 2783DPPC   GL155083  10.284  21.079  20.854 -0.2152 -0.0069  0.1308
 2783DPPC   GL255084  10.296  20.692  20.863  0.3232  0.1520 -0.2113
 2783DPPC   C1A55085  10.454  20.922  21.221  0.0385 -0.0577  0.2557
 2783DPPC   C2A55086  10.772  20.705  21.470 -0.1013 -0.0651  0.1878
 2783DPPC   C3A55087  10.934  20.692  21.831  0.0130  0.1007  0.1644
 2783DPPC   C4A55088  11.235  20.957  22.173  0.2931 -0.1081  0.1149
 2783DPPC   C1B55089  10.597  20.376  21.009  0.1131 -0.0363 -0.1722
 2783DPPC   C2B55090  10.818  20.218  21.389  0.1957 -0.3194  0.2389
 2783DPPC   C3B55091  11.176  20.242  21.620  0.1777 -0.0814  0.0437
 2783DPPC   C4B55092  11.545  20.171  21.903  0.1405 -0.1288  0.1111
 2784DPPC   NC355093   0.104  14.990  29.812 -0.3941 -0.0284 -0.0031
 2784DPPC   PO455094   0.021  15.385  29.440  0.0888 -0.2370 -0.1086
 2784DPPC   GL155095  26.654  15.426  29.392  0.2454 -0.1320 -0.0817
 2784DPPC   GL255096  26.542  15.769  29.471  0.0581 -0.0455  0.3775
 2784DPPC   C1A55097  26.180  15.434  29.267 -0.0815  0.2206 -0.5355
 2784DPPC   C2A55098  25.941  15.034  29.405  0.0650 -0.1491 -0.0778
 2784DPPC   C3A55099  25.965  14.609  29.222 -0.2940  0.3471  0.2985
 2784DPPC   C4A55100  26.102  14.267  29.078 -0.0740 -0.0006 -0.3590
 2784DPPC   C1B55101  26.232  16.012  29.445  0.0811  0.1005  0.0780
 2784DPPC   C2B55102  25.816  15.932  29.301 -0.1024  0.0735  0.1378
 2784DPPC   C3B55103  25.414  15.725  29.225 -0.1271 -0.2149 -0.4103
 2784DPPC   C4B55104  25.086  15.510  29.061  0.0173  0.0100 -0.0488
 2785DPPC   NC355105  11.919   6.699  35.929 -0.2954  0.1389  0.0385
 2785DPPC   PO455106  11.838   6.484  35.490 -0.6296  0.0296  0.1378
 2785DPPC   GL155107  11.633   6.024  35.510 -0.3782  0.4254  0.0699
 2785DPPC   GL255108  11.411   5.953  35.359  0.0727 -0.1198 -0.0771
 2785DPPC   C1A55109  11.560   5.679  35.781  0.0383 -0.0600  0.3241
 2785DPPC   C2A55110  11.147   5.563  35.897 -0.1010  0.0598  0.1203
 2785DPPC   C3A55111  10.876   5.261  36.021  0.1305 -0.3158  0.0574
 2785DPPC   C4A55112  10.611   4.839  36.141  0.1315  0.1717 -0.0310
 2785DPPC   C1B55113  11.041   5.642  35.381  0.0621 -0.0898 -0.1311
 2785DPPC   C2B55114  10.866   5.302  35.476  0.0662 -0.0395  0.1134
 2785DPPC   C3B55115  10.489   5.086  35.658  0.1929 -0.0617 -0.1125
 2785DPPC   C4B55116  10.049   5.023  35.568  0.0522  0.3020 -0.3125
 2786DPPC   NC355117   0.013   8.054  26.438 -0.1659  0.0634  0.1059
 2786DPPC   PO455118  27.016   7.631  26.248 -0.2898  0.0873 -0.0013
 2786DPPC   GL155119  26.705   7.584  26.651 -0.0666 -0.0429  0.2209
 2786DPPC   GL255120  26.587   7.999  26.679  0.0786  0.0578  0.1018
 2786DPPC   C1A55121  26.394   7.608  26.960 -0.0068  0.0371 -0.1754
 2786DPPC   C2A55122  25.976   7.783  26.919 -0.3131 -0.2291 -0.0771
 2786DPPC   C3A55123  25.662   7.979  26.758 -0.2006 -0.2423  0.0779
 2786DPPC   C4A55124  25.141   7.986  26.798 -0.1028  0.0110  0.1594
 2786DPPC   C1B55125  26.155   8.095  26.511 -0.4188  0.0330 -0.0265
 2786DPPC   C2B55126  25.709   8.302  26.377  0.1413  0.0731  0.1447
 2786DPPC   C3B55127  25.321   8.375  26.522  0.2220 -0.1981 -0.1261
 2786DPPC   C4B55128  24.987   8.600  26.473  0.3091 -0.0331 -0.1056
 2787DPPC   NC355129  14.233   7.019  23.134  0.0240 -0.0780  0.1824
 2787DPPC   PO455130  14.117   7.239  22.811 -0.0158 -0.2235 -0.0655
 2787DPPC   GL155131  13.866   6.987  22.412 -0.1849 -0.2106  0.0622
 2787DPPC   GL255132  13.886   6.656  22.470 -0.0579  0.1874 -0.0257
 2787DPPC   C1A55133  13.610   7.187  22.196 -0.0137  0.0697  0.2779
 2787DPPC   C2A55134  13.136   7.208  22.054  0.1535  0.2536 -0.0707
 2787DPPC   C3A55135  12.779   6.937  21.990 -0.1215  0.0255 -0.3806
 2787DPPC   C4A55136  12.420   6.666  21.929  0.1274  0.3372 -0.0851
 2787DPPC   C1B55137  14.094   6.503  22.160  0.0613 -0.1436  0.1678
 2787DPPC   C2B55138  13.876   6.545  21.771 -0.1043  0.2335  0.0369
 2787DPPC   C3B55139  13.507   6.449  21.502  0.2281 -0.1694  0.1169
 2787DPPC   C4B55140  13.191   6.593  21.259 -0.0207 -0.0138 -0.0584
 2788DPPC   NC355141  16.647  19.318  16.718  0.0578  0.1503  0.0544
 2788DPPC   PO455142  16.825  18.869  16.731 -0.1279 -0.1816 -0.1742
 2788DPPC   GL155143  16.957  18.635  17.094  0.2280 -0.0836 -0.0444
 2788DPPC   GL255144  16.687  18.479  17.121  0.0565  0.0518  0.0920
 2788DPPC   C1A55145  16.894  18.441  17.601 -0.1187  0.3258  0.0764
 2788DPPC   C2A55146  16.900  18.513  18.076  0.1780  0.2019  0.1622
 2788DPPC   C3A55147  16.900  18.548  18.571 -0.0617 -0.1990  0.0402
 2788DPPC   C4A55148  16.663  18.644  18.896 -0.1041  0.0895  0.0722
 2788DPPC   C1B55149  16.481  18.224  17.518 -0.0897  0.2288  0.0814
 2788DPPC   C2B55150  16.101  17.958  17.690 -0.1488  0.0949 -0.0252
 2788DPPC   C3B55151  15.894  17.759  17.898 -0.0362  0.0320  0.0457
 2788DPPC   C4B55152  15.540  17.699  17.705 -0.0027  0.1517 -0.2363
 2789DPPC   NC355153  10.073  19.393  28.882  0.0743 -0.0061 -0.0038
 2789DPPC   PO455154   9.722  19.327  28.640  0.2363  0.1351 -0.1208
 2789DPPC   GL155155   9.531  19.695  28.522 -0.1466  0.3464 -0.0068
 2789DPPC   GL255156   9.548  19.703  28.198  0.0302 -0.1312 -0.3253
 2789DPPC   C1A55157   9.204  19.975  28.389 -0.1382  0.1098 -0.2636
 2789DPPC   C2A55158   9.297  20.401  28.258  0.1025 -0.1014  0.0245
 2789DPPC   C3A55159   9.050  20.765  28.419  0.1455  0.2022  0.0343
 2789DPPC   C4A55160   9.042  21.168  28.620 -0.1783  0.0591 -0.4463
 2789DPPC   C1B55161   9.701  20.076  28.164  0.0915 -0.1841 -0.0203
 2789DPPC   C2B55162   9.792  20.407  27.820  0.1968 -0.0598 -0.0578
 2789DPPC   C3B55163   9.720  20.747  27.649  0.0769 -0.0094 -0.2087
 2789DPPC   C4B55164   9.568  21.208  27.739  0.1512 -0.0793 -0.2406
 2790DPPC   NC355165  19.678  18.624  33.959 -0.2045  0.0726  0.1074
 2790DPPC   PO455166  19.826  18.752  33.463  0.0737  0.1956 -0.3281
 2790DPPC   GL155167  19.839  19.137  33.648 -0.1553  0.3065  0.0200
 2790DPPC   GL255168  19.851  19.157  33.941 -0.2541 -0.1116 -0.2328
 2790DPPC   C1A55169  20.015  19.450  33.545 -0.0619 -0.4026 -0.1373
 2790DPPC   C2A55170  20.133  19.831  33.792  0.0446 -0.0442 -0.0973
 2790DPPC   C3A55171  20.224  20.315  33.743 -0.1915  0.1235  0.1682
 2790DPPC   C4A55172  20.045  20.594  33.992  0.0425 -0.1951  0.0007
 2790DPPC   C1B55173  20.264  19.350  34.109  0.1955  0.0549 -0.3612
 2790DPPC   C2B55174  20.454  19.740  34.199  0.3292 -0.2318  0.0744
 2790DPPC   C3B55175  20.448  20.153  34.192 -0.0342  0.0106  0.0804
 2790DPPC   C4B55176  20.387  20.544  34.416  0.0345 -0.0563 -0.2931
 2791DPPC   NC355177  16.992   9.431  39.227 -0.1999  0.2505 -0.1252
 2791DPPC   PO455178  16.890   8.965  39.134  0.1641  0.0752 -0.0015
 2791DPPC   GL155179  16.982   8.561  39.250  0.0939  0.1354 -0.2149
 2791DPPC   GL255180  16.936   8.676  39.561  0.0913 -0.1195  0.2668
 2791DPPC   C1A55181  17.020   8.195  39.634 -0.0432  0.1342  0.0308
 2791DPPC   C2A55182  17.050   8.002  39.961  0.0099 -0.2157  0.4508
 2791DPPC   C3A55183  16.792   7.942  40.274  0.1888  0.1099  0.1338
 2791DPPC   C4A55184  16.857   7.918  40.729 -0.0221 -0.0334  0.1812
 2791DPPC   C1B55185  16.887   8.469  40.013 -0.1021 -0.2307  0.0723
 2791DPPC   C2B55186  17.026   8.414  40.287 -0.0262 -0.0451 -0.1351
 2791DPPC   C3B55187  17.289   8.076  40.395 -0.1679  0.1359 -0.2550
 2791DPPC   C4B55188  17.244   7.689  40.507  0.1229  0.0680  0.3131
 2792DPPC   NC355189   7.549  11.385  40.300  0.2041  0.1286 -0.0680
 2792DPPC   PO455190   7.641  11.230  40.669 -0.3778  0.2368  0.0720
 2792DPPC   GL155191   8.029  11.168  40.614 -0.1088 -0.0880  0.1471
 2792DPPC   GL255192   8.134  11.168  40.251 -0.1978 -0.1058  0.0988
 2792DPPC   C1A55193   8.419  11.228  40.821 -0.0042 -0.0580  0.0320
 2792DPPC   C2A55194   8.947  11.152  40.804  0.1271 -0.1862 -0.0758
 2792DPPC   C3A55195   9.195  11.135  40.458 -0.4447 -0.2953 -0.0100
 2792DPPC   C4A55196   9.553  11.212  40.267  0.0022 -0.0167  0.2081
 2792DPPC   C1B55197   8.146  11.397  39.949  0.2762  0.0591 -0.1896
 2792DPPC   C2B55198   8.268  11.321  39.498  0.0399 -0.3182  0.1749
 2792DPPC   C3B55199   8.717  11.159  39.413 -0.1762  0.0322  0.1318
 2792DPPC   C4B55200   8.993  10.702  39.557  0.1612 -0.1279  0.0892
 2793DPPC   NC355201   9.367  18.351  33.493  0.0365 -0.0998 -0.4462
 2793DPPC   PO455202   9.507  18.585  33.807  0.1311 -0.2218 -0.1302
 2793DPPC   GL155203   9.296  18.805  34.070 -0.1344 -0.1015  0.1392
 2793DPPC   GL255204   9.277  19.121  33.955 -0.0541 -0.0142  0.1260
 2793DPPC   C1A55205   9.026  18.980  34.398  0.2040 -0.3800 -0.0721
 2793DPPC   C2A55206   8.795  19.181  34.738  0.0642 -0.1002  0.1806
 2793DPPC   C3A55207   8.431  19.057  35.024  0.1930 -0.1940 -0.0902
 2793DPPC   C4A55208   7.985  19.073  35.141  0.1087  0.1116 -0.1253
 2793DPPC   C1B55209   8.874  19.442  34.198 -0.0570 -0.3108  0.1403
 2793DPPC   C2B55210   8.469  19.510  34.487  0.0026 -0.0717  0.1681
 2793DPPC   C3B55211   8.096  19.455  34.596  0.3138 -0.0207  0.2559
 2793DPPC   C4B55212   7.739  19.505  34.774 -0.0729 -0.1031 -0.3003
 2794DPPC   NC355213  16.123  24.968  26.591  0.1523 -0.2977  0.0547
 2794DPPC   PO455214  16.147  24.957  26.161  0.2795  0.1055 -0.0162
 2794DPPC   GL155215  16.032  24.533  26.360 -0.2083 -0.1115 -0.0826
 2794DPPC   GL255216  16.033  24.489  26.651  0.2478 -0.1224 -0.0131
 2794DPPC   C1A55217  15.838  24.204  26.254 -0.4915 -0.3944 -0.0878
 2794DPPC   C2A55218  15.316  24.016  26.221 -0.0524  0.0222 -0.1981
 2794DPPC   C3A55219  15.050  23.653  26.379 -0.0307  0.2137 -0.1639
 2794DPPC   C4A55220  14.671  23.486  26.621 -0.1037 -0.2710  0.1500
 2794DPPC   C1B55221  15.894  24.117  26.838 -0.3418 -0.1884 -0.0127
 2794DPPC   C2B55222  15.753  23.813  26.911  0.2929 -0.4066 -0.0714
 2794DPPC   C3B55223  15.474  23.546  27.125 -0.0935 -0.0061  0.0183
 2794DPPC   C4B55224  15.495  23.256  27.462 -0.2071 -0.2046  0.0502
 2795DPPC   NC355225  15.118  14.143  39.301  0.1063  0.2571 -0.2562
 2795DPPC   PO455226  15.343  14.448  39.617  0.0720  0.3159 -0.2040
 2795DPPC   GL155227  15.259  14.419  40.115  0.5307 -0.0428  0.2975
 2795DPPC   GL255228  15.455  14.243  40.277 -0.1183 -0.2043 -0.1716
 2795DPPC   C1A55229  15.229  14.594  40.616 -0.0543 -0.0311 -0.2305
 2795DPPC   C2A55230  15.443  14.696  41.108 -0.0790 -0.3581 -0.0916
 2795DPPC   C3A55231  15.666  14.347  41.309 -0.1536  0.2410  0.1532
 2795DPPC   C4A55232  16.051  14.067  41.249 -0.2061  0.0574 -0.0502
 2795DPPC   C1B55233  15.579  14.259  40.703 -0.1786 -0.0354 -0.0026
 2795DPPC   C2B55234  15.875  14.526  40.879 -0.0552  0.3944 -0.1594
 2795DPPC   C3B55235  16.190  14.524  40.952 -0.1893 -0.1206 -0.2717
 2795DPPC   C4B55236  16.436  14.325  41.248  0.1872  0.1812 -0.0174
 2796DPPC   NC355237  15.343   6.164  23.821  0.0667 -0.0792 -0.2637
 2796DPPC   PO455238  15.417   5.642  23.575 -0.1490 -0.2210  0.3050
 2796DPPC   GL155239  15.444   5.322  23.299  0.0713 -0.1675  0.0630
 2796DPPC   GL255240  15.726   5.234  23.134 -0.1667  0.1708 -0.1527
 2796DPPC   C1A55241  15.106   5.223  23.034 -0.0448 -0.0170  0.0454
 2796DPPC   C2A55242  14.888   5.072  22.702  0.0528 -0.0439  0.0620
 2796DPPC   C3A55243  14.652   4.846  22.505 -0.1375 -0.0112 -0.0589
 2796DPPC   C4A55244  14.198   4.723  22.676  0.0327 -0.2224  0.0667
 2796DPPC   C1B55245  15.558   4.942  23.015  0.2609 -0.0557  0.1567
 2796DPPC   C2B55246  15.270   4.747  22.797  0.0686  0.0903 -0.0312
 2796DPPC   C3B55247  15.363   4.339  22.716 -0.1362  0.2069  0.0009
 2796DPPC   C4B55248  15.541   3.857  22.864  0.2632 -0.0888 -0.0868
 2797DPPC   NC355249  14.404   7.606  16.670  0.0310 -0.0357 -0.0208
 2797DPPC   PO455250  14.034   7.441  16.992 -0.0367  0.2959 -0.1235
 2797DPPC   GL155251  14.266   7.679  17.284  0.1711 -0.2066 -0.2467
 2797DPPC   GL255252  14.302   7.649  17.569  0.4755  0.1670 -0.5330
 2797DPPC   C1A55253  14.492   8.021  17.330 -0.0941  0.2062  0.2170
 2797DPPC   C2A55254  14.724   8.405  17.423  0.1000  0.0186 -0.0197
 2797DPPC   C3A55255  14.959   8.568  17.704 -0.1165 -0.2785 -0.1326
 2797DPPC   C4A55256  15.098   8.650  18.175 -0.0476 -0.0859  0.1298
 2797DPPC   C1B55257  14.713   7.801  17.790  0.1880 -0.0367  0.0139
 2797DPPC   C2B55258  14.758   8.242  18.028 -0.0648 -0.3082 -0.1518
 2797DPPC   C3B55259  14.611   8.521  18.382  0.2207  0.1263 -0.0283
 2797DPPC   C4B55260  14.484   8.881  18.664 -0.3476  0.1061 -0.1529
 2798DPPC   NC355261  19.757  17.234  27.678  0.1951 -0.1768 -0.0756
 2798DPPC   PO455262  20.110  17.411  27.581  0.0427  0.0057 -0.1361
 2798DPPC   GL155263  20.480  17.430  27.386  0.0435 -0.1887 -0.1775
 2798DPPC   GL255264  20.440  17.282  27.167  0.0430 -0.0282  0.0131
 2798DPPC   C1A55265  20.830  17.664  27.390 -0.0984 -0.1190  0.0168
 2798DPPC   C2A55266  21.157  17.718  27.276 -0.1360  0.2257 -0.0028
 2798DPPC   C3A55267  21.550  17.918  27.086  0.1865  0.1652  0.0996
 2798DPPC   C4A55268  21.914  18.102  27.093  0.0680 -0.2301  0.2377
 2798DPPC   C1B55269  20.567  17.505  26.865  0.1750  0.3057 -0.1370
 2798DPPC   C2B55270  20.958  17.751  26.744  0.3126 -0.0506 -0.1076
 2798DPPC   C3B55271  21.056  18.155  26.671 -0.2610 -0.4545 -0.1602
 2798DPPC   C4B55272  21.208  18.563  26.846  0.0853  0.1770 -0.1150
 2799DPPC   NC355273  20.355  23.473  29.230  0.0547  0.1774 -0.0002
 2799DPPC   PO455274  20.449  23.063  29.337 -0.3425  0.0044  0.0304
 2799DPPC   GL155275  20.232  22.630  29.128 -0.0130  0.2794  0.0966
 2799DPPC   GL255276  20.036  22.604  28.952 -0.0426  0.0021 -0.1516
 2799DPPC   C1A55277  20.088  22.112  29.303 -0.1827  0.1694  0.0999
 2799DPPC   C2A55278  19.884  21.884  29.674  0.0474 -0.0795  0.1331
 2799DPPC   C3A55279  19.933  21.416  29.801 -0.0023 -0.2401  0.2866
 2799DPPC   C4A55280  19.668  21.052  29.760 -0.1177  0.1712  0.1323
 2799DPPC   C1B55281  19.763  22.235  28.973 -0.1111  0.2810  0.0495
 2799DPPC   C2B55282  19.728  21.827  29.068  0.0968 -0.1382  0.2000
 2799DPPC   C3B55283  19.582  21.492  29.434  0.2586 -0.0070 -0.0235
 2799DPPC   C4B55284  19.239  21.181  29.607  0.3384 -0.0355 -0.0765
 2800DPPC   NC355285  20.943  17.562  41.533 -0.4509 -0.1687  0.4667
 2800DPPC   PO455286  20.686  17.785  41.182 -0.1798 -0.0398 -0.0492
 2800DPPC   GL155287  20.394  17.617  40.854 -0.0646  0.1733 -0.1349
 2800DPPC   GL255288  20.644  17.485  40.579 -0.1062 -0.0270  0.3593
 2800DPPC   C1A55289  20.089  17.394  40.523  0.4525 -0.2187  0.1567
 2800DPPC   C2A55290  19.717  17.377  40.300 -0.1017 -0.2832 -0.1567
 2800DPPC   C3A55291  19.550  17.240  39.975 -0.3801  0.0311  0.4353
 2800DPPC   C4A55292  19.385  17.002  39.669 -0.2780  0.0785  0.1457
 2800DPPC   C1B55293  20.725  17.538  40.156 -0.0713 -0.2233 -0.0969
 2800DPPC   C2B55294  20.709  17.151  39.904  0.0586 -0.1706  0.2709
 2800DPPC   C3B55295  20.399  16.888  39.516  0.1765  0.0632  0.1578
 2800DPPC   C4B55296  19.961  16.679  39.351 -0.0560 -0.2545 -0.3075
 2801DPPC   NC355297  14.271  10.294  44.614 -0.0053 -0.0035  0.0370
 2801DPPC   PO455298  14.443  10.492  44.125 -0.0032 -0.1332 -0.0680
 2801DPPC   GL155299  14.289  10.668  43.684 -0.0508 -0.0464 -0.1889
 2801DPPC   GL255300  14.017  10.458  43.507 -0.0366  0.1016 -0.3394
 2801DPPC   C1A55301  14.336  10.911  43.343  0.1329  0.1158  0.1276
 2801DPPC   C2A55302  14.301  11.071  42.857 -0.0142 -0.2288  0.5483
 2801DPPC   C3A55303  14.592  11.111  42.496 -0.0796  0.2262  0.0843
 2801DPPC   C4A55304  14.876  10.944  42.065  0.2093 -0.2703  0.2038
 2801DPPC   C1B55305  13.885  10.306  43.030 -0.2268  0.0773 -0.0145
 2801DPPC   C2B55306  13.881  10.430  42.604 -0.4600 -0.0759  0.0914
 2801DPPC   C3B55307  14.020  10.788  42.509 -0.2051 -0.0644 -0.1622
 2801DPPC   C4B55308  14.144  11.173  42.364  0.5843 -0.0998 -0.2752
 2802DPPC   NC355309  21.354  17.507  32.346  0.0515 -0.1393 -0.0186
 2802DPPC   PO455310  21.559  17.253  32.315 -0.4342  0.0288 -0.3707
 2802DPPC   GL155311  21.630  17.654  31.972 -0.1973 -0.1249 -0.1400
 2802DPPC   GL255312  21.451  17.935  32.038  0.1418 -0.0248 -0.3093
 2802DPPC   C1A55313  21.913  17.793  31.533  0.0218  0.2215 -0.0266
 2802DPPC   C2A55314  22.237  17.825  31.317  0.4139 -0.1834 -0.0401
 2802DPPC   C3A55315  22.696  17.880  31.231 -0.2735  0.2520 -0.1912
 2802DPPC   C4A55316  23.098  17.693  31.179 -0.4269  0.0311  0.0305
 2802DPPC   C1B55317  21.507  18.260  31.769 -0.1087  0.1243  0.3194
 2802DPPC   C2B55318  21.829  18.584  31.821 -0.1759 -0.1011 -0.2507
 2802DPPC   C3B55319  22.173  18.718  31.477  0.3480 -0.1126 -0.1626
 2802DPPC   C4B55320  22.235  18.695  31.029 -0.1996 -0.3013  0.2708
 2803DPPC   NC355321  21.614  10.086  37.236 -0.1669  0.0076 -0.0254
 2803DPPC   PO455322  21.397  10.327  37.587 -0.2221 -0.4174 -0.2750
 2803DPPC   GL155323  21.810  10.322  37.724 -0.1717 -0.4256 -0.1808
 2803DPPC   GL255324  22.025  10.073  37.552  0.4311  0.1657  0.4554
 2803DPPC   C1A55325  21.996  10.081  38.103 -0.0071 -0.0474 -0.1186
 2803DPPC   C2A55326  22.023   9.896  38.533 -0.0332  0.1626  0.0263
 2803DPPC   C3A55327  22.286   9.997  38.896  0.1225 -0.1268  0.0805
 2803DPPC   C4A55328  22.644  10.250  38.894  0.0283 -0.0444  0.0988
 2803DPPC   C1B55329  22.190   9.661  37.746 -0.2617  0.1011 -0.0479
 2803DPPC   C2B55330  22.317   9.278  37.978  0.1896 -0.0267  0.2632
 2803DPPC   C3B55331  22.598   8.930  37.874  0.1823 -0.2103  0.0719
 2803DPPC   C4B55332  22.866   8.729  38.024 -0.0713 -0.0268 -0.5415
 2804DPPC   NC355333  13.338  19.984  17.816 -0.1580  0.0964 -0.2089
 2804DPPC   PO455334  13.058  20.106  18.110  0.0768  0.0378 -0.0368
 2804DPPC   GL155335  13.225  19.844  18.497  0.0915  0.0419  0.1198
 2804DPPC   GL255336  13.152  19.958  18.809  0.3738 -0.1144  0.1176
 2804DPPC   C1A55337  13.426  19.375  18.614 -0.0047 -0.3034  0.2837
 2804DPPC   C2A55338  13.712  19.077  18.926 -0.1133  0.1015 -0.1784
 2804DPPC   C3A55339  13.934  18.835  18.708 -0.3785  0.2044  0.2302
 2804DPPC   C4A55340  14.183  18.509  18.832 -0.0206 -0.2775 -0.0169
 2804DPPC   C1B55341  13.240  19.541  19.004 -0.0739 -0.3481 -0.1607
 2804DPPC   C2B55342  13.412  19.281  19.287 -0.1723 -0.2643 -0.2774
 2804DPPC   C3B55343  13.565  19.052  19.641 -0.0800 -0.0987 -0.4108
 2804DPPC   C4B55344  13.769  18.773  19.996 -0.0484 -0.1799 -0.0303
 2805DPPC   NC355345  17.869  13.018  38.963  0.2699 -0.0231  0.0673
 2805DPPC   PO455346  17.915  13.463  38.999 -0.3033  0.1637  0.1601
 2805DPPC   GL155347  18.015  13.648  39.320  0.0200  0.0487  0.1357
 2805DPPC   GL255348  17.774  13.569  39.592  0.0594 -0.1642  0.0183
 2805DPPC   C1A55349  18.301  13.514  39.813  0.0171  0.2458  0.4004
 2805DPPC   C2A55350  18.289  13.674  40.184  0.0833 -0.2472  0.0936
 2805DPPC   C3A55351  18.659  13.568  40.552 -0.3192  0.0940 -0.1236
 2805DPPC   C4A55352  18.643  13.620  40.932  0.2668  0.0938 -0.1536
 2805DPPC   C1B55353  17.864  13.502  40.057  0.0316 -0.0192  0.4780
 2805DPPC   C2B55354  17.838  13.578  40.438 -0.2818 -0.2313  0.0692
 2805DPPC   C3B55355  17.611  13.191  40.730  0.2058  0.1153  0.2302
 2805DPPC   C4B55356  17.519  13.099  41.146  0.1472 -0.2148 -0.3720
 2806DPPC   NC355357  18.738  10.941  24.697  0.0641 -0.0460  0.3044
 2806DPPC   PO455358  18.756  10.835  25.085 -0.0353 -0.3201 -0.0701
 2806DPPC   GL155359  18.390  10.990  25.221  0.1742  0.3974 -0.2432
 2806DPPC   GL255360  18.287  10.853  25.476  0.0778 -0.0851  0.0204
 2806DPPC   C1A55361  18.045  11.249  25.028 -0.1994  0.4851 -0.0472
 2806DPPC   C2A55362  17.772  11.567  25.190 -0.1855 -0.1929 -0.0839
 2806DPPC   C3A55363  17.565  11.936  25.417  0.0497  0.3218 -0.0749
 2806DPPC   C4A55364  17.346  12.301  25.466  0.0075 -0.0171 -0.0968
 2806DPPC   C1B55365  17.892  11.107  25.592 -0.2135  0.3939  0.2278
 2806DPPC   C2B55366  17.650  11.370  25.822  0.0253 -0.0337  0.4101
 2806DPPC   C3B55367  17.245  11.660  25.747 -0.1226 -0.3052  0.1855
 2806DPPC   C4B55368  16.838  11.365  25.886 -0.3897  0.1090 -0.0480
 2807DPPC   NC355369  20.099  23.029  35.666  0.1308 -0.1294  0.0154
 2807DPPC   PO455370  20.526  22.948  35.655 -0.2133  0.0328  0.0535
 2807DPPC   GL155371  20.212  22.568  35.663 -0.2523 -0.1298 -0.1694
 2807DPPC   GL255372  20.031  22.592  36.088  0.0261 -0.0764 -0.2004
 2807DPPC   C1A55373  19.994  22.212  35.706 -0.0070 -0.1590 -0.2511
 2807DPPC   C2A55374  19.916  21.837  35.442  0.2065 -0.0848  0.1918
 2807DPPC   C3A55375  19.996  21.554  35.159  0.0084 -0.1398  0.4131
 2807DPPC   C4A55376  20.029  21.396  34.745  0.0880  0.2327 -0.0816
 2807DPPC   C1B55377  19.731  22.284  36.182  0.0354  0.0223  0.0011
 2807DPPC   C2B55378  19.592  21.934  35.863 -0.3789  0.2040 -0.0109
 2807DPPC   C3B55379  19.545  21.500  35.702  0.0543 -0.0942  0.1913
 2807DPPC   C4B55380  19.391  21.143  35.613 -0.0761  0.3268 -0.0852
 2808DPPC   NC355381   7.980  11.773  33.827 -0.1909  0.1874 -0.0898
 2808DPPC   PO455382   7.814  12.174  33.943  0.3145 -0.0220 -0.0751
 2808DPPC   GL155383   7.364  12.147  33.984 -0.0950 -0.2405  0.2015
 2808DPPC   GL255384   7.237  12.247  34.329 -0.0953 -0.2599 -0.0739
 2808DPPC   C1A55385   6.865  12.205  33.945 -0.0173 -0.0841  0.2799
 2808DPPC   C2A55386   6.601  12.345  33.685 -0.0254 -0.0918  0.0893
 2808DPPC   C3A55387   6.161  12.513  33.475  0.2634  0.0936  0.0395
 2808DPPC   C4A55388   5.935  12.755  33.734  0.2361  0.1397  0.0661
 2808DPPC   C1B55389   6.874  12.233  34.688  0.2535 -0.4516 -0.0837
 2808DPPC   C2B55390   6.632  12.590  34.778 -0.0127 -0.1117 -0.2192
 2808DPPC   C3B55391   6.230  12.847  34.845 -0.1374  0.1061  0.0457
 2808DPPC   C4B55392   5.904  12.932  34.765  0.1699 -0.0338 -0.2011
 2809DPPC   NC355393  22.619  11.749  23.110  0.3270 -0.0027  0.2176
 2809DPPC   PO455394  22.778  11.331  23.057  0.0506  0.2933  0.0209
 2809DPPC   GL155395  23.125  11.754  23.035 -0.2542 -0.1001  0.1993
 2809DPPC   GL255396  23.177  11.695  22.757 -0.0326 -0.2930 -0.0075
 2809DPPC   C1A55397  23.394  12.183  23.250  0.4770  0.2156  0.1283
 2809DPPC   C2A55398  23.682  12.566  23.347  0.2435 -0.0622 -0.0179
 2809DPPC   C3A55399  23.964  12.809  23.655  0.0588 -0.3224  0.0051
 2809DPPC   C4A55400  24.205  13.153  23.902 -0.1562  0.0763  0.0093
 2809DPPC   C1B55401  23.590  11.902  22.827  0.0098 -0.1603  0.1552
 2809DPPC   C2B55402  23.932  11.970  23.182  0.0745 -0.2011  0.0180
 2809DPPC   C3B55403  24.328  11.846  23.524 -0.2049 -0.2541 -0.0326
 2809DPPC   C4B55404  24.789  11.771  23.471 -0.1231 -0.0453  0.4131
 2810DPPC   NC355405  20.367  10.614  38.339 -0.3069  0.2221  0.2869
 2810DPPC   PO455406  20.527  10.702  38.692 -0.2831 -0.2504  0.1832
 2810DPPC   GL155407  20.888  10.498  38.795 -0.2875  0.0763 -0.1863
 2810DPPC   GL255408  20.888  10.411  38.477  0.0861  0.1272  0.0957
 2810DPPC   C1A55409  21.028  10.367  39.199 -0.0113  0.0374  0.2936
 2810DPPC   C2A55410  21.221  10.562  39.563 -0.2746  0.0460 -0.1412
 2810DPPC   C3A55411  21.043  10.832  39.913  0.1858  0.2918 -0.1486
 2810DPPC   C4A55412  20.750  11.187  40.034  0.2879 -0.1329 -0.0554
 2810DPPC   C1B55413  21.355  10.241  38.687  0.2333 -0.1295 -0.2949
 2810DPPC   C2B55414  21.723  10.179  38.757  0.0921 -0.1908 -0.1707
 2810DPPC   C3B55415  21.999  10.378  39.020  0.2613 -0.1038 -0.1767
 2810DPPC   C4B55416  22.127  10.652  39.349 -0.1804 -0.2164  0.0766
 2811DPPC   NC355417  12.548  21.180  29.266 -0.1859  0.0311 -0.1587
 2811DPPC   PO455418  12.826  21.224  28.930  0.1347 -0.1924 -0.1408
 2811DPPC   GL155419  12.416  21.449  28.849 -0.0333 -0.1037  0.1609
 2811DPPC   GL255420  12.415  21.672  29.081 -0.2049 -0.4200  0.0779
 2811DPPC   C1A55421  12.072  21.866  28.780 -0.0147  0.1007  0.1685
 2811DPPC   C2A55422  11.987  22.171  29.095  0.0764  0.1505  0.1272
 2811DPPC   C3A55423  11.640  22.454  29.061  0.1910  0.2554 -0.1642
 2811DPPC   C4A55424  11.053  22.617  28.986 -0.0413  0.0818 -0.3268
 2811DPPC   C1B55425  12.462  22.018  29.276 -0.1763  0.0065  0.0149
 2811DPPC   C2B55426  12.589  22.425  29.428 -0.1940  0.3049 -0.1972
 2811DPPC   C3B55427  12.982  22.712  29.684 -0.3644  0.0055  0.2360
 2811DPPC   C4B55428  13.112  23.057  29.909 -0.0678 -0.1155  0.0698
 2812DPPC   NC355429  22.300   8.762  25.332  0.1396 -0.1983 -0.2430
 2812DPPC   PO455430  22.764   8.800  25.591  0.1297  0.3280  0.0509
 2812DPPC   GL155431  23.127   8.606  25.606 -0.3205 -0.4060  0.1501
 2812DPPC   GL255432  23.215   8.581  25.326  0.0453  0.3480 -0.0732
 2812DPPC   C1A55433  23.537   8.274  25.536 -0.1352  0.1189  0.0864
 2812DPPC   C2A55434  23.785   7.932  25.444 -0.1343  0.0491  0.0072
 2812DPPC   C3A55435  24.154   7.957  25.226 -0.0304  0.0868 -0.0074
 2812DPPC   C4A55436  24.507   8.127  25.202 -0.2802  0.1627  0.0613
 2812DPPC   C1B55437  23.597   8.557  25.157  0.4875 -0.0079  0.2446
 2812DPPC   C2B55438  23.993   8.401  25.131 -0.0741  0.2782 -0.0801
 2812DPPC   C3B55439  24.325   8.563  25.325  0.0470 -0.2905 -0.2528
 2812DPPC   C4B55440  24.590   8.437  25.678  0.1433  0.1102  0.1537
 2813DPPC   NC355441  18.035   4.827  25.414 -0.2378 -0.3559  0.1700
 2813DPPC   PO455442  17.632   4.943  25.244  0.0155 -0.0694 -0.1983
 2813DPPC   GL155443  17.827   4.715  24.890  0.1143 -0.0281 -0.0291
 2813DPPC   GL255444  18.036   4.502  24.949  0.0028  0.1264 -0.2861
 2813DPPC   C1A55445  17.633   4.547  24.470  0.0548  0.1686 -0.0706
 2813DPPC   C2A55446  17.749   4.486  24.060  0.0391  0.1040 -0.1815
 2813DPPC   C3A55447  17.892   4.069  23.830 -0.0283 -0.3727  0.2118
 2813DPPC   C4A55448  17.874   3.701  23.843 -0.0573 -0.2314  0.0178
 2813DPPC   C1B55449  18.208   4.002  25.019 -0.0094 -0.3133 -0.1343
 2813DPPC   C2B55450  18.453   3.643  25.139  0.0496 -0.0070 -0.1287
 2813DPPC   C3B55451  18.595   3.198  24.958  0.2276  0.0577  0.2452
 2813DPPC   C4B55452  18.784   2.896  24.878 -0.0605  0.0420  0.0082
 2814DPPC   NC355453  10.045  12.971  23.144 -0.1120 -0.0359 -0.0908
 2814DPPC   PO455454  10.199  13.307  23.079  0.4043 -0.0381 -0.2966
 2814DPPC   GL155455   9.878  13.476  22.818 -0.2247  0.3055  0.2217
 2814DPPC   GL255456   9.648  13.279  22.959 -0.2377  0.0486 -0.1061
 2814DPPC   C1A55457   9.621  13.430  22.370 -0.2320  0.2498  0.0130
 2814DPPC   C2A55458   9.378  13.657  22.095  0.1119  0.0576 -0.0562
 2814DPPC   C3A55459   9.587  13.670  21.647  0.0482  0.1397  0.0450
 2814DPPC   C4A55460   9.442  13.822  21.207 -0.3586 -0.0940  0.1014
 2814DPPC   C1B55461   9.362  13.127  22.653 -0.0496  0.0406 -0.0641
 2814DPPC   C2B55462   9.080  13.016  22.338  0.1888 -0.0240 -0.1194
 2814DPPC   C3B55463   9.134  12.653  22.041 -0.0775  0.0145 -0.0523
 2814DPPC   C4B55464   9.364  12.554  21.532 -0.0346 -0.1655 -0.3559
 2815DPPC   NC355465  17.903  10.416  19.457  0.0512  0.0117  0.0094
 2815DPPC   PO455466  17.863  10.128  19.155 -0.0587 -0.2664  0.0000
 2815DPPC   GL155467  17.755  10.164  18.764  0.0834 -0.1592  0.0814
 2815DPPC   GL255468  17.645  10.494  18.566 -0.1454 -0.0711  0.0858
 2815DPPC   C1A55469  17.506   9.904  18.440 -0.0192 -0.1342  0.1041
 2815DPPC   C2A55470  17.402  10.029  17.995 -0.1298 -0.1140 -0.0607
 2815DPPC   C3A55471  17.016  10.190  17.771  0.0467  0.4226  0.1184
 2815DPPC   C4A55472  17.019  10.419  17.388 -0.0945 -0.0955 -0.0193
 2815DPPC   C1B55473  17.806  10.292  18.208 -0.3514 -0.2185 -0.0861
 2815DPPC   C2B55474  17.976  10.477  17.905  0.4445  0.1675  0.1048
 2815DPPC   C3B55475  17.868  10.638  17.515 -0.1301  0.1499  0.2233
 2815DPPC   C4B55476  18.092  11.049  17.427 -0.1513 -0.0311 -0.4827
 2816DPPC   NC355477  25.839  17.971  36.033 -0.1950  0.1138 -0.1279
 2816DPPC   PO455478  25.616  17.746  35.650 -0.0484 -0.4725  0.1914
 2816DPPC   GL155479  25.437  17.413  35.608  0.3240 -0.0486 -0.0497
 2816DPPC   GL255480  25.362  17.301  35.323  0.0245 -0.0057  0.0697
 2816DPPC   C1A55481  25.062  17.274  35.809  0.1793  0.0004  0.0807
 2816DPPC   C2A55482  24.742  17.106  35.975 -0.1553  0.2079  0.1923
 2816DPPC   C3A55483  24.320  17.138  35.888 -0.1857 -0.0598  0.1585
 2816DPPC   C4A55484  23.904  17.193  35.797  0.2900  0.1920  0.0804
 2816DPPC   C1B55485  25.056  17.033  35.050  0.0919 -0.2255 -0.0386
 2816DPPC   C2B55486  24.699  16.741  35.096  0.3039  0.2791 -0.2065
 2816DPPC   C3B55487  24.221  16.700  35.053  0.3524 -0.1275  0.2093
 2816DPPC   C4B55488  23.890  16.468  35.113  0.1556  0.0453  0.5475
 2817DPPC   NC355489  10.784  17.351  36.220  0.0394  0.2260 -0.3247
 2817DPPC   PO455490  11.198  17.282  36.174  0.0354 -0.2218  0.0781
 2817DPPC   GL155491  11.043  17.566  36.557 -0.0321 -0.0396  0.1913
 2817DPPC   GL255492  11.150  17.922  36.695 -0.0507  0.3653 -0.0536
 2817DPPC   C1A55493  10.625  17.638  36.824 -0.2065 -0.0064 -0.0396
 2817DPPC   C2A55494  10.400  17.960  37.065 -0.2278 -0.1061 -0.0104
 2817DPPC   C3A55495  10.234  18.352  37.402  0.0119 -0.0994 -0.1625
 2817DPPC   C4A55496  10.166  18.750  37.457  0.1435  0.2235 -0.1994
 2817DPPC   C1B55497  10.865  18.159  36.904  0.0037 -0.1548 -0.4109
 2817DPPC   C2B55498  10.750  18.207  37.406 -0.0538 -0.1049  0.5314
 2817DPPC   C3B55499  10.454  18.164  37.780  0.0304 -0.2214  0.4248
 2817DPPC   C4B55500  10.467  18.234  38.291 -0.1372  0.0142  0.2895
 2818DPPC   NC355501  20.963  19.883  39.055  0.0351  0.3950 -0.2032
 2818DPPC   PO455502  20.524  19.985  39.394  0.0101 -0.2882  0.0097
 2818DPPC   GL155503  20.406  19.718  39.092 -0.2510 -0.0694 -0.2615
 2818DPPC   GL255504  20.275  19.880  38.862  0.1256 -0.1699 -0.2684
 2818DPPC   C1A55505  20.095  19.346  39.114  0.0303 -0.1173 -0.0626
 2818DPPC   C2A55506  19.983  18.970  38.907  0.1437 -0.0042 -0.1087
 2818DPPC   C3A55507  19.640  18.813  38.709 -0.0379 -0.0942  0.0990
 2818DPPC   C4A55508  19.280  18.902  38.437  0.0918  0.0522 -0.1434
 2818DPPC   C1B55509  19.872  19.831  38.654 -0.0378 -0.0183  0.1708
 2818DPPC   C2B55510  19.418  19.730  38.544  0.1392 -0.0488  0.1870
 2818DPPC   C3B55511  19.060  19.443  38.435 -0.2132  0.0663 -0.1029
 2818DPPC   C4B55512  18.741  19.070  38.427 -0.0767  0.0825  0.1310
 2819DPPC   NC355513  24.552  17.957  26.680  0.3139 -0.1700  0.1528
 2819DPPC   PO455514  24.199  18.082  26.334  0.1083  0.0847 -0.1269
 2819DPPC   GL155515  23.835  18.140  26.661 -0.1391 -0.0139  0.0896
 2819DPPC   GL255516  23.771  18.357  26.931  0.1158 -0.0596 -0.0639
 2819DPPC   C1A55517  23.419  18.113  26.659 -0.3221 -0.1884  0.2581
 2819DPPC   C2A55518  23.100  18.323  26.721 -0.0029  0.1395 -0.2446
 2819DPPC   C3A55519  22.736  18.194  26.767  0.4193  0.3178  0.0712
 2819DPPC   C4A55520  22.290  18.226  26.761 -0.2118  0.2132 -0.1180
 2819DPPC   C1B55521  23.513  18.097  27.106  0.1735 -0.0013  0.1509
 2819DPPC   C2B55522  23.073  18.246  27.240 -0.2186  0.1939  0.0598
 2819DPPC   C3B55523  22.865  18.563  27.081 -0.1633  0.0273  0.0665
 2819DPPC   C4B55524  22.732  18.711  26.697 -0.3866  0.0760  0.3585
 2820DPPC   NC355525  17.011   4.392  27.206 -0.1580  0.2195 -0.2348
 2820DPPC   PO455526  17.257   4.212  27.571 -0.1858  0.0655  0.1507
 2820DPPC   GL155527  17.235   3.788  27.490  0.4149  0.1677  0.1832
 2820DPPC   GL255528  17.418   3.720  27.824  0.0154 -0.0429  0.5238
 2820DPPC   C1A55529  17.034   3.377  27.308  0.1552  0.2849 -0.0569
 2820DPPC   C2A55530  16.830   2.968  27.368  0.0265  0.0710 -0.3883
 2820DPPC   C3A55531  17.155   2.737  27.546 -0.1226  0.0898 -0.0378
 2820DPPC   C4A55532  17.228   2.434  27.713  0.1000 -0.2079  0.1336
 2820DPPC   C1B55533  17.597   3.376  28.100  0.1709 -0.2042 -0.1353
 2820DPPC   C2B55534  17.819   3.066  28.271 -0.0769 -0.1197  0.2574
 2820DPPC   C3B55535  17.742   2.628  28.493  0.0406  0.0786  0.2176
 2820DPPC   C4B55536  17.815   2.113  28.502  0.3437  0.2314  0.3092
 2821DPPC   NC355537  11.271  12.673  21.682  0.1958  0.0821  0.5176
 2821DPPC   PO455538  11.497  12.300  21.671  0.0032 -0.1295  0.1812
 2821DPPC   GL155539  11.380  12.403  21.266 -0.2673 -0.0072  0.0270
 2821DPPC   GL255540  11.558  12.436  21.144 -0.0292  0.0987  0.0041
 2821DPPC   C1A55541  10.971  12.469  21.110 -0.2251  0.2580 -0.0453
 2821DPPC   C2A55542  10.751  12.412  20.715 -0.0759 -0.0897  0.0284
 2821DPPC   C3A55543  10.508  12.605  20.492  0.1302  0.2729  0.0842
 2821DPPC   C4A55544  10.330  12.963  20.301 -0.2728  0.0180 -0.0294
 2821DPPC   C1B55545  11.310  12.524  20.724 -0.1288 -0.2552 -0.0460
 2821DPPC   C2B55546  11.470  12.209  20.401 -0.2836  0.1261  0.0849
 2821DPPC   C3B55547  11.433  12.247  19.965  0.2292  0.2564  0.0896
 2821DPPC   C4B55548  11.191  12.516  19.764 -0.0831 -0.1459  0.0994
 2822DPPC   NC355549  16.832   9.975  27.416 -0.1246 -0.0487 -0.0774
 2822DPPC   PO455550  16.433  10.185  27.092  0.1859  0.0044  0.1366
 2822DPPC   GL155551  16.541  10.310  26.752  0.1334 -0.2558 -0.0240
 2822DPPC   GL255552  16.928  10.489  26.710  0.0808 -0.3589 -0.4529
 2822DPPC   C1A55553  16.570  10.399  26.330  0.0305 -0.1671 -0.4913
 2822DPPC   C2A55554  16.414  10.611  25.959 -0.0660  0.0751  0.0361
 2822DPPC   C3A55555  16.231  10.920  25.963  0.0406 -0.4735 -0.1323
 2822DPPC   C4A55556  16.021  11.216  25.848  0.1149  0.2561  0.0660
 2822DPPC   C1B55557  16.613  10.813  26.613  0.0054  0.1933  0.0831
 2822DPPC   C2B55558  16.178  10.705  26.490 -0.0000 -0.0894  0.0176
 2822DPPC   C3B55559  15.812  10.622  26.190 -0.2437 -0.1482 -0.1369
 2822DPPC   C4B55560  15.616  10.961  25.985  0.1668  0.0030 -0.3396
 2823DPPC   NC355561  21.595  11.953  37.554  0.1003 -0.2112 -0.0282
 2823DPPC   PO455562  21.329  12.079  37.786  0.1053  0.2941  0.0463
 2823DPPC   GL155563  21.659  12.037  38.087 -0.2077 -0.0965  0.3213
 2823DPPC   GL255564  21.733  11.722  38.063 -0.0071  0.1139 -0.2728
 2823DPPC   C1A55565  21.909  12.287  38.364 -0.0168 -0.1362 -0.1798
 2823DPPC   C2A55566  22.070  12.502  38.729 -0.1112 -0.0442 -0.1674
 2823DPPC   C3A55567  22.322  12.406  39.145 -0.0822  0.2883 -0.2028
 2823DPPC   C4A55568  22.128  12.429  39.683  0.2308 -0.0857  0.1727
 2823DPPC   C1B55569  22.030  11.685  38.468 -0.0400 -0.1499  0.3873
 2823DPPC   C2B55570  22.040  12.026  38.876 -0.2403 -0.0533  0.2583
 2823DPPC   C3B55571  22.026  11.951  39.270 -0.2435 -0.1908  0.0578
 2823DPPC   C4B55572  22.104  11.684  39.658 -0.2173 -0.0769  0.4418
 2824DPPC   NC355573  10.316  10.862  36.560 -0.0945  0.1237 -0.1846
 2824DPPC   PO455574   9.875  10.874  36.841  0.1634 -0.1967 -0.0579
 2824DPPC   GL155575   9.658  10.997  37.074  0.0758  0.2303 -0.1376
 2824DPPC   GL255576   9.529  11.265  37.138  0.1552  0.2283 -0.1818
 2824DPPC   C1A55577   9.264  10.844  37.282  0.1548  0.3095  0.0174
 2824DPPC   C2A55578   8.820  10.849  37.170  0.0626  0.0138 -0.0212
 2824DPPC   C3A55579   8.570  10.582  37.475 -0.0019 -0.0581  0.1167
 2824DPPC   C4A55580   8.592  10.196  37.681 -0.0934 -0.2563 -0.0444
 2824DPPC   C1B55581   9.680  11.165  37.583 -0.0333  0.1736  0.1049
 2824DPPC   C2B55582   9.576  11.152  38.041  0.2352 -0.0447 -0.0434
 2824DPPC   C3B55583   9.370  11.252  38.371  0.1199  0.0728  0.0994
 2824DPPC   C4B55584   9.018  11.134  38.650 -0.2072 -0.1730 -0.2482
 2825DPPC   NC355585  14.358   7.106  37.534 -0.0374 -0.0897 -0.1543
 2825DPPC   PO455586  14.655   7.235  37.843 -0.0383 -0.1142  0.2185
 2825DPPC   GL155587  14.718   6.810  38.133  0.2261 -0.0595  0.1233
 2825DPPC   GL255588  14.960   6.581  38.112 -0.1595  0.2567  0.3649
 2825DPPC   C1A55589  14.379   6.553  38.408 -0.0524  0.3684  0.0159
 2825DPPC   C2A55590  14.027   6.456  38.685 -0.0197 -0.0658  0.1486
 2825DPPC   C3A55591  14.038   6.266  39.197  0.0946 -0.0248  0.0041
 2825DPPC   C4A55592  14.313   6.482  39.582 -0.1538 -0.0364  0.2088
 2825DPPC   C1B55593  14.779   6.121  38.368  0.2042 -0.3174 -0.0383
 2825DPPC   C2B55594  14.573   5.794  38.636  0.0159 -0.0035  0.0699
 2825DPPC   C3B55595  14.303   5.876  38.945  0.1277  0.1183 -0.2730
 2825DPPC   C4B55596  13.885   5.992  38.825  0.4404  0.0194  0.1431
 2826DPPC   NC355597   5.576  21.696  30.075 -0.1335  0.2130  0.2379
 2826DPPC   PO455598   5.710  21.344  30.342  0.1811 -0.4221 -0.2934
 2826DPPC   GL155599   6.139  21.182  30.570  0.1466 -0.1322  0.0203
 2826DPPC   GL255600   6.184  20.916  30.362 -0.6026  0.2004  0.0334
 2826DPPC   C1A55601   6.539  20.942  30.778  0.1046 -0.0087 -0.1390
 2826DPPC   C2A55602   6.792  20.540  30.709 -0.0196 -0.3671  0.1656
 2826DPPC   C3A55603   7.095  20.210  30.845 -0.1228  0.0323  0.1449
 2826DPPC   C4A55604   7.389  19.904  30.900 -0.1689 -0.0066  0.4762
 2826DPPC   C1B55605   6.347  20.471  30.484  0.0867  0.1676  0.3002
 2826DPPC   C2B55606   6.359  20.004  30.427  0.2815  0.1548 -0.0701
 2826DPPC   C3B55607   6.547  19.580  30.308 -0.5310  0.1493  0.1228
 2826DPPC   C4B55608   6.654  19.299  30.129  0.0445  0.1700  0.2968
 2827DPPC   NC355609  20.722  17.961  30.798  0.0327 -0.0911  0.3208
 2827DPPC   PO455610  20.321  18.014  30.872  0.0881 -0.2650  0.0711
 2827DPPC   GL155611  20.498  18.402  30.831 -0.3387 -0.0199  0.3031
 2827DPPC   GL255612  20.721  18.453  30.538  0.0658 -0.1915 -0.2809
 2827DPPC   C1A55613  20.488  18.835  30.926 -0.3024  0.0634  0.0523
 2827DPPC   C2A55614  20.826  19.153  31.091 -0.1695 -0.3698 -0.1343
 2827DPPC   C3A55615  20.974  19.586  31.100  0.1679  0.1887 -0.0259
 2827DPPC   C4A55616  20.893  19.911  30.961 -0.1210  0.2096  0.0194
 2827DPPC   C1B55617  21.057  18.577  30.530 -0.0729 -0.0458 -0.0558
 2827DPPC   C2B55618  21.472  18.786  30.465 -0.2465  0.0834  0.0965
 2827DPPC   C3B55619  21.665  19.124  30.424 -0.1294 -0.0009 -0.0255
 2827DPPC   C4B55620  21.917  19.233  30.040 -0.0200 -0.1585  0.0100
 2828DPPC   NC355621   4.576  13.231  24.573  0.1123 -0.3434 -0.0443
 2828DPPC   PO455622   4.177  13.407  24.818 -0.0658 -0.4200  0.0699
 2828DPPC   GL155623   4.564  13.305  25.147  0.1044  0.0080  0.3028
 2828DPPC   GL255624   4.797  13.472  25.100 -0.3264 -0.3613  0.2527
 2828DPPC   C1A55625   4.723  13.104  25.430  0.0189 -0.2500  0.0939
 2828DPPC   C2A55626   5.026  12.826  25.541 -0.3357  0.2996 -0.2015
 2828DPPC   C3A55627   5.156  12.340  25.652 -0.3107 -0.1536 -0.0081
 2828DPPC   C4A55628   5.265  11.937  25.857 -0.1848  0.2711  0.2150
 2828DPPC   C1B55629   4.914  13.567  25.454  0.1039 -0.0021 -0.1182
 2828DPPC   C2B55630   5.354  13.745  25.773 -0.1500 -0.3637 -0.0743
 2828DPPC   C3B55631   5.711  13.459  25.947 -0.0947  0.0429 -0.4014
 2828DPPC   C4B55632   6.038  13.396  26.274  0.1489  0.3049  0.0836
 2829DPPC   NC355633   7.638  13.723  33.265  0.0298 -0.0907  0.0120
 2829DPPC   PO455634   7.925  13.716  33.618 -0.1426  0.3600 -0.2062
 2829DPPC   GL155635   7.526  13.908  33.689  0.0546  0.0755  0.1355
 2829DPPC   GL255636   7.503  14.138  33.738 -0.0986  0.3049 -0.0066
 2829DPPC   C1A55637   7.128  14.116  33.406  0.2491  0.2218 -0.0236
 2829DPPC   C2A55638   6.851  14.257  33.117 -0.1532 -0.0854 -0.0324
 2829DPPC   C3A55639   6.482  14.158  32.971 -0.2374  0.0759  0.2715
 2829DPPC   C4A55640   6.101  14.262  32.974  0.2377 -0.3255 -0.1693
 2829DPPC   C1B55641   7.240  14.194  33.993  0.1090  0.5687 -0.1695
 2829DPPC   C2B55642   6.851  14.203  34.141  0.1599  0.0221 -0.2933
 2829DPPC   C3B55643   6.528  14.573  34.115  0.1900 -0.1906  0.1707
 2829DPPC   C4B55644   6.417  14.910  34.397  0.3886  0.1977  0.2183
 2830DPPC   NC355645   9.445   9.981  18.893  0.0690 -0.2671  0.2131
 2830DPPC   PO455646   9.517  10.059  18.356 -0.1570  0.2352  0.1343
 2830DPPC   GL155647   9.803  10.408  18.575 -0.2874  0.0403 -0.0657
 2830DPPC   GL255648   9.928  10.203  18.829 -0.0212 -0.0069 -0.0094
 2830DPPC   C1A55649  10.175  10.727  18.764  0.0060 -0.0597  0.0434
 2830DPPC   C2A55650  10.569  10.702  19.167  0.1586  0.3199  0.3761
 2830DPPC   C3A55651  10.814  10.615  19.540  0.2675 -0.3675  0.1457
 2830DPPC   C4A55652  11.103  10.507  19.829  0.1945  0.1037  0.1497
 2830DPPC   C1B55653  10.191  10.357  19.109  0.0982  0.0318 -0.2445
 2830DPPC   C2B55654  10.470  10.203  19.459 -0.1610 -0.0830  0.2663
 2830DPPC   C3B55655  10.582  10.406  19.928  0.3110 -0.0108 -0.1042
 2830DPPC   C4B55656  10.730  10.534  20.262  0.0524  0.0800 -0.0402
 2831DPPC   NC355657  10.010  14.174  36.887 -0.3594  0.3141  0.0446
 2831DPPC   PO455658   9.946  14.203  37.277  0.1733  0.1139  0.2566
 2831DPPC   GL155659   9.677  14.166  37.580 -0.0648  0.0726 -0.0279
 2831DPPC   GL255660   9.435  14.123  37.498 -0.1471 -0.0920  0.0534
 2831DPPC   C1A55661   9.462  13.990  38.027  0.2494  0.1651 -0.1309
 2831DPPC   C2A55662   9.046  13.846  38.143 -0.2222  0.0576 -0.0732
 2831DPPC   C3A55663   8.934  13.719  38.559  0.0708  0.1610  0.1866
 2831DPPC   C4A55664   8.716  13.804  38.978  0.2451  0.2994 -0.0626
 2831DPPC   C1B55665   8.945  14.068  37.666 -0.1649  0.2242 -0.3202
 2831DPPC   C2B55666   8.650  13.905  37.936 -0.0073 -0.0705  0.0823
 2831DPPC   C3B55667   8.465  13.870  38.261 -0.0812 -0.0383  0.1216
 2831DPPC   C4B55668   8.378  13.663  38.566  0.0971  0.1687  0.0339
 2832DPPC   NC355669   9.807  11.777  36.976  0.0800 -0.2415  0.0254
 2832DPPC   PO455670   9.839  12.167  37.153  0.5156 -0.0960  0.1439
 2832DPPC   GL155671   9.384  12.080  37.239 -0.0413  0.0906 -0.0816
 2832DPPC   GL255672   9.304  11.748  37.036 -0.0557  0.0224 -0.1063
 2832DPPC   C1A55673   9.057  11.972  37.441  0.0655 -0.0013 -0.3102
 2832DPPC   C2A55674   8.840  11.664  37.719  0.4362  0.0545 -0.1034
 2832DPPC   C3A55675   8.610  11.297  37.840  0.0695 -0.1683 -0.0937
 2832DPPC   C4A55676   8.305  11.011  38.003 -0.0158  0.1402  0.1187
 2832DPPC   C1B55677   9.044  11.422  37.308  0.0241  0.0195  0.2469
 2832DPPC   C2B55678   9.108  11.188  37.627  0.3733  0.1827  0.0620
 2832DPPC   C3B55679   8.944  10.842  37.940 -0.4554 -0.1671 -0.1389
 2832DPPC   C4B55680   8.877  10.658  38.407 -0.0128  0.0731 -0.1417
 2833DPPC   NC355681  17.694  17.269  27.324 -0.0740 -0.1758  0.0983
 2833DPPC   PO455682  17.879  16.922  27.113  0.2749  0.1493  0.1136
 2833DPPC   GL155683  17.852  16.678  26.807  0.1475  0.4545 -0.0493
 2833DPPC   GL255684  17.571  16.528  26.683 -0.1879 -0.1288 -0.3171
 2833DPPC   C1A55685  17.925  16.613  26.353  0.3612 -0.0408 -0.2012
 2833DPPC   C2A55686  17.935  16.519  25.863 -0.2337  0.0636 -0.1672
 2833DPPC   C3A55687  18.175  16.408  25.534 -0.0603  0.0130  0.1882
 2833DPPC   C4A55688  18.243  16.689  25.093  0.0879 -0.0397 -0.1086
 2833DPPC   C1B55689  17.717  16.178  26.441  0.3492  0.0695  0.0838
 2833DPPC   C2B55690  17.755  15.937  26.004  0.1081 -0.2230 -0.1306
 2833DPPC   C3B55691  17.632  15.656  25.711  0.3592 -0.2526  0.1356
 2833DPPC   C4B55692  17.849  15.386  25.379  0.0107  0.2649  0.0685
 2834DPPC   NC355693  15.362  16.489  25.766  0.1561  0.3466  0.0002
 2834DPPC   PO455694  15.741  16.432  26.154 -0.0055  0.1417 -0.0857
 2834DPPC   GL155695  16.097  16.183  26.113  0.3636 -0.0941  0.1298
 2834DPPC   GL255696  16.422  16.365  25.941  0.0263  0.3151 -0.0500
 2834DPPC   C1A55697  16.319  15.743  26.108 -0.0472 -0.1740 -0.0047
 2834DPPC   C2A55698  16.408  15.315  26.112 -0.0005 -0.1095  0.2427
 2834DPPC   C3A55699  16.571  15.125  25.828 -0.0069 -0.3226  0.3131
 2834DPPC   C4A55700  16.878  14.984  25.633 -0.0877 -0.2678 -0.0893
 2834DPPC   C1B55701  16.282  15.920  25.659 -0.1637 -0.1276  0.0011
 2834DPPC   C2B55702  16.227  15.715  25.183 -0.1244 -0.0955  0.2615
 2834DPPC   C3B55703  15.988  15.601  24.929 -0.3302  0.1788 -0.0847
 2834DPPC   C4B55704  15.535  15.625  24.841  0.5110 -0.0441 -0.3542
 2835DPPC   NC355705  10.090   4.805  21.481  0.2411  0.0291  0.0558
 2835DPPC   PO455706  10.493   4.698  21.537  0.0362 -0.1206 -0.2466
 2835DPPC   GL155707  10.267   4.723  21.947 -0.2563  0.0980  0.1057
 2835DPPC   GL255708  10.565   4.713  22.166  0.0087 -0.0558  0.0764
 2835DPPC   C1A55709  10.117   4.839  22.308  0.1773  0.0264  0.0642
 2835DPPC   C2A55710  10.099   5.180  22.560  0.3600 -0.0338 -0.5288
 2835DPPC   C3A55711   9.966   5.515  22.673  0.3297  0.3757 -0.0649
 2835DPPC   C4A55712   9.836   5.943  22.690 -0.1358 -0.0027  0.0997
 2835DPPC   C1B55713  10.510   5.148  22.153  0.0473  0.0651  0.2842
 2835DPPC   C2B55714  10.522   5.518  22.452 -0.0126 -0.0167 -0.3006
 2835DPPC   C3B55715  10.675   5.345  22.865  0.1213  0.1786  0.1091
 2835DPPC   C4B55716  10.920   4.980  22.878 -0.3099  0.1867  0.1050
 2836DPPC   NC355717  24.029  16.937  20.977  0.3067  0.0573 -0.0602
 2836DPPC   PO455718  24.161  16.876  20.574 -0.1096 -0.2487 -0.3291
 2836DPPC   GL155719  23.750  16.634  20.465 -0.1071  0.1647 -0.3251
 2836DPPC   GL255720  23.665  16.376  20.175  0.1700  0.0936  0.2307
 2836DPPC   C1A55721  23.336  16.456  20.506 -0.0338  0.0832  0.2089
 2836DPPC   C2A55722  22.963  16.423  20.378 -0.1157  0.0853 -0.0638
 2836DPPC   C3A55723  22.572  16.240  20.293  0.0181 -0.0181 -0.0946
 2836DPPC   C4A55724  22.286  15.830  20.408 -0.1488 -0.0591  0.0073
 2836DPPC   C1B55725  23.418  16.008  20.302  0.0583  0.4155  0.0788
 2836DPPC   C2B55726  23.252  15.616  20.391 -0.2251 -0.0404 -0.2691
 2836DPPC   C3B55727  23.114  15.212  20.614  0.0066  0.2958  0.2068
 2836DPPC   C4B55728  22.878  14.880  20.398  0.0557 -0.0422  0.1377
 2837DPPC   NC355729  15.464  20.838  26.143 -0.4704  0.1241  0.5467
 2837DPPC   PO455730  15.707  20.814  26.520  0.3139  0.0732  0.3314
 2837DPPC   GL155731  15.728  21.251  26.423 -0.0031 -0.2476  0.1444
 2837DPPC   GL255732  15.650  21.381  26.075  0.1231  0.2452 -0.0519
 2837DPPC   C1A55733  15.658  21.626  26.567  0.1120 -0.0087  0.0628
 2837DPPC   C2A55734  15.707  22.029  26.445  0.0291 -0.1161 -0.0332
 2837DPPC   C3A55735  15.673  22.515  26.530 -0.1154  0.0448  0.0280
 2837DPPC   C4A55736  15.296  22.782  26.619 -0.3211  0.1183  0.1490
 2837DPPC   C1B55737  15.676  21.750  26.004  0.2063 -0.3035 -0.4072
 2837DPPC   C2B55738  15.596  22.056  25.630 -0.4983  0.2098 -0.1354
 2837DPPC   C3B55739  15.352  22.357  25.481  0.4150 -0.0393 -0.1444
 2837DPPC   C4B55740  15.200  22.726  25.436  0.2512  0.1068 -0.4183
 2838DPPC   NC355741  10.071   7.926  25.114 -0.2426  0.1389  0.0178
 2838DPPC   PO455742   9.901   8.338  25.167  0.1097  0.1566 -0.2047
 2838DPPC   GL155743   9.465   8.306  24.981  0.1912 -0.0074 -0.0701
 2838DPPC   GL255744   9.371   8.441  24.605 -0.0444 -0.0657 -0.1064
 2838DPPC   C1A55745   9.260   7.903  25.011 -0.0553  0.5770  0.2485
 2838DPPC   C2A55746   8.745   7.758  25.139  0.1192 -0.3336  0.0151
 2838DPPC   C3A55747   8.443   7.919  24.953 -0.0283 -0.1485 -0.0511
 2838DPPC   C4A55748   8.049   7.899  24.769  0.0303  0.1587  0.1206
 2838DPPC   C1B55749   9.400   8.374  24.018  0.2600 -0.1252  0.1788
 2838DPPC   C2B55750   9.568   8.255  23.655 -0.1924 -0.0372  0.3330
 2838DPPC   C3B55751   9.649   7.885  23.306 -0.3877 -0.0292 -0.4294
 2838DPPC   C4B55752   9.852   7.515  23.126  0.1864 -0.0658 -0.2489
 2839DPPC   NC355753  24.316  20.772  33.813  0.4841 -0.0210 -0.0961
 2839DPPC   PO455754  23.896  20.824  34.163 -0.0805  0.1751 -0.2387
 2839DPPC   GL155755  23.670  20.448  33.979 -0.0264 -0.0456  0.1389
 2839DPPC   GL255756  23.403  20.479  33.783 -0.0679 -0.1854 -0.5225
 2839DPPC   C1A55757  23.733  20.000  33.950 -0.0404 -0.2332 -0.2333
 2839DPPC   C2A55758  23.330  19.798  34.010  0.2268  0.0246  0.0213
 2839DPPC   C3A55759  22.921  19.732  34.143 -0.0921 -0.3989 -0.0143
 2839DPPC   C4A55760  22.470  19.607  34.046 -0.3613  0.3459 -0.0113
 2839DPPC   C1B55761  23.467  20.006  33.566 -0.3066 -0.1485  0.2538
 2839DPPC   C2B55762  23.321  19.612  33.387 -0.0481 -0.4143 -0.4209
 2839DPPC   C3B55763  22.903  19.535  33.399 -0.0281 -0.0167 -0.0045
 2839DPPC   C4B55764  22.567  19.356  33.622 -0.2117  0.0689 -0.0313
 2840DPPC   NC355765  10.734  11.021  23.110 -0.1423 -0.2102 -0.0017
 2840DPPC   PO455766  10.344  10.997  23.472 -0.1347  0.0721 -0.0422
 2840DPPC   GL155767  10.093  10.754  23.273  0.1588  0.0083  0.3138
 2840DPPC   GL255768   9.903  10.476  23.332  0.2612  0.1414 -0.0046
 2840DPPC   C1A55769   9.962  10.643  22.796 -0.2312  0.0206 -0.2235
 2840DPPC   C2A55770   9.619  10.623  22.553 -0.0260  0.0250 -0.1780
 2840DPPC   C3A55771   9.309  10.552  22.268 -0.0848 -0.0841 -0.2055
 2840DPPC   C4A55772   9.276  10.187  21.960 -0.2785 -0.0149 -0.0630
 2840DPPC   C1B55773   9.716  10.189  22.975 -0.0678  0.0547 -0.1198
 2840DPPC   C2B55774   9.615  10.150  22.564 -0.2300 -0.0954  0.1123
 2840DPPC   C3B55775   9.277   9.887  22.533 -0.4674  0.1166 -0.1336
 2840DPPC   C4B55776   8.871   9.681  22.675 -0.0237  0.0725  0.2447
 2841DPPC   NC355777  10.822  24.673  32.961  0.2105  0.0022 -0.1940
 2841DPPC   PO455778  10.659  24.666  32.541  0.0746  0.1922 -0.0888
 2841DPPC   GL155779  10.813  24.288  32.563  0.0526 -0.3537 -0.1169
 2841DPPC   GL255780  11.054  24.230  32.789 -0.0020  0.2558  0.2724
 2841DPPC   C1A55781  10.695  23.959  32.407 -0.0572  0.2082 -0.1905
 2841DPPC   C2A55782  10.587  23.489  32.419 -0.2144  0.1415  0.2167
 2841DPPC   C3A55783  10.732  23.064  32.552  0.1230  0.0367 -0.0109
 2841DPPC   C4A55784  10.785  22.646  32.494  0.0262 -0.2044  0.0666
 2841DPPC   C1B55785  11.459  24.277  32.621  0.0521 -0.4264 -0.0319
 2841DPPC   C2B55786  11.902  24.224  32.461 -0.3275  0.3986  0.1825
 2841DPPC   C3B55787  12.038  23.805  32.123  0.0369 -0.0877  0.0138
 2841DPPC   C4B55788  12.400  23.616  32.185 -0.3346  0.1125 -0.4041
 2842DPPC   NC355789  10.468  15.623  36.428  0.1367  0.1015  0.2274
 2842DPPC   PO455790  10.514  15.973  36.471 -0.1993 -0.2580 -0.0386
 2842DPPC   GL155791  10.304  15.953  36.935  0.0456  0.0345 -0.1470
 2842DPPC   GL255792  10.065  15.847  36.758  0.0772 -0.2686  0.0198
 2842DPPC   C1A55793  10.156  16.270  37.149 -0.3709  0.1352  0.4913
 2842DPPC   C2A55794   9.811  16.541  37.152 -0.2817  0.1138  0.1392
 2842DPPC   C3A55795   9.507  16.857  37.157 -0.0012  0.1509  0.2709
 2842DPPC   C4A55796   9.278  17.164  37.436 -0.1372 -0.1109  0.2997
 2842DPPC   C1B55797   9.787  15.951  37.053  0.2027 -0.2195 -0.1577
 2842DPPC   C2B55798   9.468  16.146  37.358  0.0840 -0.0729 -0.2103
 2842DPPC   C3B55799   9.329  16.486  37.535 -0.0515 -0.3566  0.1144
 2842DPPC   C4B55800   9.276  16.853  37.842 -0.1947 -0.2057 -0.0648
 2843DPPC   NC355801  13.045   0.636  32.160 -0.0073  0.2787  0.0994
 2843DPPC   PO455802  12.743   0.778  32.435  0.1358 -0.0509  0.1210
 2843DPPC   GL155803  12.670   1.102  32.568 -0.3751 -0.1110  0.2521
 2843DPPC   GL255804  12.815   1.145  32.893  0.1226  0.1665  0.1192
 2843DPPC   C1A55805  12.543   1.629  32.569 -0.1721 -0.0720 -0.3186
 2843DPPC   C2A55806  12.494   2.021  32.684 -0.2529  0.1516  0.1087
 2843DPPC   C3A55807  12.399   2.397  32.666  0.0391  0.3345 -0.0749
 2843DPPC   C4A55808  12.301   2.830  32.668 -0.0835  0.3435  0.0428
 2843DPPC   C1B55809  12.979   1.584  32.825  0.1110 -0.0204 -0.5462
 2843DPPC   C2B55810  12.977   1.942  32.754  0.1822 -0.1431  0.1513
 2843DPPC   C3B55811  12.996   2.338  32.876  0.0451  0.0971 -0.1376
 2843DPPC   C4B55812  12.790   2.735  32.974 -0.1240 -0.0430 -0.0628
 2844DPPC   NC355813  13.926  12.744  39.802  0.1311 -0.2464  0.1961
 2844DPPC   PO455814  14.178  12.956  40.089  0.0217  0.1393 -0.2173
 2844DPPC   GL155815  14.221  12.761  40.516 -0.0475 -0.0946  0.0122
 2844DPPC   GL255816  14.269  13.041  40.675  0.1394 -0.0391 -0.3483
 2844DPPC   C1A55817  13.838  12.624  40.763 -0.0662  0.2439  0.4879
 2844DPPC   C2A55818  13.641  12.406  40.956 -0.0432 -0.1708 -0.0778
 2844DPPC   C3A55819  13.617  12.337  41.356 -0.3535 -0.1881 -0.1063
 2844DPPC   C4A55820  13.547  12.108  41.763 -0.0323  0.3214  0.3392
 2844DPPC   C1B55821  14.202  13.167  41.113 -0.1194  0.1125  0.1792
 2844DPPC   C2B55822  13.960  13.451  41.437  0.0432  0.1833 -0.1834
 2844DPPC   C3B55823  13.751  13.851  41.406  0.0899  0.1266  0.2514
 2844DPPC   C4B55824  13.418  13.933  41.185  0.1035 -0.4055  0.0740
 2845DPPC   NC355825  10.477   8.685  24.628  0.1507  0.2278  0.0165
 2845DPPC   PO455826  10.245   8.303  24.753  0.0516  0.0374  0.0170
 2845DPPC   GL155827   9.980   7.965  24.615  0.1960  0.0908  0.1652
 2845DPPC   GL255828   9.696   7.852  24.764  0.4201  0.0065  0.0324
 2845DPPC   C1A55829   9.898   7.535  24.436  0.0869  0.0345 -0.1092
 2845DPPC   C2A55830   9.635   7.444  24.115 -0.0240 -0.0572  0.0340
 2845DPPC   C3A55831   9.498   7.060  23.993  0.1315  0.0696  0.0771
 2845DPPC   C4A55832   9.458   6.640  24.093  0.0954 -0.0020  0.1968
 2845DPPC   C1B55833   9.430   7.580  24.554 -0.3059  0.3248 -0.1512
 2845DPPC   C2B55834   9.194   7.356  24.313 -0.2535 -0.0320  0.2814
 2845DPPC   C3B55835   8.785   7.221  24.355 -0.1270 -0.1228  0.1843
 2845DPPC   C4B55836   8.604   7.126  24.815  0.1737  0.1385 -0.1874
 2846DPPC   NC355837  23.596  20.436  28.006  0.0525 -0.1031 -0.3635
 2846DPPC   PO455838  23.215  20.255  27.825  0.0497 -0.2586  0.0990
 2846DPPC   GL155839  23.018  19.965  27.994  0.1462  0.0434  0.1297
 2846DPPC   GL255840  23.143  19.667  27.942  0.2043 -0.3389  0.0721
 2846DPPC   C1A55841  22.545  19.808  27.903  0.2283 -0.1852  0.2606
 2846DPPC   C2A55842  22.063  19.910  27.892  0.2216 -0.1590 -0.2486
 2846DPPC   C3A55843  21.626  20.011  27.795 -0.1092  0.1975  0.2576
 2846DPPC   C4A55844  21.266  19.872  27.931  0.0059  0.0900 -0.1911
 2846DPPC   C1B55845  22.871  19.371  27.882 -0.0130  0.0810  0.0611
 2846DPPC   C2B55846  22.563  19.036  27.930 -0.0856 -0.2066  0.0889
 2846DPPC   C3B55847  22.408  18.601  28.029  0.4024  0.5086  0.0779
 2846DPPC   C4B55848  22.366  18.135  28.046 -0.1157 -0.0902  0.0786
 2847DPPC   NC355849  13.637  21.551  18.665 -0.2046 -0.0443 -0.3256
 2847DPPC   PO455850  13.478  21.493  18.993 -0.3355  0.0279  0.1494
 2847DPPC   GL155851  13.577  21.303  19.372  0.1311 -0.0397 -0.0657
 2847DPPC   GL255852  13.744  21.618  19.576 -0.3795 -0.0656 -0.1187
 2847DPPC   C1A55853  13.577  21.080  19.763 -0.0239 -0.4285 -0.0726
 2847DPPC   C2A55854  13.517  21.129  20.247 -0.4563 -0.1179 -0.0698
 2847DPPC   C3A55855  13.661  20.744  20.583 -0.0397  0.0622  0.0680
 2847DPPC   C4A55856  13.883  20.378  20.843 -0.1025  0.2479  0.2146
 2847DPPC   C1B55857  13.872  21.558  20.069  0.3088  0.2574  0.7220
 2847DPPC   C2B55858  14.050  21.417  20.342  0.2162 -0.1212  0.0069
 2847DPPC   C3B55859  14.378  21.350  20.723 -0.0175 -0.1947  0.1142
 2847DPPC   C4B55860  14.669  21.581  20.903 -0.1330  0.2418  0.3120
 2848DPPC   NC355861  18.454  17.280  26.945  0.1890  0.1513  0.2225
 2848DPPC   PO455862  18.890  17.396  27.074  0.2123 -0.2437 -0.2801
 2848DPPC   GL155863  19.043  17.087  26.783  0.2944  0.3536 -0.0542
 2848DPPC   GL255864  19.257  17.270  26.484  0.0148 -0.1303  0.1996
 2848DPPC   C1A55865  19.108  16.791  26.493  0.0660 -0.2282 -0.3638
 2848DPPC   C2A55866  19.339  16.339  26.366  0.2208  0.0671 -0.0643
 2848DPPC   C3A55867  19.433  15.899  26.193  0.0195  0.1502 -0.4639
 2848DPPC   C4A55868  19.596  15.553  26.368 -0.2761  0.1071 -0.0064
 2848DPPC   C1B55869  19.405  17.000  26.121  0.0722  0.0187  0.2101
 2848DPPC   C2B55870  19.341  16.566  25.931  0.0265  0.2749  0.1519
 2848DPPC   C3B55871  19.051  16.241  25.900 -0.0056 -0.3994 -0.2226
 2848DPPC   C4B55872  18.527  15.985  25.996 -0.2498  0.1110 -0.0224
 2849DPPC   NC355873  10.138   9.211  35.743 -0.4119 -0.3451 -0.5039
 2849DPPC   PO455874  10.154   8.767  35.550 -0.2377  0.3270  0.1153
 2849DPPC   GL155875   9.854   8.512  35.535  0.2876 -0.4167 -0.0713
 2849DPPC   GL255876   9.529   8.428  35.332 -0.2332  0.0774  0.3859
 2849DPPC   C1A55877   9.535   8.565  35.801  0.3373 -0.0832  0.1810
 2849DPPC   C2A55878   9.404   8.510  36.241 -0.1352 -0.3498 -0.1877
 2849DPPC   C3A55879   9.278   8.418  36.660  0.0272 -0.1569 -0.1664
 2849DPPC   C4A55880   9.298   8.379  37.071  0.1320 -0.0708 -0.1321
 2849DPPC   C1B55881   9.293   8.119  35.575  0.0755 -0.1243  0.4004
 2849DPPC   C2B55882   9.151   7.821  35.932  0.0088 -0.1691  0.2370
 2849DPPC   C3B55883   8.896   7.434  35.984  0.3137 -0.1012  0.0799
 2849DPPC   C4B55884   8.530   7.218  36.104 -0.1305  0.0428 -0.1914
 2850DPPC   NC355885  15.705   2.385  19.777 -0.0441  0.2377 -0.0414
 2850DPPC   PO455886  15.869   2.669  20.097  0.2696 -0.3893 -0.0220
 2850DPPC   GL155887  15.942   2.935  20.433 -0.0067  0.0281  0.0333
 2850DPPC   GL255888  15.865   2.740  20.767 -0.1498  0.0768  0.0134
 2850DPPC   C1A55889  16.075   3.355  20.476 -0.0854  0.0692 -0.1644
 2850DPPC   C2A55890  16.159   3.815  20.457  0.1147 -0.1680 -0.0007
 2850DPPC   C3A55891  16.328   4.223  20.440  0.2078 -0.1399 -0.2608
 2850DPPC   C4A55892  16.407   4.506  20.665 -0.0609  0.2432  0.1109
 2850DPPC   C1B55893  16.030   2.963  21.110 -0.0214 -0.0640 -0.1896
 2850DPPC   C2B55894  15.981   3.152  21.466  0.1397  0.1117  0.0079
 2850DPPC   C3B55895  15.800   3.554  21.591 -0.3735 -0.0093  0.0848
 2850DPPC   C4B55896  15.900   3.962  21.491 -0.0444 -0.0748 -0.0059
 2851DPPC   NC355897  23.687   4.390  21.634 -0.1893  0.1798 -0.0524
 2851DPPC   PO455898  23.540   4.867  21.613  0.2187 -0.1458  0.0134
 2851DPPC   GL155899  23.503   5.284  21.659 -0.1100  0.0799 -0.0107
 2851DPPC   GL255900  23.524   5.560  21.416  0.4675  0.3067 -0.1165
 2851DPPC   C1A55901  23.439   5.719  21.868  0.1706 -0.1105 -0.0643
 2851DPPC   C2A55902  23.566   6.241  21.933 -0.2189 -0.0181  0.0200
 2851DPPC   C3A55903  23.942   6.396  21.756 -0.3239 -0.0674 -0.2021
 2851DPPC   C4A55904  24.325   6.565  21.937  0.2587 -0.1664  0.4842
 2851DPPC   C1B55905  23.705   5.992  21.393 -0.0670  0.2068  0.0303
 2851DPPC   C2B55906  23.451   6.466  21.362  0.1078  0.0555  0.2571
 2851DPPC   C3B55907  23.257   6.892  21.477 -0.1906  0.0498  0.3831
 2851DPPC   C4B55908  23.010   7.114  21.236  0.4005  0.1049 -0.0580
 2852DPPC   NC355909  23.418  17.744  22.021  0.2547  0.2746  0.0967
 2852DPPC   PO455910  23.180  17.633  22.381  0.0119 -0.1172 -0.0216
 2852DPPC   GL155911  22.857  17.653  22.687  0.1520 -0.1292 -0.1315
 2852DPPC   GL255912  22.923  17.700  22.960 -0.1220  0.2794 -0.1615
 2852DPPC   C1A55913  22.456  17.422  22.907  0.1531 -0.1027 -0.1400
 2852DPPC   C2A55914  22.207  17.034  23.090 -0.1103 -0.0816 -0.1937
 2852DPPC   C3A55915  21.753  16.984  23.166  0.2258  0.0770 -0.1305
 2852DPPC   C4A55916  21.433  16.725  22.953  0.1980  0.1837  0.1160
 2852DPPC   C1B55917  22.552  17.845  23.248 -0.1030 -0.0157 -0.2185
 2852DPPC   C2B55918  22.098  17.652  23.290 -0.2411  0.1844 -0.2512
 2852DPPC   C3B55919  21.777  17.399  22.963  0.1779 -0.1295 -0.1562
 2852DPPC   C4B55920  21.368  17.310  22.934 -0.2546  0.1398  0.1324
 2853DPPC   NC355921  23.398   7.460  18.462 -0.0300 -0.2221  0.1357
 2853DPPC   PO455922  23.111   7.554  18.395  0.1047  0.0939 -0.2595
 2853DPPC   GL155923  22.778   7.731  18.487  0.0916  0.2467 -0.0648
 2853DPPC   GL255924  22.794   8.064  18.490  0.1370 -0.2698 -0.2258
 2853DPPC   C1A55925  22.628   7.844  18.860 -0.0222 -0.3359  0.0355
 2853DPPC   C2A55926  22.199   7.810  19.127  0.4098  0.0837  0.0114
 2853DPPC   C3A55927  21.926   7.786  19.387  0.3694  0.1302 -0.0965
 2853DPPC   C4A55928  21.633   7.549  19.441  0.1153 -0.1655 -0.0754
 2853DPPC   C1B55929  22.489   8.314  18.740  0.0587 -0.2268  0.3778
 2853DPPC   C2B55930  22.378   8.393  19.056 -0.0336 -0.0795 -0.2306
 2853DPPC   C3B55931  22.184   8.334  19.379 -0.0390 -0.1680 -0.1510
 2853DPPC   C4B55932  22.041   8.586  19.652 -0.1903  0.1508  0.1346
 2854DPPC   NC355933  15.663  12.033  39.604  0.1419 -0.0460  0.1288
 2854DPPC   PO455934  15.515  11.843  39.967 -0.1767 -0.3203  0.0117
 2854DPPC   GL155935  15.462  11.865  40.370  0.4681 -0.1862  0.3952
 2854DPPC   GL255936  15.633  11.889  40.562  0.0151  0.1009  0.3271
 2854DPPC   C1A55937  15.271  12.172  40.772  0.2496  0.1200 -0.0879
 2854DPPC   C2A55938  14.916  12.257  41.043 -0.1471 -0.0627 -0.1562
 2854DPPC   C3A55939  14.630  12.018  41.241 -0.2475  0.3494  0.0100
 2854DPPC   C4A55940  14.610  11.878  41.646 -0.1624  0.0021  0.0766
 2854DPPC   C1B55941  15.690  12.065  40.920  0.0373  0.0798 -0.3794
 2854DPPC   C2B55942  15.425  12.124  41.248 -0.2366  0.6452 -0.3064
 2854DPPC   C3B55943  15.050  12.058  41.526 -0.1514  0.0381 -0.3509
 2854DPPC   C4B55944  14.869  11.894  42.068  0.0643  0.3795  0.0473
 2855DPPC   NC355945   8.073  15.757  26.456  0.0247 -0.0094  0.0751
 2855DPPC   PO455946   8.152  16.018  26.817  0.1988  0.0119 -0.0230
 2855DPPC   GL155947   7.971  16.286  26.580  0.2165 -0.0554 -0.1567
 2855DPPC   GL255948   7.939  16.356  26.264 -0.0451 -0.3257  0.0764
 2855DPPC   C1A55949   7.601  16.613  26.505 -0.1786 -0.1083  0.0039
 2855DPPC   C2A55950   7.391  16.710  26.891  0.1603  0.0566 -0.2411
 2855DPPC   C3A55951   6.984  16.567  26.931 -0.1083 -0.3216  0.4126
 2855DPPC   C4A55952   6.478  16.654  26.785  0.3013  0.0331  0.1507
 2855DPPC   C1B55953   7.754  16.682  25.968 -0.0626  0.4063 -0.1060
 2855DPPC   C2B55954   7.323  16.820  25.842  0.1422  0.0861 -0.0376
 2855DPPC   C3B55955   6.984  17.028  26.005  0.3223 -0.0327  0.1491
 2855DPPC   C4B55956   6.485  16.975  25.908  0.0316  0.1956 -0.1126
 2856DPPC   NC355957  15.845   7.141  16.605  0.0440 -0.0266 -0.1930
 2856DPPC   PO455958  16.009   6.828  16.414  0.2536  0.2657 -0.2645
 2856DPPC   GL155959  16.246   6.716  16.894  0.1292 -0.0373 -0.0003
 2856DPPC   GL255960  16.527   6.789  16.959  0.0615 -0.0139  0.1380
 2856DPPC   C1A55961  16.312   6.854  17.396  0.2563 -0.2971  0.2431
 2856DPPC   C2A55962  16.599   7.007  17.690 -0.1604 -0.0800  0.1134
 2856DPPC   C3A55963  16.735   7.127  18.082 -0.1758 -0.0623 -0.1755
 2856DPPC   C4A55964  16.986   7.327  18.366 -0.1686  0.1740 -0.0281
 2856DPPC   C1B55965  16.593   7.223  17.234  0.1839 -0.0908  0.1138
 2856DPPC   C2B55966  16.636   7.592  17.631 -0.0841 -0.1694 -0.0878
 2856DPPC   C3B55967  16.738   7.945  17.725  0.1115 -0.0276  0.4813
 2856DPPC   C4B55968  16.868   8.256  18.007 -0.1175 -0.2962  0.4208
 2857DPPC   NC355969  14.063   4.184  28.109 -0.1034  0.0428  0.2295
 2857DPPC   PO455970  14.389   3.990  28.073 -0.1257  0.0021  0.1016
 2857DPPC   GL155971  14.153   3.691  27.987  0.0520  0.2940 -0.0667
 2857DPPC   GL255972  13.793   3.820  27.918 -0.1938 -0.0653  0.1592
 2857DPPC   C1A55973  14.035   3.371  28.226  0.1859  0.2669 -0.1260
 2857DPPC   C2A55974  13.996   2.912  28.376  0.0075  0.3143  0.1047
 2857DPPC   C3A55975  14.147   2.594  28.668  0.1051 -0.3467 -0.1615
 2857DPPC   C4A55976  14.494   2.282  28.667 -0.1306 -0.1886  0.1547
 2857DPPC   C1B55977  13.527   3.775  28.206 -0.2270 -0.3137 -0.1434
 2857DPPC   C2B55978  13.587   3.353  28.413  0.1194  0.0892 -0.0904
 2857DPPC   C3B55979  13.474   2.936  28.516  0.0964 -0.0991 -0.2663
 2857DPPC   C4B55980  13.650   2.489  28.661  0.1691 -0.0289 -0.0309
 2858DPPC   NC355981   3.732  13.984  28.978 -0.1838  0.1318 -0.2432
 2858DPPC   PO455982   3.439  13.611  28.907 -0.3419 -0.1507 -0.1691
 2858DPPC   GL155983   3.970  13.539  28.822 -0.1504 -0.2201 -0.0782
 2858DPPC   GL255984   4.106  13.663  29.154  0.2949 -0.0910  0.3298
 2858DPPC   C1A55985   4.364  13.564  28.648 -0.2079  0.1634 -0.1385
 2858DPPC   C2A55986   4.728  13.374  28.476 -0.1164 -0.3350 -0.2526
 2858DPPC   C3A55987   5.106  13.198  28.697 -0.0559 -0.4485  0.0830
 2858DPPC   C4A55988   5.230  12.911  28.924 -0.0298  0.0309 -0.1440
 2858DPPC   C1B55989   4.313  13.987  29.486 -0.1047  0.2229 -0.0483
 2858DPPC   C2B55990   4.538  14.116  29.738  0.3666  0.1227  0.0429
 2858DPPC   C3B55991   4.904  14.108  29.970  0.1493 -0.1473 -0.0511
 2858DPPC   C4B55992   5.279  13.925  30.033 -0.3695  0.1581  0.0408
 2859DPPC   NC355993  18.479   5.401  17.160  0.0359  0.0308 -0.2054
 2859DPPC   PO455994  18.098   5.288  17.419  0.1964 -0.0807  0.1764
 2859DPPC   GL155995  18.001   5.707  17.720  0.0816 -0.0375 -0.1566
 2859DPPC   GL255996  18.019   6.004  17.663  0.0995  0.2094 -0.2264
 2859DPPC   C1A55997  18.117   5.959  18.213  0.1252 -0.0059  0.2769
 2859DPPC   C2A55998  18.105   6.247  18.625  0.2064 -0.2148 -0.0582
 2859DPPC   C3A55999  18.008   6.053  18.991  0.2027 -0.2320 -0.1218
 2859DPPC   C4A56000  17.973   5.848  19.323 -0.0232  0.1275 -0.2398
 2859DPPC   C1B56001  18.236   6.307  17.733  0.2238  0.0922 -0.1460
 2859DPPC   C2B56002  18.354   6.459  18.148 -0.3269  0.1931  0.2296
 2859DPPC   C3B56003  18.474   6.663  18.580 -0.0019  0.1149 -0.1359
 2859DPPC   C4B56004  18.776   7.077  18.737  0.2199  0.0245 -0.1255
 2860DPPC   NC356005  22.958   9.032  23.798 -0.0650 -0.0926 -0.1096
 2860DPPC   PO456006  23.105   8.628  23.600 -0.0634  0.1038 -0.1465
 2860DPPC   GL156007  23.486   8.723  23.563  0.0775  0.3382 -0.0903
 2860DPPC   GL256008  23.552   8.432  23.653  0.1188  0.2049 -0.0906
 2860DPPC   C1A56009  23.900   8.707  23.310  0.1410 -0.3077 -0.0353
 2860DPPC   C2A56010  23.993   8.984  22.928  0.3546  0.2968 -0.0808
 2860DPPC   C3A56011  24.310   9.319  22.911 -0.0867 -0.1235  0.4258
 2860DPPC   C4A56012  24.462   9.680  22.629  0.1832 -0.1328  0.2763
 2860DPPC   C1B56013  23.927   8.316  23.693  0.0298 -0.0923 -0.0840
 2860DPPC   C2B56014  24.309   8.416  23.888 -0.1703 -0.3495 -0.2842
 2860DPPC   C3B56015  24.670   8.454  24.240 -0.0092  0.1160 -0.1328
 2860DPPC   C4B56016  24.735   8.911  24.389  0.0127  0.1006  0.4151
 2861DPPC   NC356017  13.275   6.192  24.504 -0.3287 -0.2095  0.2496
 2861DPPC   PO456018  13.172   6.088  24.955  0.0486 -0.0583  0.2658
 2861DPPC   GL156019  12.956   5.839  24.694 -0.0360  0.2062  0.1656
 2861DPPC   GL256020  12.533   5.718  24.727 -0.1599 -0.2221  0.0720
 2861DPPC   C1A56021  12.814   5.506  24.359 -0.3242 -0.0147 -0.2752
 2861DPPC   C2A56022  12.638   5.238  24.053 -0.0759 -0.1221 -0.1863
 2861DPPC   C3A56023  12.476   5.032  23.730 -0.0130  0.1290  0.1077
 2861DPPC   C4A56024  12.362   4.976  23.332  0.3560  0.3770  0.2090
 2861DPPC   C1B56025  12.548   5.259  24.695 -0.1083 -0.3294 -0.3997
 2861DPPC   C2B56026  12.382   4.933  24.346  0.0818  0.0462  0.0654
 2861DPPC   C3B56027  12.624   4.660  24.120 -0.0911  0.0335 -0.2419
 2861DPPC   C4B56028  12.584   4.508  23.733 -0.3327 -0.3627  0.0024
 2862DPPC   NC356029   8.134  13.809  32.502 -0.1148  0.2535  0.0952
 2862DPPC   PO456030   7.728  13.834  32.761  0.0255  0.2195 -0.1138
 2862DPPC   GL156031   7.336  13.581  32.908  0.1767  0.0336 -0.1609
 2862DPPC   GL256032   7.315  13.300  32.855  0.1400 -0.0710  0.1488
 2862DPPC   C1A56033   6.946  13.774  33.101  0.1455  0.2175  0.2508
 2862DPPC   C2A56034   6.489  13.793  33.333 -0.0503 -0.4303 -0.2529
 2862DPPC   C3A56035   6.231  14.084  33.438 -0.0392  0.2017 -0.0485
 2862DPPC   C4A56036   5.811  14.105  33.566  0.2010  0.0987 -0.1153
 2862DPPC   C1B56037   6.842  13.315  32.925  0.1928 -0.1809 -0.0965
 2862DPPC   C2B56038   6.502  13.631  32.853 -0.2782  0.1851 -0.0950
 2862DPPC   C3B56039   6.184  13.765  32.782  0.0578  0.1337 -0.1565
 2862DPPC   C4B56040   5.694  13.821  32.758 -0.0745  0.2084  0.2632
 2863DPPC   NC356041  16.275  14.367  15.291  0.1494 -0.0425 -0.2534
 2863DPPC   PO456042  16.422  13.990  15.188 -0.2503  0.0408 -0.3951
 2863DPPC   GL156043  16.736  13.873  15.523  0.2801 -0.0584  0.0191
 2863DPPC   GL256044  16.767  13.592  15.740 -0.1987  0.1154 -0.1639
 2863DPPC   C1A56045  16.818  13.976  16.034  0.1198  0.0101  0.0109
 2863DPPC   C2A56046  16.573  14.142  16.433  0.2279 -0.2586  0.0172
 2863DPPC   C3A56047  16.522  14.131  16.877 -0.4869  0.0825  0.0493
 2863DPPC   C4A56048  16.657  14.287  17.283 -0.0008 -0.0932 -0.1877
 2863DPPC   C1B56049  17.083  13.541  15.969  0.4843 -0.2747 -0.2247
 2863DPPC   C2B56050  17.220  13.313  16.190 -0.2257  0.0113  0.1258
 2863DPPC   C3B56051  17.400  12.914  16.305 -0.0032 -0.3905 -0.2215
 2863DPPC   C4B56052  17.551  12.674  16.655 -0.2757 -0.0923  0.3386
 2864DPPC   NC356053  22.668  14.350  28.022  0.0272 -0.2623  0.2306
 2864DPPC   PO456054  22.287  14.601  27.824 -0.4557 -0.3353  0.0242
 2864DPPC   GL156055  22.583  14.720  27.501  0.0367 -0.0753 -0.2687
 2864DPPC   GL256056  22.853  14.501  27.526 -0.3438  0.2592  0.0441
 2864DPPC   C1A56057  22.884  14.996  27.724 -0.4908  0.1738  0.2052
 2864DPPC   C2A56058  23.182  15.241  27.698 -0.1700  0.1954 -0.2014
 2864DPPC   C3A56059  23.326  15.705  27.641  0.0374 -0.2003  0.1946
 2864DPPC   C4A56060  23.565  16.055  27.532  0.1787  0.1640  0.0561
 2864DPPC   C1B56061  23.210  14.806  27.390  0.0263 -0.3027  0.3207
 2864DPPC   C2B56062  23.545  14.714  27.232 -0.0135  0.0452  0.0677
 2864DPPC   C3B56063  23.810  14.718  26.869  0.0493  0.2466 -0.2671
 2864DPPC   C4B56064  24.108  14.375  26.725 -0.3297  0.1736 -0.1416
 2865DPPC   NC356065  22.404   8.462  33.266  0.0770  0.2278  0.2966
 2865DPPC   PO456066  22.732   8.500  33.023 -0.2246  0.4729  0.0343
 2865DPPC   GL156067  23.122   8.437  33.205 -0.0974 -0.1082  0.0789
 2865DPPC   GL256068  23.004   8.203  33.484  0.1719 -0.0199 -0.0174
 2865DPPC   C1A56069  23.573   8.193  33.312  0.3642 -0.0925  0.2060
 2865DPPC   C2A56070  23.952   7.872  33.127  0.1441 -0.1288  0.0744
 2865DPPC   C3A56071  23.951   7.446  33.022 -0.1409 -0.2520 -0.1622
 2865DPPC   C4A56072  23.985   6.990  33.039 -0.1501 -0.0589 -0.1810
 2865DPPC   C1B56073  23.280   7.926  33.735 -0.1328 -0.1288 -0.1137
 2865DPPC   C2B56074  23.408   7.540  33.870 -0.2915 -0.2676  0.2103
 2865DPPC   C3B56075  23.462   7.310  34.218 -0.0755 -0.0299 -0.3127
 2865DPPC   C4B56076  23.676   7.211  34.516  0.0123  0.0914 -0.0866
 2866DPPC   NC356077  16.957   4.099  39.669 -0.2854  0.0189  0.1157
 2866DPPC   PO456078  16.661   3.771  39.901  0.2592  0.2371  0.1013
 2866DPPC   GL156079  16.477   4.098  39.538  0.1519  0.1953 -0.3561
 2866DPPC   GL256080  16.154   4.252  39.621  0.1396 -0.2093 -0.2801
 2866DPPC   C1A56081  16.546   4.551  39.470 -0.2257  0.0716  0.1149
 2866DPPC   C2A56082  16.485   4.882  39.286  0.0452 -0.5109 -0.2988
 2866DPPC   C3A56083  16.400   5.209  39.006 -0.2245  0.0563  0.0244
 2866DPPC   C4A56084  16.395   5.236  38.582  0.2024 -0.2367  0.0167
 2866DPPC   C1B56085  16.080   4.664  39.578  0.0089  0.1614  0.0956
 2866DPPC   C2B56086  15.975   5.136  39.494  0.0436 -0.3281 -0.0901
 2866DPPC   C3B56087  16.079   5.564  39.242 -0.1990  0.3328 -0.1463
 2866DPPC   C4B56088  16.416   5.900  39.300  0.4339 -0.2770  0.0980
 2867DPPC   NC356089  10.781  18.199  35.986 -0.0796 -0.0068 -0.0918
 2867DPPC   PO456090  10.473  18.284  35.700  0.3353  0.1822 -0.2055
 2867DPPC   GL156091  10.196  18.455  36.022 -0.0596  0.0572 -0.2215
 2867DPPC   GL256092   9.915  18.530  35.967  0.2205  0.0643 -0.1052
 2867DPPC   C1A56093  10.099  18.533  36.402 -0.1011 -0.0593 -0.2048
 2867DPPC   C2A56094   9.966  18.663  36.855  0.1732  0.1321  0.0777
 2867DPPC   C3A56095   9.917  18.949  37.047  0.1435 -0.1024 -0.0511
 2867DPPC   C4A56096   9.921  19.164  37.416  0.0106 -0.1463  0.2730
 2867DPPC   C1B56097  10.158  18.924  36.058 -0.0472  0.1859  0.2330
 2867DPPC   C2B56098  10.139  19.339  36.172 -0.0927  0.3510 -0.0571
 2867DPPC   C3B56099   9.826  19.437  36.312 -0.0249  0.0827  0.3280
 2867DPPC   C4B56100   9.582  19.653  36.587 -0.5560  0.3362  0.1776
 2868DPPC   NC356101  22.972  12.410  28.812 -0.1479 -0.0076  0.2181
 2868DPPC   PO456102  23.305  12.791  28.697  0.2613  0.1561 -0.1098
 2868DPPC   GL156103  23.768  12.822  28.649  0.1385 -0.1708 -0.2324
 2868DPPC   GL256104  23.848  13.051  28.473  0.0079  0.4773  0.0771
 2868DPPC   C1A56105  24.138  12.640  28.505 -0.2401 -0.1312 -0.0713
 2868DPPC   C2A56106  24.546  12.724  28.236 -0.0695 -0.1043 -0.0818
 2868DPPC   C3A56107  24.796  13.075  28.159  0.0772 -0.2154  0.3236
 2868DPPC   C4A56108  25.157  13.290  28.289 -0.0137 -0.0939  0.1381
 2868DPPC   C1B56109  24.277  13.131  28.385 -0.3571 -0.1093  0.4675
 2868DPPC   C2B56110  24.519  13.168  28.597 -0.0097 -0.1240  0.1201
 2868DPPC   C3B56111  24.692  13.036  29.051 -0.1268 -0.1478 -0.0554
 2868DPPC   C4B56112  24.952  13.041  29.340  0.1200 -0.0669  0.0139
 2869DPPC   NC356113  19.434  16.412  37.756 -0.2122  0.0187 -0.0773
 2869DPPC   PO456114  19.280  16.534  37.454 -0.0041  0.0013  0.0896
 2869DPPC   GL156115  19.722  16.869  37.590 -0.0903 -0.1923  0.1726
 2869DPPC   GL256116  19.697  17.145  37.456 -0.2059 -0.4085 -0.1144
 2869DPPC   C1A56117  20.094  16.951  37.714 -0.2813  0.1107 -0.1840
 2869DPPC   C2A56118  20.562  16.987  37.785 -0.2310 -0.3545  0.0786
 2869DPPC   C3A56119  20.837  16.681  38.122 -0.0520  0.0456  0.1775
 2869DPPC   C4A56120  21.032  16.410  38.355  0.0868  0.0274 -0.1116
 2869DPPC   C1B56121  19.874  17.372  37.799 -0.0697  0.2399 -0.1530
 2869DPPC   C2B56122  20.327  17.357  38.048  0.1583  0.0093 -0.0200
 2869DPPC   C3B56123  20.756  17.166  38.288 -0.1619  0.4229 -0.2597
 2869DPPC   C4B56124  21.061  16.946  38.509  0.0972  0.4699  0.1458
 2870DPPC   NC356125  10.153  10.049  36.992  0.2958  0.1327  0.0254
 2870DPPC   PO456126  10.318  10.112  37.424 -0.2231  0.5885 -0.2750
 2870DPPC   GL156127   9.942  10.141  37.384  0.5091  0.2223  0.1695
 2870DPPC   GL256128   9.906  10.222  37.698 -0.2143  0.2721 -0.1017
 2870DPPC   C1A56129   9.605   9.955  37.400 -0.1854 -0.0966 -0.1601
 2870DPPC   C2A56130   9.469   9.631  37.624 -0.0455  0.1249 -0.1633
 2870DPPC   C3A56131   9.265   9.600  38.051  0.1449 -0.2808  0.1628
 2870DPPC   C4A56132   9.055   9.888  38.357  0.1281  0.1314  0.2691
 2870DPPC   C1B56133   9.498  10.119  37.862  0.0284  0.1306 -0.0374
 2870DPPC   C2B56134   9.550  10.010  38.195  0.2862 -0.3312  0.4256
 2870DPPC   C3B56135   9.470   9.668  38.531  0.3080  0.2267 -0.1497
 2870DPPC   C4B56136   9.455   9.307  38.579 -0.1100  0.2103  0.0510
 2871DPPC   NC356137   7.786  15.106  31.545 -0.0763  0.0841 -0.1900
 2871DPPC   PO456138   7.488  15.164  31.269 -0.1743 -0.1791 -0.0730
 2871DPPC   GL156139   7.115  15.303  31.207  0.4252  0.0946 -0.2532
 2871DPPC   GL256140   7.177  15.683  31.153 -0.1687  0.3053  0.1328
 2871DPPC   C1A56141   6.582  15.252  31.294  0.3172  0.1519  0.0594
 2871DPPC   C2A56142   6.208  15.239  31.004 -0.2075  0.1088 -0.1208
 2871DPPC   C3A56143   6.012  14.779  30.879  0.1910 -0.1086 -0.2863
 2871DPPC   C4A56144   5.694  14.474  31.037  0.0964 -0.0628  0.0963
 2871DPPC   C1B56145   6.771  15.743  31.137  0.2197  0.0952 -0.1146
 2871DPPC   C2B56146   6.376  15.654  30.833 -0.2584  0.1768 -0.2670
 2871DPPC   C3B56147   5.880  15.417  30.671  0.0819 -0.0433 -0.0272
 2871DPPC   C4B56148   5.426  15.382  30.751  0.0207  0.0216  0.0302
 2872DPPC   NC356149  19.239   5.393  31.792 -0.0122  0.3228 -0.0247
 2872DPPC   PO456150  19.576   5.283  32.136 -0.0807 -0.1307  0.1656
 2872DPPC   GL156151  19.819   4.872  32.169 -0.1052  0.3706 -0.0367
 2872DPPC   GL256152  20.033   4.852  31.855 -0.0115 -0.1401  0.2475
 2872DPPC   C1A56153  19.886   4.493  32.320 -0.0535 -0.0187 -0.2170
 2872DPPC   C2A56154  19.914   4.166  32.709 -0.1704 -0.0522  0.2742
 2872DPPC   C3A56155  20.025   3.779  32.917  0.0756 -0.2837 -0.0068
 2872DPPC   C4A56156  20.068   3.411  33.250 -0.0811  0.0163 -0.0484
 2872DPPC   C1B56157  20.259   4.457  31.923  0.1506  0.4080 -0.0141
 2872DPPC   C2B56158  20.604   4.148  31.799  0.0783  0.0325 -0.0884
 2872DPPC   C3B56159  20.662   3.821  32.033  0.1250 -0.0876  0.0196
 2872DPPC   C4B56160  20.986   3.512  32.169 -0.0402 -0.4534  0.2683
 2873DPPC   NC356161   7.974  14.076  27.481  0.1876 -0.1071 -0.2583
 2873DPPC   PO456162   7.923  14.294  27.868  0.0597  0.0300 -0.0443
 2873DPPC   GL156163   7.517  14.246  27.642  0.3698  0.1452 -0.0864
 2873DPPC   GL256164   7.478  14.173  27.286 -0.0006  0.0512 -0.0531
 2873DPPC   C1A56165   7.208  13.906  27.603 -0.1350  0.1163  0.2215
 2873DPPC   C2A56166   6.802  13.723  27.596  0.1837  0.2061  0.1144
 2873DPPC   C3A56167   6.420  13.735  27.693  0.2757  0.1267  0.1696
 2873DPPC   C4A56168   5.974  13.665  27.897 -0.1403 -0.1504 -0.0321
 2873DPPC   C1B56169   7.133  14.288  27.313  0.1612 -0.2510 -0.1850
 2873DPPC   C2B56170   6.627  14.197  27.428 -0.1493 -0.0835 -0.0585
 2873DPPC   C3B56171   6.364  14.184  27.103  0.2780  0.0733 -0.0575
 2873DPPC   C4B56172   6.410  14.422  26.757  0.2060 -0.0153  0.0237
 2874DPPC   NC356173  26.301  13.167  21.220 -0.0225  0.1615  0.0989
 2874DPPC   PO456174  25.952  13.250  21.371  0.1742 -0.0563  0.0232
 2874DPPC   GL156175  25.631  13.228  21.619  0.1576  0.0296 -0.0315
 2874DPPC   GL256176  25.900  13.147  22.036  0.1352  0.0217  0.1922
 2874DPPC   C1A56177  25.327  13.176  21.975  0.1942  0.2942  0.1940
 2874DPPC   C2A56178  24.921  13.192  21.855  0.0846  0.0499 -0.2839
 2874DPPC   C3A56179  24.439  13.186  21.900  0.1802  0.2679  0.0941
 2874DPPC   C4A56180  24.455  13.543  22.180 -0.1301 -0.2684 -0.2340
 2874DPPC   C1B56181  25.631  12.757  21.932  0.2518  0.0926 -0.3358
 2874DPPC   C2B56182  25.258  12.647  22.256  0.0945 -0.1750 -0.2634
 2874DPPC   C3B56183  25.155  12.453  22.596  0.2185  0.1317  0.0834
 2874DPPC   C4B56184  24.709  12.331  22.657 -0.0717 -0.1819 -0.0099
 2875DPPC   NC356185  18.972   5.239  32.286  0.1700 -0.0469 -0.2271
 2875DPPC   PO456186  18.832   5.171  32.630 -0.0646  0.3172 -0.1739
 2875DPPC   GL156187  18.836   4.726  32.803  0.1033 -0.0840  0.1936
 2875DPPC   GL256188  19.159   4.780  33.002 -0.1037 -0.3134  0.3399
 2875DPPC   C1A56189  18.723   4.507  33.208  0.0786  0.3943  0.0035
 2875DPPC   C2A56190  18.591   4.065  33.341  0.0762  0.0874  0.3844
 2875DPPC   C3A56191  18.678   3.765  33.667 -0.0927  0.0549 -0.2724
 2875DPPC   C4A56192  18.774   3.409  33.977 -0.3656 -0.1650 -0.2399
 2875DPPC   C1B56193  19.162   4.338  32.939 -0.0839  0.0494  0.3741
 2875DPPC   C2B56194  19.151   3.873  32.828 -0.0782  0.1868  0.2357
 2875DPPC   C3B56195  19.133   3.436  32.959  0.0841 -0.3454 -0.4039
 2875DPPC   C4B56196  19.302   3.060  32.809  0.1236  0.0069 -0.0913
 2876DPPC   NC356197   8.463  16.934  31.662 -0.1233  0.1795 -0.0574
 2876DPPC   PO456198   7.974  16.930  31.691  0.3301  0.1603  0.4614
 2876DPPC   GL156199   7.700  17.193  31.885 -0.2053  0.1994  0.0476
 2876DPPC   GL256200   7.704  17.346  32.330  0.1774 -0.1412  0.1154
 2876DPPC   C1A56201   7.318  17.310  31.717  0.0046  0.0916 -0.0325
 2876DPPC   C2A56202   7.040  17.606  31.492 -0.1003  0.0720  0.0319
 2876DPPC   C3A56203   6.663  17.535  31.440 -0.0859 -0.1419  0.0184
 2876DPPC   C4A56204   6.408  17.120  31.176  0.2908 -0.1238  0.0999
 2876DPPC   C1B56205   7.436  17.550  32.149 -0.1029 -0.0975  0.1138
 2876DPPC   C2B56206   6.965  17.744  31.994  0.1177  0.1581 -0.1313
 2876DPPC   C3B56207   6.842  17.998  31.722  0.1642  0.1933 -0.1505
 2876DPPC   C4B56208   6.460  18.320  31.703 -0.0654  0.1040  0.0612
 2877DPPC   NC356209   4.856   8.413  25.055 -0.2899 -0.3078 -0.2464
 2877DPPC   PO456210   5.028   8.377  25.574 -0.3177 -0.1727  0.0146
 2877DPPC   GL156211   5.299   8.785  25.666  0.2975 -0.3224 -0.1344
 2877DPPC   GL256212   5.438   8.983  25.470  0.0870 -0.0241  0.1171
 2877DPPC   C1A56213   5.455   9.245  25.981 -0.0574 -0.1062 -0.4116
 2877DPPC   C2A56214   5.813   9.341  26.281  0.1516 -0.0445 -0.0019
 2877DPPC   C3A56215   6.124   9.572  26.368  0.4294  0.2816 -0.2387
 2877DPPC   C4A56216   6.430   9.747  26.575  0.1490  0.1252 -0.1131
 2877DPPC   C1B56217   5.797   8.934  25.449  0.0202  0.0848 -0.2606
 2877DPPC   C2B56218   6.268   9.110  25.473 -0.2638 -0.2061  0.0376
 2877DPPC   C3B56219   6.514   9.482  25.466 -0.3703 -0.1747 -0.2344
 2877DPPC   C4B56220   6.591   9.942  25.497 -0.2223  0.1599 -0.1105
 2878DPPC   NC356221  16.187  12.980  23.219 -0.0182 -0.2428  0.1317
 2878DPPC   PO456222  15.911  13.196  22.962 -0.3656 -0.0175 -0.0991
 2878DPPC   GL156223  15.917  13.322  23.399 -0.0486 -0.1543 -0.1030
 2878DPPC   GL256224  15.679  13.296  23.536  0.0396  0.0065  0.0651
 2878DPPC   C1A56225  15.998  13.514  23.821 -0.2262  0.2799  0.1764
 2878DPPC   C2A56226  16.178  13.807  24.121  0.0189 -0.1066 -0.1410
 2878DPPC   C3A56227  16.308  13.690  24.433 -0.2694  0.0440  0.4059
 2878DPPC   C4A56228  16.052  13.741  24.848 -0.1948 -0.1074  0.0518
 2878DPPC   C1B56229  15.712  13.142  23.980 -0.1000  0.0320 -0.0069
 2878DPPC   C2B56230  15.818  12.964  24.402 -0.0324 -0.2167 -0.2896
 2878DPPC   C3B56231  15.502  12.721  24.773  0.1152 -0.1159  0.1047
 2878DPPC   C4B56232  15.739  12.487  24.982  0.4387  0.0739  0.1525
 2879DPPC   NC356233   8.250  15.465  34.648  0.2712  0.1605  0.0267
 2879DPPC   PO456234   8.301  15.798  34.804 -0.0376 -0.0635 -0.2893
 2879DPPC   GL156235   8.124  16.086  34.985 -0.0666 -0.2447 -0.0362
 2879DPPC   GL256236   8.109  16.458  34.846  0.0364  0.2395  0.1448
 2879DPPC   C1A56237   8.039  16.258  35.372  0.1225  0.1696  0.0561
 2879DPPC   C2A56238   7.847  16.595  35.438 -0.0540  0.0502 -0.3406
 2879DPPC   C3A56239   7.492  16.842  35.368  0.0393 -0.1653 -0.0769
 2879DPPC   C4A56240   7.048  16.942  35.040 -0.1281  0.3205 -0.0752
 2879DPPC   C1B56241   7.692  16.279  35.060  0.1715 -0.0967 -0.1585
 2879DPPC   C2B56242   7.383  16.326  35.343  0.1044  0.0626 -0.0949
 2879DPPC   C3B56243   7.041  16.567  35.429 -0.0345 -0.1834 -0.3031
 2879DPPC   C4B56244   6.679  16.686  35.728 -0.1972 -0.0046 -0.0904
 2880DPPC   NC356245  19.657  12.453  23.573  0.2036 -0.1714 -0.1595
 2880DPPC   PO456246  19.336  12.198  23.652 -0.0213 -0.1426 -0.1219
 2880DPPC   GL156247  19.006  12.397  23.750  0.1043  0.0821 -0.0368
 2880DPPC   GL256248  18.948  12.275  24.101 -0.1542  0.1696  0.1534
 2880DPPC   C1A56249  18.834  12.728  24.152 -0.0482 -0.2342 -0.4225
 2880DPPC   C2A56250  18.866  13.077  24.453 -0.3426 -0.0927 -0.3476
 2880DPPC   C3A56251  18.747  13.133  24.845 -0.1925 -0.5479 -0.1460
 2880DPPC   C4A56252  18.856  13.535  25.048 -0.0825 -0.0786 -0.0969
 2880DPPC   C1B56253  18.593  12.211  24.333 -0.1043 -0.1225  0.0309
 2880DPPC   C2B56254  18.153  12.242  24.407  0.0149  0.1166 -0.1296
 2880DPPC   C3B56255  17.811  12.119  24.403  0.0948 -0.0939 -0.2862
 2880DPPC   C4B56256  17.499  12.238  24.499  0.1571 -0.1939  0.0093
 2881DPPC   NC356257  13.853  16.004  43.607  0.2018  0.0262  0.0752
 2881DPPC   PO456258  13.869  15.698  43.220 -0.1017  0.0172  0.1079
 2881DPPC   GL156259  13.816  15.704  42.834  0.2489  0.0307 -0.0628
 2881DPPC   GL256260  13.900  15.544  42.451 -0.0433  0.2385  0.0124
 2881DPPC   C1A56261  13.712  15.995  42.431  0.1099  0.5299 -0.2166
 2881DPPC   C2A56262  13.518  16.385  42.393  0.1980 -0.0194  0.0541
 2881DPPC   C3A56263  13.192  16.603  42.122  0.1676  0.2677 -0.0119
 2881DPPC   C4A56264  12.935  16.745  41.765 -0.0173 -0.0110 -0.3320
 2881DPPC   C1B56265  14.108  15.405  42.233 -0.0827 -0.2181  0.0514
 2881DPPC   C2B56266  14.302  15.423  41.809  0.1565  0.1888 -0.0850
 2881DPPC   C3B56267  14.663  15.623  41.652  0.3618 -0.3726 -0.2150
 2881DPPC   C4B56268  15.063  15.605  41.441 -0.1231  0.1477  0.3803
 2882DPPC   NC356269  19.370   6.705  34.212  0.0001 -0.0398 -0.1569
 2882DPPC   PO456270  19.260   6.403  34.534 -0.0190 -0.0145 -0.0371
 2882DPPC   GL156271  19.649   6.081  34.612  0.1156 -0.0938 -0.2864
 2882DPPC   GL256272  19.491   5.732  34.707  0.0144 -0.2411  0.3230
 2882DPPC   C1A56273  19.992   5.834  34.710  0.0558  0.0375  0.1350
 2882DPPC   C2A56274  20.395   5.623  34.561 -0.0381 -0.2677  0.2000
 2882DPPC   C3A56275  20.634   5.247  34.714 -0.0566 -0.0505 -0.1342
 2882DPPC   C4A56276  21.031   5.042  34.748 -0.2619  0.3313 -0.0829
 2882DPPC   C1B56277  19.763   5.411  34.776 -0.1038  0.0563  0.0271
 2882DPPC   C2B56278  20.184   5.361  35.005 -0.0438  0.1901  0.1730
 2882DPPC   C3B56279  20.440   5.107  35.222 -0.1917 -0.1002 -0.1538
 2882DPPC   C4B56280  20.780   4.797  35.118 -0.2026 -0.2290 -0.0790
 2883DPPC   NC356281  17.518  19.690  23.530 -0.1261 -0.1277 -0.0665
 2883DPPC   PO456282  17.256  19.536  23.239 -0.1097 -0.2472  0.1040
 2883DPPC   GL156283  17.402  19.907  23.046  0.0113 -0.0530 -0.0733
 2883DPPC   GL256284  17.609  20.144  23.223 -0.0701 -0.2012 -0.1882
 2883DPPC   C1A56285  17.339  20.331  22.803 -0.1598  0.1951  0.1795
 2883DPPC   C2A56286  17.157  20.725  22.956  0.1700 -0.0534 -0.0269
 2883DPPC   C3A56287  16.983  21.134  22.806  0.3613 -0.0449  0.0188
 2883DPPC   C4A56288  16.745  21.488  22.805 -0.0115  0.0563  0.0224
 2883DPPC   C1B56289  17.615  20.421  23.659 -0.1412 -0.1930 -0.2423
 2883DPPC   C2B56290  17.972  20.610  23.759  0.1863  0.1218  0.0866
 2883DPPC   C3B56291  18.339  20.819  23.611  0.0294 -0.1414 -0.0775
 2883DPPC   C4B56292  18.708  21.133  23.762 -0.1637  0.2551  0.1009
 2884DPPC   NC356293  19.002   4.548  31.497 -0.0745  0.1072  0.1490
 2884DPPC   PO456294  19.236   4.941  31.503  0.3350  0.3629 -0.0749
 2884DPPC   GL156295  19.485   4.512  31.622 -0.1423 -0.1091 -0.2489
 2884DPPC   GL256296  19.600   4.309  31.912  0.0882  0.0292 -0.2268
 2884DPPC   C1A56297  19.345   4.020  31.630 -0.1325 -0.1049 -0.0801
 2884DPPC   C2A56298  19.473   3.687  31.903  0.1238 -0.2790 -0.1029
 2884DPPC   C3A56299  19.779   3.470  32.071  0.0326  0.2488 -0.4528
 2884DPPC   C4A56300  20.315   3.354  32.215  0.0466 -0.1899 -0.0480
 2884DPPC   C1B56301  19.909   4.030  31.669  0.1577  0.2474  0.0294
 2884DPPC   C2B56302  20.135   3.622  31.825  0.1240 -0.5471  0.0888
 2884DPPC   C3B56303  20.477   3.489  31.621  0.1407  0.4203  0.0775
 2884DPPC   C4B56304  20.830   3.292  31.740 -0.1874 -0.1030  0.1675
 2885DPPC   NC356305  22.766  19.395  25.240 -0.0254  0.0176 -0.1643
 2885DPPC   PO456306  22.709  19.726  25.502 -0.0675 -0.2573  0.1923
 2885DPPC   GL156307  22.290  19.454  25.520  0.1916 -0.4550 -0.1117
 2885DPPC   GL256308  22.356  19.172  25.519  0.0735  0.1022 -0.1104
 2885DPPC   C1A56309  21.896  19.316  25.767  0.0239  0.0623 -0.2669
 2885DPPC   C2A56310  21.709  18.882  25.769  0.1965  0.2416  0.2797
 2885DPPC   C3A56311  21.353  18.593  25.822  0.0457 -0.1085 -0.3417
 2885DPPC   C4A56312  21.118  18.272  25.960 -0.0602 -0.1427 -0.1247
 2885DPPC   C1B56313  22.015  18.826  25.260 -0.0388 -0.0844 -0.1047
 2885DPPC   C2B56314  21.877  18.352  25.358 -0.0503  0.3318  0.0571
 2885DPPC   C3B56315  21.819  17.953  25.513 -0.1777  0.1377 -0.2204
 2885DPPC   C4B56316  21.584  17.836  25.902  0.0832  0.1028  0.0088
 2886DPPC   NC356317  18.661  23.241  38.454  0.0958  0.0106 -0.1583
 2886DPPC   PO456318  18.602  22.923  38.165  0.0033 -0.0649  0.0847
 2886DPPC   GL156319  18.431  22.550  37.911  0.0124  0.3617  0.1686
 2886DPPC   GL256320  18.391  22.483  37.580  0.0006 -0.4655 -0.2808
 2886DPPC   C1A56321  18.474  22.061  37.818 -0.0906  0.1052  0.0426
 2886DPPC   C2A56322  18.564  21.696  37.605 -0.0051  0.0970  0.2021
 2886DPPC   C3A56323  18.982  21.624  37.420  0.1007 -0.0251 -0.0383
 2886DPPC   C4A56324  19.192  21.462  37.060  0.1444  0.1569 -0.0768
 2886DPPC   C1B56325  18.252  22.167  37.409  0.0259 -0.0784 -0.0852
 2886DPPC   C2B56326  18.225  21.821  37.248 -0.2477  0.1063 -0.2720
 2886DPPC   C3B56327  18.283  21.421  37.222 -0.0946  0.0661  0.1401
 2886DPPC   C4B56328  18.138  21.145  36.934  0.1031 -0.0175 -0.0060
 2887DPPC   NC356329  12.938  19.861  34.243 -0.0102 -0.3407 -0.3552
 2887DPPC   PO456330  12.625  20.222  34.121 -0.0026 -0.1301 -0.1370
 2887DPPC   GL156331  12.538  20.535  34.337  0.1534  0.2485  0.0246
 2887DPPC   GL256332  12.760  20.806  34.357  0.1249  0.1414 -0.0101
 2887DPPC   C1A56333  12.457  20.555  34.670 -0.3049  0.1151  0.0982
 2887DPPC   C2A56334  12.414  21.000  34.847  0.2084 -0.0261 -0.4547
 2887DPPC   C3A56335  12.181  21.293  35.070 -0.0018  0.1981  0.0870
 2887DPPC   C4A56336  11.898  21.605  35.238 -0.2081  0.2812  0.1861
 2887DPPC   C1B56337  12.525  21.208  34.405  0.0274 -0.1733  0.0092
 2887DPPC   C2B56338  12.534  21.634  34.539 -0.0864 -0.1177 -0.1584
 2887DPPC   C3B56339  12.264  21.729  34.847  0.2090 -0.0750 -0.3986
 2887DPPC   C4B56340  11.895  22.012  34.882  0.1166  0.5378  0.1170
 2888DPPC   NC356341  18.899  17.064  15.564 -0.1018  0.0234 -0.3110
 2888DPPC   PO456342  18.925  16.714  15.839  0.0406 -0.0844 -0.3950
 2888DPPC   GL156343  18.817  16.474  16.177  0.1582 -0.0556  0.0835
 2888DPPC   GL256344  18.781  16.672  16.428 -0.0285  0.1707 -0.1074
 2888DPPC   C1A56345  18.611  16.157  16.350 -0.1290 -0.0456  0.0438
 2888DPPC   C2A56346  18.752  15.820  16.361 -0.0318 -0.0945  0.0346
 2888DPPC   C3A56347  18.747  15.427  16.560  0.0013  0.0807 -0.1833
 2888DPPC   C4A56348  18.708  15.149  16.813 -0.1076  0.0809  0.0826
 2888DPPC   C1B56349  18.651  16.791  16.879  0.0092  0.0375 -0.1584
 2888DPPC   C2B56350  18.692  16.575  17.291 -0.1499 -0.0031 -0.2333
 2888DPPC   C3B56351  18.450  16.437  17.661  0.2610  0.0395 -0.2543
 2888DPPC   C4B56352  18.158  16.164  17.835  0.1983 -0.0764 -0.0286
 2889DPPC   NC356353  12.844   0.887  26.122 -0.3489  0.0538  0.0614
 2889DPPC   PO456354  13.181   0.652  26.098 -0.0728 -0.0044  0.2567
 2889DPPC   GL156355  13.391   1.057  26.090 -0.1047  0.2791 -0.0039
 2889DPPC   GL256356  13.725   1.054  26.257  0.0179  0.1658  0.1945
 2889DPPC   C1A56357  13.465   1.484  26.190  0.1451 -0.1402 -0.3297
 2889DPPC   C2A56358  13.571   1.738  26.403 -0.1749 -0.0501  0.2116
 2889DPPC   C3A56359  13.591   2.173  26.549 -0.2609 -0.1593 -0.0971
 2889DPPC   C4A56360  13.849   2.550  26.793 -0.0217  0.1494 -0.2167
 2889DPPC   C1B56361  13.893   1.316  25.893  0.1891 -0.2821 -0.0979
 2889DPPC   C2B56362  13.712   1.704  25.766  0.0806 -0.1474  0.0058
 2889DPPC   C3B56363  13.597   2.066  25.552  0.2165 -0.2004 -0.0312
 2889DPPC   C4B56364  13.403   2.475  25.596  0.1808 -0.0194  0.2861
 2890DPPC   NC356365  12.859   4.995  28.020 -0.1535 -0.0947  0.1144
 2890DPPC   PO456366  13.151   4.998  28.349  0.0577 -0.1008 -0.0608
 2890DPPC   GL156367  13.134   4.541  28.499 -0.2591  0.1869  0.0557
 2890DPPC   GL256368  12.810   4.504  28.562 -0.1687 -0.0601  0.0916
 2890DPPC   C1A56369  13.205   4.060  28.482 -0.1147 -0.1425 -0.0877
 2890DPPC   C2A56370  13.015   3.581  28.489  0.2644  0.1403 -0.3457
 2890DPPC   C3A56371  12.712   3.379  28.637  0.1517  0.1973  0.2183
 2890DPPC   C4A56372  12.420   3.147  28.331 -0.0296  0.1585  0.0938
 2890DPPC   C1B56373  12.683   4.073  28.523 -0.1839  0.0308  0.0662
 2890DPPC   C2B56374  12.373   3.774  28.683  0.0987 -0.0676 -0.7421
 2890DPPC   C3B56375  12.208   3.347  28.800 -0.0018  0.0184 -0.1162
 2890DPPC   C4B56376  11.811   3.170  28.939  0.0998  0.4023 -0.0604
 2891DPPC   NC356377  14.443  12.103  40.156  0.1185 -0.2612 -0.1825
 2891DPPC   PO456378  14.065  12.331  40.140 -0.0738  0.3440  0.1068
 2891DPPC   GL156379  14.140  12.274  40.571 -0.1245 -0.1012 -0.0535
 2891DPPC   GL256380  14.425  12.074  40.655  0.0726  0.0317 -0.0295
 2891DPPC   C1A56381  14.244  12.415  40.925 -0.2270  0.0502  0.2927
 2891DPPC   C2A56382  14.138  12.321  41.402 -0.0470 -0.3656  0.2213
 2891DPPC   C3A56383  14.102  11.985  41.696 -0.0762 -0.1244 -0.0915
 2891DPPC   C4A56384  14.069  12.144  42.110  0.1143 -0.2196  0.2898
 2891DPPC   C1B56385  14.086  11.871  40.897  0.1595  0.2052 -0.0451
 2891DPPC   C2B56386  14.012  11.739  41.317 -0.1084  0.1407 -0.1172
 2891DPPC   C3B56387  13.867  11.571  41.533 -0.0576 -0.1016  0.1111
 2891DPPC   C4B56388  13.776  11.272  41.771  0.1374  0.0897  0.0532
 2892DPPC   NC356389   8.153   8.904  20.347 -0.0667  0.1377 -0.0223
 2892DPPC   PO456390   8.459   8.641  20.426 -0.0973 -0.1181 -0.0462
 2892DPPC   GL156391   8.807   8.682  20.752  0.0911 -0.0066  0.1406
 2892DPPC   GL256392   9.026   8.436  20.769 -0.1326 -0.0885 -0.0481
 2892DPPC   C1A56393   8.927   8.688  21.196  0.2584  0.0929  0.0511
 2892DPPC   C2A56394   9.254   8.785  21.544  0.3231  0.2548 -0.1245
 2892DPPC   C3A56395   9.586   8.543  21.768  0.1954 -0.2387  0.2863
 2892DPPC   C4A56396   9.487   8.182  21.892  0.1850  0.0118  0.1749
 2892DPPC   C1B56397   9.333   8.520  20.900 -0.2045  0.0510 -0.1826
 2892DPPC   C2B56398   9.614   8.761  20.940 -0.0515 -0.0516  0.2574
 2892DPPC   C3B56399  10.039   8.885  21.033  0.0535  0.3221 -0.0243
 2892DPPC   C4B56400  10.471   9.143  20.904  0.0992  0.5010 -0.0132
 2893DPPC   NC356401  23.533  11.822  34.213 -0.2731 -0.0786 -0.0471
 2893DPPC   PO456402  23.366  11.446  34.222 -0.1303 -0.3778  0.0103
 2893DPPC   GL156403  23.791  11.321  34.447 -0.0770 -0.0329 -0.1513
 2893DPPC   GL256404  23.973  11.558  34.273  0.0086 -0.0568 -0.1506
 2893DPPC   C1A56405  24.163  11.068  34.603  0.2092  0.3613 -0.1298
 2893DPPC   C2A56406  24.537  10.803  34.468  0.2699  0.0725  0.4197
 2893DPPC   C3A56407  24.540  10.556  34.116 -0.2190 -0.0199  0.2922
 2893DPPC   C4A56408  24.436  10.077  34.120 -0.0963 -0.1383  0.2204
 2893DPPC   C1B56409  24.221  11.906  34.453 -0.3992  0.0957 -0.2213
 2893DPPC   C2B56410  24.541  12.019  34.773 -0.2873  0.3426  0.0251
 2893DPPC   C3B56411  24.612  12.113  35.118 -0.4273 -0.1530  0.1598
 2893DPPC   C4B56412  24.959  12.352  35.045 -0.1723 -0.0441 -0.1280
 2894DPPC   NC356413  19.227  14.482  27.428 -0.4349  0.0332 -0.2266
 2894DPPC   PO456414  19.413  14.839  27.654  0.2270 -0.1472  0.1315
 2894DPPC   GL156415  19.282  14.891  27.202 -0.0722  0.1732  0.1860
 2894DPPC   GL256416  18.944  14.774  27.109  0.0473 -0.2698  0.0382
 2894DPPC   C1A56417  19.322  15.052  26.703 -0.0541  0.3550 -0.4437
 2894DPPC   C2A56418  19.528  15.036  26.307  0.4472  0.1470 -0.0919
 2894DPPC   C3A56419  19.568  15.276  25.959  0.0082 -0.3394 -0.3783
 2894DPPC   C4A56420  19.607  15.644  25.755 -0.0116 -0.2417 -0.0250
 2894DPPC   C1B56421  18.773  14.967  26.667  0.1410  0.1852  0.0838
 2894DPPC   C2B56422  18.924  15.148  26.389  0.1011 -0.0511 -0.0887
 2894DPPC   C3B56423  19.114  15.452  26.130 -0.1536 -0.1583 -0.4220
 2894DPPC   C4B56424  19.054  15.731  25.766 -0.1448 -0.1303 -0.2720
 2895DPPC   NC356425   4.266  15.089  25.415 -0.0309 -0.4184 -0.1679
 2895DPPC   PO456426   4.569  15.522  25.404  0.1237 -0.2267 -0.2109
 2895DPPC   GL156427   4.851  15.234  25.470  0.0899 -0.0570 -0.4041
 2895DPPC   GL256428   4.724  15.054  25.704 -0.0107  0.3196 -0.3474
 2895DPPC   C1A56429   5.062  14.953  25.167  0.3030 -0.1546  0.2527
 2895DPPC   C2A56430   5.463  14.911  24.989 -0.0779 -0.1196  0.1620
 2895DPPC   C3A56431   5.887  14.781  24.930 -0.1787  0.0177  0.2299
 2895DPPC   C4A56432   6.054  14.276  24.808 -0.0805 -0.4497 -0.0355
 2895DPPC   C1B56433   4.962  15.140  26.094  0.0467  0.1749  0.0352
 2895DPPC   C2B56434   5.340  15.115  26.288 -0.2155  0.1343 -0.2011
 2895DPPC   C3B56435   5.739  14.992  26.520 -0.2779  0.0333  0.1241
 2895DPPC   C4B56436   6.153  14.769  26.541  0.3711 -0.0389 -0.0340
 2896DPPC   NC356437  19.360   5.218  32.884  0.0483 -0.0299 -0.3470
 2896DPPC   PO456438  19.341   5.004  32.485 -0.2310 -0.1295  0.0400
 2896DPPC   GL156439  19.473   4.642  32.566  0.0440 -0.0445 -0.3869
 2896DPPC   GL256440  19.807   4.674  32.740  0.1622  0.0177  0.4137
 2896DPPC   C1A56441  19.466   4.239  32.506  0.1614  0.2626  0.0527
 2896DPPC   C2A56442  19.792   3.905  32.280  0.1795  0.0145 -0.1185
 2896DPPC   C3A56443  20.159   3.990  32.199 -0.0300  0.1438  0.0871
 2896DPPC   C4A56444  20.464   3.973  32.622  0.1130 -0.1914  0.4022
 2896DPPC   C1B56445  19.703   4.576  33.037  0.2391  0.1529 -0.0222
 2896DPPC   C2B56446  19.526   4.046  33.113 -0.0357 -0.0388 -0.0820
 2896DPPC   C3B56447  19.534   3.533  33.308 -0.1414  0.0957  0.1164
 2896DPPC   C4B56448  19.729   3.289  33.646  0.1241 -0.3118 -0.1733
 2897DPPC   NC356449  10.621  18.441  35.255 -0.0858  0.0257  0.2491
 2897DPPC   PO456450  10.942  18.617  35.623  0.3012 -0.0798  0.0340
 2897DPPC   GL156451  10.654  18.770  35.850  0.0378 -0.0896  0.3584
 2897DPPC   GL256452  10.390  18.771  35.589  0.2215  0.3638 -0.2673
 2897DPPC   C1A56453  10.762  19.176  36.034 -0.0923  0.1702  0.1479
 2897DPPC   C2A56454  10.854  19.400  36.439  0.2962 -0.4062 -0.1628
 2897DPPC   C3A56455  10.867  19.553  36.958 -0.0121  0.0256  0.1639
 2897DPPC   C4A56456  10.731  19.903  37.225  0.0457  0.0280 -0.0361
 2897DPPC   C1B56457  10.451  19.197  35.667  0.3975  0.3063  0.0497
 2897DPPC   C2B56458  10.396  19.624  35.836  0.3050  0.1442  0.3081
 2897DPPC   C3B56459  10.276  19.818  36.186 -0.2272 -0.3000 -0.0953
 2897DPPC   C4B56460  10.341  20.194  36.409  0.0842 -0.0400 -0.3159
 2898DPPC   NC356461  18.687  15.887  37.816 -0.2054  0.2973  0.1693
 2898DPPC   PO456462  19.093  16.050  37.820 -0.0434 -0.2076 -0.0685
 2898DPPC   GL156463  19.256  16.292  38.217  0.0000 -0.0000 -0.0970
 2898DPPC   GL256464  19.081  16.549  38.114  0.3680 -0.4100  0.1239
 2898DPPC   C1A56465  19.617  16.396  38.422 -0.0711 -0.1740 -0.0311
 2898DPPC   C2A56466  19.786  16.739  38.604  0.1122 -0.1657  0.0982
 2898DPPC   C3A56467  19.751  17.166  38.673 -0.1443 -0.0488  0.0162
 2898DPPC   C4A56468  19.877  17.500  39.104 -0.3184  0.1160  0.0956
 2898DPPC   C1B56469  19.140  16.929  38.321 -0.0182  0.2475 -0.0375
 2898DPPC   C2B56470  19.419  17.303  38.294  0.1928  0.1052 -0.1530
 2898DPPC   C3B56471  19.579  17.659  38.625  0.0419 -0.0921 -0.2115
 2898DPPC   C4B56472  19.839  17.973  38.886  0.1114 -0.0149 -0.0477
 2899DPPC   NC356473   3.158  16.606  33.041  0.0940  0.0129  0.1518
 2899DPPC   PO456474   3.319  16.340  32.755  0.0088 -0.0026  0.2098
 2899DPPC   GL156475   3.674  16.217  32.711  0.2611 -0.0254 -0.1805
 2899DPPC   GL256476   3.938  16.410  32.515 -0.0249  0.0873 -0.0426
 2899DPPC   C1A56477   4.084  15.990  32.695 -0.3253 -0.2749  0.0615
 2899DPPC   C2A56478   4.355  15.777  32.963  0.2716  0.2417  0.1547
 2899DPPC   C3A56479   4.739  15.500  32.864 -0.1317 -0.0346  0.1001
 2899DPPC   C4A56480   5.134  15.313  32.708 -0.5768  0.0285 -0.0173
 2899DPPC   C1B56481   4.413  16.316  32.549 -0.1771  0.0809 -0.0207
 2899DPPC   C2B56482   4.920  16.276  32.580 -0.0884 -0.0152 -0.0462
 2899DPPC   C3B56483   5.215  16.258  32.214 -0.0711 -0.0507 -0.0210
 2899DPPC   C4B56484   5.621  16.198  32.069  0.1079 -0.0569 -0.0799
 2900DPPC   NC356485  21.681  14.249  26.608  0.2519 -0.5097 -0.0225
 2900DPPC   PO456486  21.765  13.954  26.789  0.0316 -0.0606 -0.1537
 2900DPPC   GL156487  22.139  14.117  26.527  0.2335  0.0186  0.0817
 2900DPPC   GL256488  22.050  14.155  26.218 -0.3067  0.1909 -0.2550
 2900DPPC   C1A56489  22.549  14.138  26.352 -0.1179  0.1760 -0.0174
 2900DPPC   C2A56490  22.921  14.413  26.202 -0.2929 -0.0528 -0.1234
 2900DPPC   C3A56491  23.386  14.388  26.301 -0.1414  0.0679 -0.0441
 2900DPPC   C4A56492  23.792  14.450  26.305  0.3420  0.2531  0.0842
 2900DPPC   C1B56493  21.856  14.474  26.023 -0.3002  0.0191 -0.2091
 2900DPPC   C2B56494  22.047  14.809  25.732 -0.4148 -0.1136  0.4428
 2900DPPC   C3B56495  22.162  15.189  25.506  0.0513  0.0477 -0.2608
 2900DPPC   C4B56496  22.495  15.225  25.289 -0.0224 -0.1255  0.0963
 2901DPPC   NC356497  21.732   9.265  16.040 -0.1574 -0.1219  0.0431
 2901DPPC   PO456498  22.085   9.103  16.170  0.1416 -0.0560  0.3792
 2901DPPC   GL156499  22.112   9.290  16.533 -0.1978 -0.0453  0.1754
 2901DPPC   GL256500  22.041   9.082  16.815 -0.0952 -0.1634 -0.1122
 2901DPPC   C1A56501  21.840   9.608  16.755  0.1095  0.1200 -0.1411
 2901DPPC   C2A56502  21.496   9.955  16.638 -0.0842  0.0105 -0.1357
 2901DPPC   C3A56503  21.528  10.249  16.971 -0.0699  0.3205 -0.3676
 2901DPPC   C4A56504  21.458  10.425  17.409  0.0191  0.2130 -0.1873
 2901DPPC   C1B56505  21.738   9.241  17.090 -0.1108  0.0651  0.1836
 2901DPPC   C2B56506  21.650   9.287  17.446 -0.0844 -0.3595 -0.3903
 2901DPPC   C3B56507  21.959   9.306  17.775  0.2207  0.1777  0.2330
 2901DPPC   C4B56508  22.400   9.436  17.602  0.1712 -0.2393  0.3743
 2902DPPC   NC356509  17.524   1.675  23.055  0.3534  0.1458 -0.0337
 2902DPPC   PO456510  17.523   1.915  22.649 -0.1312 -0.3595 -0.0870
 2902DPPC   GL156511  17.482   2.340  22.573 -0.0132 -0.1243  0.0721
 2902DPPC   GL256512  17.838   2.361  22.618  0.0396 -0.1442  0.1538
 2902DPPC   C1A56513  17.484   2.564  22.957 -0.2677  0.0354 -0.1102
 2902DPPC   C2A56514  17.359   2.565  23.443  0.1664 -0.2529  0.1486
 2902DPPC   C3A56515  17.546   2.816  23.701  0.0108  0.0727 -0.0805
 2902DPPC   C4A56516  17.547   3.290  23.873  0.0649  0.1693 -0.1467
 2902DPPC   C1B56517  18.027   2.655  22.902 -0.2534  0.0816  0.0352
 2902DPPC   C2B56518  17.830   2.790  23.221 -0.1305 -0.0171  0.1958
 2902DPPC   C3B56519  17.602   3.060  23.174 -0.1076  0.0636 -0.2906
 2902DPPC   C4B56520  17.380   3.307  22.951  0.3786  0.0707  0.3349
 2903DPPC   NC356521  26.125   8.158  36.393  0.0189  0.0350 -0.3549
 2903DPPC   PO456522  26.000   8.003  36.687  0.2711  0.1943  0.1151
 2903DPPC   GL156523  25.653   8.362  36.691 -0.0695 -0.0538  0.1030
 2903DPPC   GL256524  25.469   8.265  36.468  0.1618 -0.0361  0.0336
 2903DPPC   C1A56525  25.196   8.585  36.760 -0.2182 -0.0018  0.2535
 2903DPPC   C2A56526  25.060   8.890  36.521  0.1099 -0.0362  0.0033
 2903DPPC   C3A56527  24.844   8.973  36.146  0.0485  0.2161  0.0900
 2903DPPC   C4A56528  24.492   8.951  35.935 -0.2683  0.3981 -0.0847
 2903DPPC   C1B56529  25.286   8.023  36.107 -0.2044  0.0746 -0.1744
 2903DPPC   C2B56530  25.090   8.060  35.690 -0.0778 -0.2833  0.0232
 2903DPPC   C3B56531  24.778   8.184  35.485  0.6561 -0.0013 -0.1971
 2903DPPC   C4B56532  24.516   8.157  35.209  0.0133  0.1190 -0.1708
 2904DPPC   NC356533   9.481   9.860  33.933 -0.2757  0.1839 -0.0470
 2904DPPC   PO456534   9.301   9.509  34.235 -0.3023 -0.1714 -0.0032
 2904DPPC   GL156535   8.860   9.548  34.201  0.1008 -0.1456 -0.0754
 2904DPPC   GL256536   8.872   9.752  34.012  0.0912 -0.0351 -0.0379
 2904DPPC   C1A56537   8.523   9.322  34.253 -0.1119  0.1626  0.0588
 2904DPPC   C2A56538   8.183   9.028  34.570 -0.0086 -0.0253  0.3837
 2904DPPC   C3A56539   8.136   8.691  34.804  0.3357  0.1247 -0.1014
 2904DPPC   C4A56540   8.010   8.275  34.993  0.0101  0.0999  0.0785
 2904DPPC   C1B56541   8.389   9.850  34.130  0.0467  0.0083  0.0951
 2904DPPC   C2B56542   7.937   9.606  34.231 -0.1854 -0.0699 -0.0234
 2904DPPC   C3B56543   7.789   9.255  34.342  0.0419  0.1664 -0.0571
 2904DPPC   C4B56544   7.516   8.908  34.397 -0.0764 -0.3633  0.2028
 2905DPPC   NC356545  15.578   5.069  26.547 -0.0205 -0.1410 -0.2092
 2905DPPC   PO456546  15.793   5.006  26.143 -0.2195  0.0515  0.0737
 2905DPPC   GL156547  15.626   4.683  25.988 -0.0720  0.0396  0.2360
 2905DPPC   GL256548  15.776   4.315  26.071 -0.1748 -0.1381 -0.0328
 2905DPPC   C1A56549  15.439   4.338  25.757  0.1271 -0.2328  0.0869
 2905DPPC   C2A56550  15.418   3.857  25.785  0.0372 -0.0808 -0.0608
 2905DPPC   C3A56551  15.651   3.522  25.619  0.2048 -0.0322  0.0645
 2905DPPC   C4A56552  15.762   3.109  25.555  0.0029 -0.0193  0.0569
 2905DPPC   C1B56553  15.876   3.885  25.942 -0.0623 -0.2864  0.2632
 2905DPPC   C2B56554  16.159   3.565  25.817 -0.0354 -0.0857  0.0492
 2905DPPC   C3B56555  16.353   3.203  25.753 -0.0709 -0.0573 -0.0192
 2905DPPC   C4B56556  16.577   2.868  25.614  0.0376 -0.0293 -0.1965
 2906DPPC   NC356557  20.162  10.809  39.053  0.1353  0.1877 -0.1615
 2906DPPC   PO456558  19.917  10.929  39.449  0.0030 -0.3112 -0.0887
 2906DPPC   GL156559  19.851  10.799  39.839  0.1431 -0.1356  0.2622
 2906DPPC   GL256560  19.513  10.792  39.948 -0.2446 -0.0337 -0.0561
 2906DPPC   C1A56561  19.928  10.683  40.233  0.0840 -0.0044 -0.3107
 2906DPPC   C2A56562  19.996  10.806  40.583  0.2756 -0.0062  0.0805
 2906DPPC   C3A56563  20.166  11.061  40.833  0.1291 -0.3620 -0.1873
 2906DPPC   C4A56564  20.562  11.213  40.879  0.2803 -0.4922 -0.1571
 2906DPPC   C1B56565  19.495  10.928  40.367  0.0722 -0.3095  0.1256
 2906DPPC   C2B56566  19.320  10.951  40.766  0.1051 -0.1187 -0.0433
 2906DPPC   C3B56567  19.266  10.863  41.186 -0.0612  0.2562 -0.0746
 2906DPPC   C4B56568  19.587  10.519  41.479  0.1037 -0.2972  0.1156
 2907DPPC   NC356569  22.178  12.284  24.391 -0.0748 -0.2246 -0.1598
 2907DPPC   PO456570  22.218  12.512  24.060 -0.0058  0.0848  0.3606
 2907DPPC   GL156571  22.556  12.885  23.908 -0.0925 -0.0208  0.1145
 2907DPPC   GL256572  22.861  12.716  23.816  0.4079  0.1268 -0.2653
 2907DPPC   C1A56573  22.949  13.209  23.990  0.1224 -0.2000  0.1813
 2907DPPC   C2A56574  23.296  13.378  23.683  0.0269 -0.2360 -0.1133
 2907DPPC   C3A56575  23.688  13.258  23.520 -0.1008 -0.0665  0.0451
 2907DPPC   C4A56576  23.748  13.463  23.035 -0.2143 -0.3065 -0.3107
 2907DPPC   C1B56577  23.150  12.725  24.073  0.0349 -0.3663  0.0789
 2907DPPC   C2B56578  23.572  12.514  24.334  0.0377 -0.1875 -0.1392
 2907DPPC   C3B56579  23.941  12.371  24.510  0.3051 -0.1715  0.0538
 2907DPPC   C4B56580  23.977  12.321  24.945  0.0680 -0.1218 -0.1892
 2908DPPC   NC356581  16.533   1.443  36.358 -0.1747 -0.0539  0.0045
 2908DPPC   PO456582  16.742   1.078  36.152 -0.1609  0.0838 -0.1856
 2908DPPC   GL156583  16.705   1.448  35.896  0.0650  0.0249 -0.1441
 2908DPPC   GL256584  16.567   1.431  35.614  0.2820 -0.1351 -0.0958
 2908DPPC   C1A56585  16.826   1.821  35.819  0.4513 -0.3135  0.2510
 2908DPPC   C2A56586  16.859   2.229  35.695  0.0622  0.4732 -0.0846
 2908DPPC   C3A56587  17.069   2.554  35.660  0.2220 -0.1193  0.1090
 2908DPPC   C4A56588  17.249   2.992  35.542 -0.2043 -0.0952  0.0914
 2908DPPC   C1B56589  16.349   1.812  35.867  0.2760  0.2256 -0.2060
 2908DPPC   C2B56590  16.391   2.210  35.866 -0.0973  0.0480  0.0068
 2908DPPC   C3B56591  16.426   2.614  35.632 -0.0620  0.3053 -0.3866
 2908DPPC   C4B56592  16.183   2.768  35.348  0.1792  0.0764 -0.1831
 2909DPPC   NC356593  21.025  12.905  37.606 -0.5326  0.0593  0.2117
 2909DPPC   PO456594  20.982  12.790  38.003  0.0521  0.0877  0.3293
 2909DPPC   GL156595  20.988  12.809  38.377  0.2821  0.0544  0.3186
 2909DPPC   GL256596  21.310  12.991  38.408 -0.0183 -0.0406 -0.0534
 2909DPPC   C1A56597  20.883  12.972  38.732 -0.0300 -0.5126 -0.3251
 2909DPPC   C2A56598  20.933  13.272  38.962  0.1903 -0.0253 -0.0040
 2909DPPC   C3A56599  21.189  13.493  39.225  0.2006  0.5285  0.1374
 2909DPPC   C4A56600  21.447  13.681  39.508 -0.1444 -0.3778  0.0305
 2909DPPC   C1B56601  21.393  13.180  38.835  0.0633  0.2963 -0.0604
 2909DPPC   C2B56602  21.554  12.981  39.196  0.4943  0.2217 -0.0705
 2909DPPC   C3B56603  21.650  12.963  39.624  0.1750 -0.0670  0.2229
 2909DPPC   C4B56604  21.586  12.971  39.986 -0.0575 -0.3040  0.2726
 2910DPPC   NC356605  12.750  20.805  31.717  0.0049  0.0039  0.0098
 2910DPPC   PO456606  12.472  20.892  31.408  0.2438  0.0257  0.1518
 2910DPPC   GL156607  12.311  21.293  31.666 -0.1203 -0.1989 -0.0189
 2910DPPC   GL256608  12.335  21.473  31.350 -0.2555  0.2380 -0.0234
 2910DPPC   C1A56609  12.341  21.669  31.840 -0.2241  0.2848  0.4169
 2910DPPC   C2A56610  12.251  22.076  32.064  0.0701  0.0908 -0.0127
 2910DPPC   C3A56611  11.898  22.395  32.060  0.1117 -0.2189 -0.0617
 2910DPPC   C4A56612  11.905  22.801  32.142 -0.1712 -0.1426  0.0862
 2910DPPC   C1B56613  12.280  21.877  31.409  0.0413 -0.1432  0.1267
 2910DPPC   C2B56614  12.244  22.271  31.570 -0.3242  0.2185 -0.1729
 2910DPPC   C3B56615  12.308  22.491  31.805  0.0865  0.2414 -0.2319
 2910DPPC   C4B56616  12.176  22.924  31.570  0.0538 -0.1428  0.0068
 2911DPPC   NC356617  13.079   7.281  23.206 -0.0595  0.0853  0.2625
 2911DPPC   PO456618  13.072   6.992  22.904 -0.4203 -0.0526  0.1296
 2911DPPC   GL156619  12.691   6.756  22.822  0.2897  0.0625  0.1317
 2911DPPC   GL256620  12.469   6.802  23.082 -0.0505  0.0163 -0.2746
 2911DPPC   C1A56621  12.528   6.500  22.470 -0.0986  0.0567  0.3177
 2911DPPC   C2A56622  12.581   6.217  22.138 -0.1790 -0.0768 -0.1499
 2911DPPC   C3A56623  12.469   6.226  21.767  0.0577  0.2755 -0.0026
 2911DPPC   C4A56624  12.247   6.435  21.523  0.1975 -0.5679  0.1470
 2911DPPC   C1B56625  12.285   6.399  22.924  0.0040 -0.0929  0.2930
 2911DPPC   C2B56626  12.191   6.157  22.490  0.2916 -0.4730 -0.2018
 2911DPPC   C3B56627  12.091   5.838  22.168 -0.1622  0.1684 -0.1096
 2911DPPC   C4B56628  12.018   5.752  21.912 -0.1952  0.3286  0.0978
 2912DPPC   NC356629  21.335  19.234  20.156  0.0262 -0.0439  0.0511
 2912DPPC   PO456630  21.685  19.180  20.606  0.0839  0.0108  0.0752
 2912DPPC   GL156631  21.270  19.015  20.747  0.2742  0.0640 -0.0503
 2912DPPC   GL256632  21.254  18.765  20.937  0.0017  0.0919  0.3489
 2912DPPC   C1A56633  20.873  19.135  21.015 -0.0845 -0.0489  0.1152
 2912DPPC   C2A56634  20.516  19.155  21.250  0.0670  0.0529 -0.1967
 2912DPPC   C3A56635  20.497  18.937  21.632  0.3088 -0.0796  0.4332
 2912DPPC   C4A56636  20.310  18.654  21.913  0.0047 -0.1828  0.0807
 2912DPPC   C1B56637  21.112  18.372  21.067 -0.1359 -0.0491 -0.0537
 2912DPPC   C2B56638  21.037  17.945  21.288 -0.0181 -0.2335 -0.1406
 2912DPPC   C3B56639  20.626  17.872  21.511 -0.2003 -0.0332  0.6880
 2912DPPC   C4B56640  20.291  17.568  21.711 -0.5540 -0.2375  0.0250
 2913DPPC   NC356641  10.509  20.163  30.274 -0.3249  0.0482  0.0541
 2913DPPC   PO456642  10.325  20.161  30.688  0.1197 -0.3412  0.0013
 2913DPPC   GL156643  10.081  20.559  30.632 -0.0018 -0.1799 -0.1089
 2913DPPC   GL256644  10.160  20.610  30.316  0.0452 -0.0648  0.2552
 2913DPPC   C1A56645   9.799  20.806  30.833  0.1374 -0.3121 -0.1552
 2913DPPC   C2A56646   9.498  21.188  30.913 -0.1018 -0.0228 -0.0121
 2913DPPC   C3A56647   9.644  21.624  30.761 -0.0541  0.3157 -0.5944
 2913DPPC   C4A56648   9.890  21.935  30.973  0.3557  0.0627 -0.1894
 2913DPPC   C1B56649   9.884  20.873  30.152  0.0602 -0.0390 -0.1873
 2913DPPC   C2B56650   9.541  20.988  29.958 -0.0062  0.1863 -0.0121
 2913DPPC   C3B56651   9.281  21.286  29.779 -0.1449 -0.0533 -0.0721
 2913DPPC   C4B56652   8.937  21.441  29.543 -0.1361  0.1615  0.0163
 2914DPPC   NC356653  22.030   3.342  21.975  0.0130 -0.3005  0.0275
 2914DPPC   PO456654  22.455   3.322  21.822  0.0726 -0.0892  0.3519
 2914DPPC   GL156655  22.322   3.759  22.046 -0.2388  0.1766 -0.1770
 2914DPPC   GL256656  22.249   4.011  21.949 -0.2554  0.4118 -0.0737
 2914DPPC   C1A56657  22.382   3.909  22.498  0.0337 -0.2362  0.1222
 2914DPPC   C2A56658  22.137   4.286  22.742  0.0943 -0.1254 -0.2867
 2914DPPC   C3A56659  22.029   4.562  23.021 -0.2871 -0.1058 -0.0975
 2914DPPC   C4A56660  22.047   4.895  23.305  0.0195 -0.3085 -0.2557
 2914DPPC   C1B56661  21.955   4.013  22.303  0.0748  0.2982 -0.3425
 2914DPPC   C2B56662  21.625   4.215  22.565  0.0525 -0.0579  0.2787
 2914DPPC   C3B56663  21.285   4.425  22.747  0.1887  0.1288 -0.0476
 2914DPPC   C4B56664  21.219   4.871  22.720  0.0516 -0.1343  0.1965
 2915DPPC   NC356665  22.138  20.639  24.792  0.2389  0.1114  0.1773
 2915DPPC   PO456666  22.122  20.145  24.823 -0.0545  0.2071 -0.1142
 2915DPPC   GL156667  21.945  19.743  25.057  0.2734  0.1020 -0.1033
 2915DPPC   GL256668  21.844  20.057  25.251 -0.0267 -0.1093 -0.2507
 2915DPPC   C1A56669  21.863  19.447  25.236 -0.3743 -0.1704 -0.3489
 2915DPPC   C2A56670  21.506  19.067  25.347 -0.0417 -0.2802  0.1085
 2915DPPC   C3A56671  21.338  18.756  25.379 -0.0038  0.1098 -0.4685
 2915DPPC   C4A56672  20.847  18.625  25.189  0.2826 -0.2580  0.2233
 2915DPPC   C1B56673  21.445  19.704  25.223 -0.0691 -0.1286 -0.0850
 2915DPPC   C2B56674  20.999  19.477  24.994  0.1149 -0.4317 -0.0929
 2915DPPC   C3B56675  20.509  19.297  25.106 -0.1279 -0.0574  0.0094
 2915DPPC   C4B56676  20.173  19.520  25.164 -0.3267  0.4390 -0.0242
 2916DPPC   NC356677   9.230  12.412  25.919  0.0986  0.0027 -0.3467
 2916DPPC   PO456678   8.852  12.161  25.968  0.2307  0.0246 -0.0158
 2916DPPC   GL156679   8.442  12.046  26.135 -0.0391  0.1081 -0.1144
 2916DPPC   GL256680   8.412  11.729  26.015  0.1581 -0.2581 -0.0071
 2916DPPC   C1A56681   8.036  12.181  25.927 -0.2077  0.0649 -0.3270
 2916DPPC   C2A56682   7.657  12.070  25.989  0.1075  0.0279  0.0179
 2916DPPC   C3A56683   7.291  11.877  25.792  0.2677 -0.0499 -0.3108
 2916DPPC   C4A56684   7.033  11.493  25.706 -0.1089 -0.1104  0.1479
 2916DPPC   C1B56685   7.959  11.784  25.701  0.1127 -0.1902  0.1809
 2916DPPC   C2B56686   7.552  11.519  25.509 -0.1834  0.0365  0.1754
 2916DPPC   C3B56687   7.243  11.309  25.171 -0.0391  0.0945 -0.3128
 2916DPPC   C4B56688   7.177  10.970  24.843  0.0417 -0.0992  0.1484
 2917DPPC   NC356689  22.517   9.544  24.110 -0.0806 -0.0346 -0.2006
 2917DPPC   PO456690  22.812   9.489  23.701 -0.0072 -0.1691 -0.0302
 2917DPPC   GL156691  23.303   9.411  23.680  0.0033 -0.2593 -0.1771
 2917DPPC   GL256692  23.464   9.165  23.816 -0.3860 -0.1435  0.0501
 2917DPPC   C1A56693  23.709   9.668  23.559 -0.0652 -0.1775 -0.1019
 2917DPPC   C2A56694  24.127   9.621  23.650 -0.2981 -0.0961  0.1836
 2917DPPC   C3A56695  24.478   9.906  23.594  0.0134  0.1081  0.0966
 2917DPPC   C4A56696  24.905   9.744  23.532 -0.1225  0.0510 -0.0151
 2917DPPC   C1B56697  23.642   9.243  23.335 -0.0669 -0.0761 -0.0564
 2917DPPC   C2B56698  23.735   9.455  22.954  0.1087 -0.2626  0.4266
 2917DPPC   C3B56699  24.026   9.829  22.721  0.0849  0.2192 -0.0709
 2917DPPC   C4B56700  24.236  10.168  22.767  0.1872 -0.2166 -0.1609
 2918DPPC   NC356701  14.152  13.554  43.890 -0.0468  0.0028 -0.1382
 2918DPPC   PO456702  14.122  13.026  44.008 -0.1168 -0.2283  0.1450
 2918DPPC   GL156703  14.263  12.720  43.859 -0.0689 -0.0910  0.0810
 2918DPPC   GL256704  14.104  12.668  43.556 -0.1904 -0.0651  0.0467
 2918DPPC   C1A56705  14.614  12.667  43.667 -0.3890 -0.2828  0.0966
 2918DPPC   C2A56706  14.850  12.897  43.376 -0.3246  0.0410  0.2847
 2918DPPC   C3A56707  15.118  12.748  43.070 -0.0560  0.2475  0.2783
 2918DPPC   C4A56708  15.198  12.349  42.930  0.0651  0.2123  0.0426
 2918DPPC   C1B56709  14.184  12.480  43.230 -0.2222 -0.0045 -0.1057
 2918DPPC   C2B56710  14.341  12.128  43.082  0.0253  0.1165 -0.0946
 2918DPPC   C3B56711  14.647  11.996  42.858  0.0851 -0.1099 -0.3563
 2918DPPC   C4B56712  14.934  11.804  42.540  0.4162 -0.0904  0.1316
 2919DPPC   NC356713  16.803  11.407  43.912  0.1434  0.4017 -0.2591
 2919DPPC   PO456714  17.265  11.443  44.088  0.0355  0.0600  0.0401
 2919DPPC   GL156715  17.192  11.463  43.683 -0.1981 -0.1476 -0.2380
 2919DPPC   GL256716  17.282  11.253  43.621 -0.0288  0.0822 -0.1128
 2919DPPC   C1A56717  16.875  11.242  43.343 -0.3095 -0.0134 -0.1263
 2919DPPC   C2A56718  16.888  11.185  42.940 -0.0961 -0.1718  0.4050
 2919DPPC   C3A56719  16.877  11.034  42.614 -0.1656 -0.0478 -0.0104
 2919DPPC   C4A56720  16.678  10.827  42.259 -0.1942 -0.1249  0.1301
 2919DPPC   C1B56721  17.648  11.069  43.302  0.0392 -0.0627  0.1457
 2919DPPC   C2B56722  17.791  11.138  42.933 -0.1971 -0.3995  0.3392
 2919DPPC   C3B56723  17.905  11.225  42.450 -0.1630 -0.2033 -0.0354
 2919DPPC   C4B56724  18.232  11.198  42.188  0.2059 -0.0124 -0.0821
 2920DPPC   NC356725  23.156  18.225  19.228  0.0914  0.1942 -0.0667
 2920DPPC   PO456726  22.743  17.992  19.436 -0.1510 -0.1503 -0.4357
 2920DPPC   GL156727  22.337  17.711  19.724  0.0509 -0.0469 -0.1605
 2920DPPC   GL256728  22.054  17.745  19.623 -0.0106 -0.1474 -0.3054
 2920DPPC   C1A56729  22.251  17.441  20.103 -0.0892 -0.2735 -0.1049
 2920DPPC   C2A56730  22.149  17.160  20.396  0.4522  0.0011  0.1130
 2920DPPC   C3A56731  21.761  17.120  20.514 -0.1582  0.0927 -0.0736
 2920DPPC   C4A56732  21.377  16.905  20.724  0.1412  0.3401 -0.0375
 2920DPPC   C1B56733  21.985  17.291  19.685  0.0205  0.0289 -0.2628
 2920DPPC   C2B56734  22.099  16.944  19.857 -0.0600  0.3264 -0.0572
 2920DPPC   C3B56735  21.787  16.684  19.849 -0.1976 -0.0213 -0.0131
 2920DPPC   C4B56736  21.554  16.214  19.771  0.0692 -0.2996  0.0723
 2921DPPC   NC356737  15.945   4.951  25.675 -0.0947  0.0201 -0.1999
 2921DPPC   PO456738  16.100   4.841  25.308 -0.1533  0.0597  0.1427
 2921DPPC   GL156739  16.102   4.467  25.082 -0.1042 -0.2990 -0.2029
 2921DPPC   GL256740  16.438   4.449  25.109  0.0242  0.2325  0.2666
 2921DPPC   C1A56741  15.974   4.163  24.862  0.1484  0.0116  0.0084
 2921DPPC   C2A56742  15.862   3.721  24.715 -0.2814 -0.1169  0.3281
 2921DPPC   C3A56743  15.815   3.320  24.430 -0.0534  0.0430 -0.2393
 2921DPPC   C4A56744  15.648   2.987  24.180 -0.3317 -0.0119 -0.0836
 2921DPPC   C1B56745  16.411   4.066  25.074 -0.0511  0.1209  0.2719
 2921DPPC   C2B56746  16.431   3.820  24.822 -0.0508  0.3144 -0.1273
 2921DPPC   C3B56747  16.289   3.418  24.799 -0.1174  0.1410  0.0508
 2921DPPC   C4B56748  16.014   2.939  24.689 -0.0263 -0.1802 -0.1024
 2922DPPC   NC356749  10.522   6.182  27.693  0.1403 -0.0228 -0.3520
 2922DPPC   PO456750  10.841   6.021  28.027  0.3636  0.0915 -0.2524
 2922DPPC   GL156751  10.383   5.929  28.121 -0.1721 -0.2228  0.3014
 2922DPPC   GL256752  10.079   6.052  28.198 -0.0559 -0.0649 -0.2827
 2922DPPC   C1A56753  10.153   5.530  28.212  0.1916 -0.0440 -0.1290
 2922DPPC   C2A56754   9.745   5.400  28.255  0.0893  0.0777 -0.1088
 2922DPPC   C3A56755   9.529   5.218  28.563  0.1976  0.0601  0.2486
 2922DPPC   C4A56756   9.186   4.968  28.737 -0.1166  0.1201 -0.1566
 2922DPPC   C1B56757   9.821   5.797  27.868 -0.1700  0.2961  0.2368
 2922DPPC   C2B56758   9.887   5.360  27.616  0.1672  0.0428  0.1769
 2922DPPC   C3B56759   9.867   4.993  27.418 -0.1498  0.3029 -0.1430
 2922DPPC   C4B56760   9.829   5.166  26.983 -0.2445 -0.1208  0.0845
 2923DPPC   NC356761  25.932   9.856  20.141 -0.0461 -0.1695  0.2050
 2923DPPC   PO456762  25.762  10.325  20.200  0.2434  0.1253  0.3058
 2923DPPC   GL156763  25.524  10.076  20.441 -0.4049  0.0085  0.0128
 2923DPPC   GL256764  25.143  10.048  20.330 -0.0564 -0.0335  0.0110
 2923DPPC   C1A56765  25.291   9.901  20.808 -0.0792  0.0259  0.1254
 2923DPPC   C2A56766  24.840   9.875  20.992 -0.0249 -0.0479  0.0269
 2923DPPC   C3A56767  24.452   9.857  21.177  0.2096  0.3411 -0.0270
 2923DPPC   C4A56768  24.098   9.684  21.045  0.0295  0.1043  0.0180
 2923DPPC   C1B56769  25.136   9.625  20.375 -0.1211  0.1262  0.0484
 2923DPPC   C2B56770  24.841   9.161  20.323 -0.1632  0.1550  0.0306
 2923DPPC   C3B56771  24.807   8.672  20.268 -0.0561 -0.3235 -0.1987
 2923DPPC   C4B56772  24.684   8.191  20.463  0.1257 -0.1229 -0.0023
 2924DPPC   NC356773  19.777   4.766  27.992  0.1666  0.0172  0.0145
 2924DPPC   PO456774  20.154   5.115  27.895 -0.0846  0.0987 -0.2054
 2924DPPC   GL156775  20.381   4.809  27.809  0.1383 -0.2278  0.0390
 2924DPPC   GL256776  20.286   4.537  27.965 -0.0995 -0.1204 -0.1791
 2924DPPC   C1A56777  20.723   4.411  27.764  0.2571  0.2569 -0.5988
 2924DPPC   C2A56778  20.815   3.968  27.783 -0.1688 -0.0400  0.2606
 2924DPPC   C3A56779  21.063   3.640  27.597 -0.0107 -0.2814  0.2284
 2924DPPC   C4A56780  21.184   3.213  27.568  0.1452  0.1851 -0.0036
 2924DPPC   C1B56781  20.350   4.086  27.878 -0.3094  0.2869  0.0484
 2924DPPC   C2B56782  20.463   3.606  27.767  0.0708  0.0407  0.2948
 2924DPPC   C3B56783  20.619   3.171  27.569 -0.2891 -0.0057  0.1529
 2924DPPC   C4B56784  20.772   2.819  27.698  0.0768 -0.2631  0.0192
 2925DPPC   NC356785  18.690  24.504  26.679  0.0422 -0.1495 -0.0916
 2925DPPC   PO456786  18.764  24.029  26.769  0.1000 -0.0960  0.2049
 2925DPPC   GL156787  18.570  23.634  27.005  0.0041 -0.3312 -0.1593
 2925DPPC   GL256788  18.320  23.629  26.844  0.1024  0.2440  0.0463
 2925DPPC   C1A56789  18.139  23.376  27.213 -0.2047  0.1491  0.1012
 2925DPPC   C2A56790  17.826  23.364  27.370  0.0495  0.1920 -0.0855
 2925DPPC   C3A56791  17.688  22.908  27.577 -0.1474  0.0714 -0.1576
 2925DPPC   C4A56792  17.462  22.591  27.782 -0.1263  0.1830 -0.2271
 2925DPPC   C1B56793  17.952  23.397  26.718  0.0288 -0.0352 -0.6419
 2925DPPC   C2B56794  17.836  22.978  26.610 -0.0754  0.1790 -0.0869
 2925DPPC   C3B56795  17.571  22.623  26.718  0.3410 -0.1281 -0.2085
 2925DPPC   C4B56796  17.431  22.472  26.379 -0.0510  0.1390 -0.0504
 2926DPPC   NC356797  15.605   4.534  28.194 -0.1102 -0.1702  0.0546
 2926DPPC   PO456798  15.410   4.267  28.380  0.0580 -0.2461  0.0799
 2926DPPC   GL156799  15.423   3.844  28.401 -0.1601  0.2365 -0.4747
 2926DPPC   GL256800  15.716   3.674  28.554  0.0631 -0.0583 -0.0797
 2926DPPC   C1A56801  15.319   3.473  28.204  0.1999 -0.4750 -0.4115
 2926DPPC   C2A56802  15.315   2.970  28.211 -0.0205  0.3511 -0.1440
 2926DPPC   C3A56803  15.384   2.513  28.156 -0.0323  0.1883  0.0548
 2926DPPC   C4A56804  15.559   2.415  28.622 -0.1519 -0.2686  0.0178
 2926DPPC   C1B56805  15.763   3.233  28.558  0.1343  0.0204 -0.4239
 2926DPPC   C2B56806  15.843   2.865  28.688  0.1821 -0.3868  0.0939
 2926DPPC   C3B56807  16.156   2.493  28.589 -0.0581 -0.1748  0.0621
 2926DPPC   C4B56808  16.589   2.312  28.495  0.2151 -0.2840 -0.0421
 2927DPPC   NC356809  15.334   9.091  21.034 -0.0335  0.0449  0.0400
 2927DPPC   PO456810  15.383   8.845  20.611  0.1532 -0.0106  0.1438
 2927DPPC   GL156811  15.230   9.038  20.252  0.0549  0.0715  0.1938
 2927DPPC   GL256812  15.382   9.274  20.032  0.2351  0.1858  0.1239
 2927DPPC   C1A56813  15.124   8.882  19.744  0.2604 -0.1818 -0.1310
 2927DPPC   C2A56814  15.012   8.931  19.278  0.2354 -0.1635  0.1885
 2927DPPC   C3A56815  14.841   9.072  18.907  0.2032  0.2064  0.3088
 2927DPPC   C4A56816  15.009   9.173  18.472  0.2801  0.1892 -0.0104
 2927DPPC   C1B56817  15.371   9.236  19.559 -0.0057 -0.0385  0.0955
 2927DPPC   C2B56818  15.144   9.403  19.175 -0.1296 -0.1446 -0.0313
 2927DPPC   C3B56819  14.937   9.595  18.899 -0.1271  0.1452  0.0603
 2927DPPC   C4B56820  14.564   9.801  18.704 -0.0351 -0.2454  0.2529
 2928DPPC   NC356821  11.936  20.712  32.289 -0.2170 -0.0276  0.3013
 2928DPPC   PO456822  12.034  20.926  32.598 -0.2615 -0.1451  0.1196
 2928DPPC   GL156823  11.652  21.131  32.626  0.0983  0.2669 -0.0069
 2928DPPC   GL256824  11.540  21.070  32.933 -0.0031 -0.1262 -0.3121
 2928DPPC   C1A56825  11.694  21.630  32.613  0.1229  0.0941  0.2757
 2928DPPC   C2A56826  11.813  21.935  32.855  0.2149 -0.0203 -0.3089
 2928DPPC   C3A56827  12.258  22.077  33.085  0.3060 -0.4225 -0.0000
 2928DPPC   C4A56828  12.332  22.350  33.319 -0.0051 -0.3561 -0.1310
 2928DPPC   C1B56829  11.734  21.446  33.070  0.1685 -0.0184 -0.1081
 2928DPPC   C2B56830  12.117  21.608  32.981  0.3030 -0.1953  0.1353
 2928DPPC   C3B56831  12.294  21.811  32.663  0.1176  0.0787 -0.5322
 2928DPPC   C4B56832  12.417  22.206  32.485 -0.3434 -0.0931  0.0591
 2929DPPC   NC356833  17.918   0.048  30.065  0.0640  0.0967  0.0544
 2929DPPC   PO456834  17.456   0.014  30.216  0.1049  0.1262  0.0795
 2929DPPC   GL156835  17.530   0.368  30.453 -0.1613  0.1152  0.1614
 2929DPPC   GL256836  17.651   0.583  30.445 -0.0825 -0.3633  0.0121
 2929DPPC   C1A56837  17.195   0.706  30.607 -0.2625 -0.3263  0.1467
 2929DPPC   C2A56838  16.979   1.141  30.667  0.3112 -0.1746  0.0768
 2929DPPC   C3A56839  16.936   1.649  30.555 -0.1037 -0.0381  0.1081
 2929DPPC   C4A56840  17.151   2.024  30.595 -0.0257 -0.1436  0.1693
 2929DPPC   C1B56841  17.601   1.016  30.394 -0.2500  0.1373  0.1589
 2929DPPC   C2B56842  17.717   1.428  30.081  0.1370  0.1669 -0.2260
 2929DPPC   C3B56843  17.687   1.844  30.228  0.1434  0.3225 -0.1522
 2929DPPC   C4B56844  17.549   2.190  30.286  0.4903  0.1508 -0.4721
 2930DPPC   NC356845  19.273  19.214  41.220  0.0615 -0.2940 -0.0448
 2930DPPC   PO456846  19.695  19.078  41.260  0.3032  0.1686 -0.0014
 2930DPPC   GL156847  19.618  18.881  40.952  0.1297 -0.0406 -0.0859
 2930DPPC   GL256848  19.395  18.985  40.680 -0.3353 -0.0264 -0.1541
 2930DPPC   C1A56849  19.453  18.534  40.821  0.0070  0.0018 -0.0899
 2930DPPC   C2A56850  19.511  18.068  40.769 -0.1250  0.0153 -0.1829
 2930DPPC   C3A56851  19.828  17.722  40.802 -0.2634 -0.0905 -0.2398
 2930DPPC   C4A56852  19.548  17.399  40.716  0.1392 -0.2670  0.0450
 2930DPPC   C1B56853  19.376  18.711  40.343  0.4094 -0.0586  0.3238
 2930DPPC   C2B56854  19.410  18.270  40.262 -0.0404  0.1188 -0.3209
 2930DPPC   C3B56855  19.449  17.869  40.346 -0.0380  0.5358  0.1974
 2930DPPC   C4B56856  19.227  17.536  40.247  0.1517 -0.1057 -0.2492
 2931DPPC   NC356857   9.325  19.422  29.006 -0.0343 -0.3272 -0.2046
 2931DPPC   PO456858   9.304  19.151  29.359  0.4244 -0.0191 -0.2531
 2931DPPC   GL156859   8.871  19.361  29.172 -0.1162  0.0878 -0.1418
 2931DPPC   GL256860   8.888  19.478  29.469 -0.1956  0.0604 -0.1454
 2931DPPC   C1A56861   8.467  19.593  29.139 -0.1182  0.2869  0.1858
 2931DPPC   C2A56862   8.081  19.748  29.000 -0.0174 -0.0486  0.2945
 2931DPPC   C3A56863   7.638  19.961  29.120  0.1520  0.2423  0.0357
 2931DPPC   C4A56864   7.493  19.867  29.620  0.5490 -0.2584  0.2451
 2931DPPC   C1B56865   8.757  19.888  29.354 -0.0753 -0.5052 -0.1820
 2931DPPC   C2B56866   8.524  20.193  29.489  0.1965 -0.0502  0.0788
 2931DPPC   C3B56867   8.362  20.187  29.868 -0.0172 -0.0090  0.0796
 2931DPPC   C4B56868   8.120  20.400  30.154  0.0952 -0.0653 -0.3412
 2932DPPC   NC356869  22.500   7.435  31.839 -0.3051  0.0723 -0.1319
 2932DPPC   PO456870  22.607   7.704  32.218  0.1720 -0.2236  0.0388
 2932DPPC   GL156871  22.985   7.554  31.902  0.1579 -0.2828  0.0530
 2932DPPC   GL256872  22.970   7.240  31.758 -0.0763 -0.0151 -0.1437
 2932DPPC   C1A56873  23.218   7.342  32.152 -0.3034 -0.2598  0.2064
 2932DPPC   C2A56874  23.490   7.019  32.025 -0.2428  0.0535  0.3865
 2932DPPC   C3A56875  23.933   6.964  31.976  0.0404  0.2637  0.0825
 2932DPPC   C4A56876  24.469   6.908  32.058  0.2303 -0.2293  0.0100
 2932DPPC   C1B56877  23.372   7.315  31.595  0.1597 -0.0131 -0.0843
 2932DPPC   C2B56878  23.724   7.164  31.534  0.1752  0.1962 -0.1337
 2932DPPC   C3B56879  24.110   6.891  31.507 -0.1122  0.0729 -0.2412
 2932DPPC   C4B56880  24.251   6.380  31.343 -0.1245  0.0664  0.3148
 2933DPPC   NC356881   8.536  24.253  29.672  0.0603 -0.0109 -0.0286
 2933DPPC   PO456882   8.499  23.907  30.035 -0.1051 -0.0026  0.0240
 2933DPPC   GL156883   8.683  23.668  30.243  0.1671 -0.2133  0.0955
 2933DPPC   GL256884   9.018  23.589  30.281 -0.1700  0.3278  0.0675
 2933DPPC   C1A56885   8.582  23.190  30.251 -0.0470  0.1103 -0.0059
 2933DPPC   C2A56886   8.638  22.911  29.815 -0.2437  0.2427 -0.0814
 2933DPPC   C3A56887   8.962  22.968  29.410  0.0274  0.2058 -0.2097
 2933DPPC   C4A56888   9.231  22.869  29.020  0.1026 -0.2356  0.0980
 2933DPPC   C1B56889   9.062  23.152  30.275  0.1269 -0.2581  0.3093
 2933DPPC   C2B56890   9.131  22.854  30.015  0.2445  0.4684 -0.0165
 2933DPPC   C3B56891   9.360  22.719  29.673 -0.0290  0.1000  0.2273
 2933DPPC   C4B56892   9.677  22.391  29.562  0.0042 -0.0154 -0.4864
 2934DPPC   NC356893  14.578  11.316  20.237 -0.1375  0.0053  0.0749
 2934DPPC   PO456894  14.456  11.810  20.339 -0.2962  0.0062 -0.0107
 2934DPPC   GL156895  14.174  11.693  19.991  0.5104 -0.1359 -0.1700
 2934DPPC   GL256896  14.243  11.411  19.834 -0.2886 -0.2996 -0.2612
 2934DPPC   C1A56897  13.815  11.860  19.781 -0.2410  0.1049 -0.1899
 2934DPPC   C2A56898  13.851  12.144  19.489  0.1504 -0.0828  0.0241
 2934DPPC   C3A56899  13.627  12.182  19.085  0.0662  0.0321  0.0091
 2934DPPC   C4A56900  13.460  11.916  18.753 -0.1677  0.0547  0.0603
 2934DPPC   C1B56901  14.006  11.348  19.462 -0.0276 -0.2191 -0.1063
 2934DPPC   C2B56902  13.770  10.955  19.133 -0.0466 -0.2114 -0.2005
 2934DPPC   C3B56903  13.766  10.764  18.796  0.2004  0.0305 -0.0157
 2934DPPC   C4B56904  13.972  10.705  18.427 -0.0077  0.0543  0.1641
 2935DPPC   NC356905  13.516  24.602  35.002  0.0011  0.1651 -0.2053
 2935DPPC   PO456906  13.166  24.710  34.665  0.3517  0.2221  0.1958
 2935DPPC   GL156907  12.948  24.419  34.386 -0.0086 -0.2124 -0.1815
 2935DPPC   GL256908  13.121  24.125  34.092 -0.1972 -0.3633  0.0259
 2935DPPC   C1A56909  12.649  24.020  34.221 -0.2434  0.1069  0.0258
 2935DPPC   C2A56910  12.443  23.664  34.107 -0.1100 -0.2563  0.0060
 2935DPPC   C3A56911  12.447  23.243  34.276  0.0290  0.0487  0.2799
 2935DPPC   C4A56912  12.707  22.945  34.388  0.1408  0.0099 -0.2302
 2935DPPC   C1B56913  12.959  23.689  34.020 -0.3814  0.0369 -0.0505
 2935DPPC   C2B56914  12.929  23.208  33.976  0.1628  0.0391  0.0252
 2935DPPC   C3B56915  12.786  22.863  33.869  0.1406  0.4054  0.1053
 2935DPPC   C4B56916  12.907  22.522  34.146 -0.0787  0.1715  0.3193
 2936DPPC   NC356917  13.719   5.427  34.544 -0.1395  0.2458 -0.2780
 2936DPPC   PO456918  13.358   5.335  34.096  0.1801  0.0917  0.2394
 2936DPPC   GL156919  13.298   4.983  34.402  0.0257 -0.1115  0.2179
 2936DPPC   GL256920  13.282   4.740  34.111  0.4308 -0.2409  0.1156
 2936DPPC   C1A56921  13.430   4.751  34.722 -0.0586 -0.4860 -0.1452
 2936DPPC   C2A56922  13.338   4.293  34.798 -0.0389  0.2474 -0.0014
 2936DPPC   C3A56923  13.525   3.944  35.120  0.0332 -0.2133  0.2534
 2936DPPC   C4A56924  13.991   3.869  35.350  0.2522 -0.2139 -0.0586
 2936DPPC   C1B56925  12.934   4.465  34.123 -0.1984  0.3943  0.0714
 2936DPPC   C2B56926  12.695   4.104  34.061  0.2575  0.0010 -0.0498
 2936DPPC   C3B56927  12.698   3.783  33.700  0.2555 -0.1494 -0.0057
 2936DPPC   C4B56928  12.283   3.606  33.663 -0.0417  0.2085  0.0181
 2937DPPC   NC356929   8.447   9.513  30.755  0.0633  0.1776  0.1569
 2937DPPC   PO456930   8.044   9.430  30.728 -0.1505  0.3276 -0.2174
 2937DPPC   GL156931   7.850   9.200  30.956 -0.3185  0.1164 -0.0925
 2937DPPC   GL256932   7.622   9.391  30.936  0.1182  0.2576  0.0977
 2937DPPC   C1A56933   7.607   8.861  31.139 -0.0517 -0.0189 -0.1305
 2937DPPC   C2A56934   7.569   8.503  31.286  0.0869 -0.0323 -0.2385
 2937DPPC   C3A56935   7.254   8.238  31.545  0.1420  0.2946  0.1333
 2937DPPC   C4A56936   6.818   8.175  31.607  0.2283  0.2896  0.1263
 2937DPPC   C1B56937   7.156   9.327  30.778 -0.0636  0.0308 -0.2577
 2937DPPC   C2B56938   6.825   9.215  30.753 -0.1092 -0.2092 -0.2756
 2937DPPC   C3B56939   6.740   8.849  30.529 -0.3725  0.0932  0.0577
 2937DPPC   C4B56940   6.474   8.722  30.138 -0.0388  0.1703 -0.3166
 2938DPPC   NC356941  19.366  16.341  36.973  0.2660  0.4335  0.3445
 2938DPPC   PO456942  19.664  16.666  37.058  0.1444 -0.1557  0.0722
 2938DPPC   GL156943  20.011  17.012  37.121  0.1194 -0.2533  0.0807
 2938DPPC   GL256944  20.337  16.976  37.199 -0.1275  0.0127  0.2057
 2938DPPC   C1A56945  20.156  17.394  36.999 -0.0144  0.0670 -0.1195
 2938DPPC   C2A56946  20.215  17.837  37.164  0.0590 -0.0227 -0.0361
 2938DPPC   C3A56947  20.123  18.220  37.428  0.0608 -0.0328  0.3175
 2938DPPC   C4A56948  20.124  18.645  37.429 -0.1662 -0.2780  0.2075
 2938DPPC   C1B56949  20.258  17.403  37.511 -0.3070  0.0879 -0.1973
 2938DPPC   C2B56950  20.338  17.742  37.787  0.3457  0.0319 -0.2545
 2938DPPC   C3B56951  20.343  17.908  38.180  0.0656 -0.5243 -0.1900
 2938DPPC   C4B56952  20.452  18.363  38.305  0.2735  0.4363 -0.0685
 2939DPPC   NC356953  14.840   2.396  37.956  0.2790 -0.3529 -0.0181
 2939DPPC   PO456954  14.399   2.510  37.907  0.1133  0.2772 -0.0307
 2939DPPC   GL156955  14.284   2.858  38.038 -0.0734  0.0552 -0.1398
 2939DPPC   GL256956  14.118   2.959  38.073  0.0253 -0.0587 -0.2524
 2939DPPC   C1A56957  14.346   3.234  37.711 -0.0832 -0.2083  0.3557
 2939DPPC   C2A56958  14.377   3.355  37.330 -0.2105 -0.1205  0.0013
 2939DPPC   C3A56959  14.623   3.750  37.105  0.0919 -0.2128 -0.2676
 2939DPPC   C4A56960  14.873   4.056  37.298 -0.0808 -0.1122 -0.0995
 2939DPPC   C1B56961  14.156   3.464  38.066 -0.0252 -0.2446  0.1969
 2939DPPC   C2B56962  14.453   3.741  38.022  0.0918  0.0175 -0.1317
 2939DPPC   C3B56963  14.696   4.156  37.921 -0.2018  0.0334 -0.1085
 2939DPPC   C4B56964  14.612   4.464  37.684 -0.1857 -0.2152  0.3151
 2940DPPC   NC356965  16.270  23.508  21.749 -0.2249 -0.2918 -0.2164
 2940DPPC   PO456966  16.708  23.460  21.493  0.0094 -0.1683  0.1280
 2940DPPC   GL156967  16.673  23.184  21.813 -0.5142  0.0458  0.1434
 2940DPPC   GL256968  16.924  23.000  21.843 -0.1162 -0.2976  0.2043
 2940DPPC   C1A56969  16.314  22.862  21.824  0.2583  0.1531 -0.2180
 2940DPPC   C2A56970  16.071  22.552  21.746 -0.0086 -0.0693 -0.3007
 2940DPPC   C3A56971  15.903  22.401  21.587  0.0206 -0.1578 -0.0532
 2940DPPC   C4A56972  15.453  22.482  21.366  0.0421  0.1725 -0.0478
 2940DPPC   C1B56973  16.787  22.580  21.739  0.2005  0.2930  0.2593
 2940DPPC   C2B56974  16.833  22.168  21.828  0.1794  0.1536  0.2004
 2940DPPC   C3B56975  16.598  21.736  22.033  0.1757 -0.2372  0.1437
 2940DPPC   C4B56976  16.219  21.755  22.130 -0.0843 -0.0659 -0.3492
 2941DPPC   NC356977  16.459  10.135  19.457  0.1629 -0.0257 -0.0718
 2941DPPC   PO456978  16.212  10.437  19.268  0.1145 -0.0551  0.2104
 2941DPPC   GL156979  16.390  10.654  19.014  0.3007  0.0103 -0.1874
 2941DPPC   GL256980  16.591  10.441  18.692 -0.3059  0.2257 -0.0843
 2941DPPC   C1A56981  16.256  10.842  18.663  0.0827 -0.1096  0.1443
 2941DPPC   C2A56982  15.967  10.812  18.324 -0.3060  0.1848  0.1162
 2941DPPC   C3A56983  15.712  11.078  17.946  0.2169 -0.2137  0.1463
 2941DPPC   C4A56984  15.653  11.234  17.531 -0.0370  0.1044  0.0127
 2941DPPC   C1B56985  16.658  10.354  18.255 -0.2770 -0.1678 -0.1056
 2941DPPC   C2B56986  16.363  10.051  17.979  0.4061 -0.3645 -0.4029
 2941DPPC   C3B56987  16.344   9.821  17.662  0.3587  0.1117  0.1299
 2941DPPC   C4B56988  16.760   9.743  17.508 -0.0462 -0.0914 -0.2017
 2942DPPC   NC356989  16.771  13.270  43.778  0.1543  0.1380  0.1069
 2942DPPC   PO456990  16.782  12.917  43.924 -0.1334 -0.2531 -0.2266
 2942DPPC   GL156991  16.562  12.852  43.584 -0.0800  0.4568 -0.4087
 2942DPPC   GL256992  16.708  13.046  43.362  0.0980  0.0624  0.0793
 2942DPPC   C1A56993  16.354  12.662  43.247 -0.2012  0.2939  0.0798
 2942DPPC   C2A56994  15.976  12.553  42.987  0.0189 -0.3056 -0.3153
 2942DPPC   C3A56995  15.624  12.367  42.688 -0.0371  0.1744  0.0056
 2942DPPC   C4A56996  15.316  12.498  42.474 -0.2007  0.1598 -0.0823
 2942DPPC   C1B56997  16.898  12.634  43.200  0.1528  0.0474 -0.0194
 2942DPPC   C2B56998  17.139  12.607  42.765  0.0171 -0.2691 -0.1052
 2942DPPC   C3B56999  17.347  12.491  42.378  0.1228  0.1700  0.0608
 2942DPPC   C4B57000  17.329  12.747  41.816  0.1755  0.0661  0.3066
 2943DPPC   NC357001   9.714   9.214  18.701  0.0362  0.3852  0.2300
 2943DPPC   PO457002   9.726   8.799  18.805 -0.1876  0.3681 -0.1306
 2943DPPC   GL157003  10.010   8.784  19.166 -0.1048  0.1003  0.3604
 2943DPPC   GL257004  10.443   8.806  19.068 -0.2537 -0.4339 -0.1102
 2943DPPC   C1A57005  10.228   8.503  19.471 -0.0890  0.1745 -0.1161
 2943DPPC   C2A57006  10.419   8.333  19.819 -0.0233  0.0290 -0.0405
 2943DPPC   C3A57007  10.611   8.241  20.210  0.1550 -0.0100 -0.0470
 2943DPPC   C4A57008  10.788   8.403  20.601  0.0943  0.2500 -0.0063
 2943DPPC   C1B57009  10.803   8.647  19.374  0.0325 -0.1313  0.1183
 2943DPPC   C2B57010  11.036   8.421  19.669  0.1232 -0.1261  0.0111
 2943DPPC   C3B57011  11.347   8.420  19.837 -0.0451  0.0918  0.0466
 2943DPPC   C4B57012  11.583   8.426  20.214  0.4383 -0.2590 -0.0600
 2944DPPC   NC357013  15.528  26.932  28.348  0.0044 -0.1481  0.0961
 2944DPPC   PO457014  15.465   0.105  28.728 -0.1260 -0.1383  0.2566
 2944DPPC   GL157015  15.534   0.443  28.516 -0.0973  0.1441 -0.0572
 2944DPPC   GL257016  15.841   0.482  28.634  0.1989 -0.2870  0.1491
 2944DPPC   C1A57017  15.328   0.764  28.483  0.0126  0.0808 -0.0520
 2944DPPC   C2A57018  15.515   1.156  28.403  0.1062 -0.3417 -0.0639
 2944DPPC   C3A57019  15.843   1.473  28.502  0.0199 -0.0460  0.1189
 2944DPPC   C4A57020  16.191   1.887  28.610 -0.2146 -0.2314  0.1192
 2944DPPC   C1B57021  15.881   0.895  28.639  0.3605  0.0570 -0.0861
 2944DPPC   C2B57022  15.450   1.103  28.871  0.2251 -0.1339  0.0390
 2944DPPC   C3B57023  14.953   1.321  28.907  0.0149 -0.0835 -0.3255
 2944DPPC   C4B57024  14.669   1.212  28.650 -0.0404 -0.4829  0.1303
 2945DPPC   NC357025  22.523  10.514  23.502  0.1409 -0.1965  0.4095
 2945DPPC   PO457026  22.968  10.414  23.557  0.0321  0.1280  0.2263
 2945DPPC   GL157027  23.342  10.307  23.754 -0.2777  0.1806 -0.1745
 2945DPPC   GL257028  23.528  10.445  23.925 -0.1081  0.0147 -0.2362
 2945DPPC   C1A57029  23.732  10.288  23.499 -0.0746  0.1564  0.2882
 2945DPPC   C2A57030  24.061  10.420  23.322 -0.3677  0.2514  0.1075
 2945DPPC   C3A57031  24.505  10.470  23.277 -0.0959  0.1670  0.2180
 2945DPPC   C4A57032  24.798  10.724  23.256 -0.0140 -0.0891  0.0983
 2945DPPC   C1B57033  23.845  10.486  24.237  0.2850 -0.1544 -0.1838
 2945DPPC   C2B57034  24.049  10.662  24.569  0.0367  0.1419 -0.0729
 2945DPPC   C3B57035  24.421  10.755  24.670 -0.2834 -0.4227  0.0975
 2945DPPC   C4B57036  24.828  10.929  24.712  0.2556 -0.1251  0.1992
 2946DPPC   NC357037  23.615  12.310  32.698  0.0070 -0.0684 -0.0686
 2946DPPC   PO457038  23.676  12.461  32.171  0.1028 -0.0279  0.1434
 2946DPPC   GL157039  24.077  12.542  31.990  0.0145 -0.0234 -0.2757
 2946DPPC   GL257040  24.278  12.245  32.097  0.0272 -0.1013 -0.0105
 2946DPPC   C1A57041  24.442  12.769  31.745 -0.0552  0.2301 -0.0198
 2946DPPC   C2A57042  24.945  12.865  31.623  0.0146 -0.2436  0.2810
 2946DPPC   C3A57043  25.319  12.913  31.794 -0.0555  0.1509  0.2205
 2946DPPC   C4A57044  25.603  13.204  32.046 -0.2370  0.0472  0.1152
 2946DPPC   C1B57045  24.576  12.483  32.193  0.0107 -0.1461  0.1542
 2946DPPC   C2B57046  25.056  12.536  32.317 -0.0735 -0.4167 -0.2347
 2946DPPC   C3B57047  25.393  12.839  32.348 -0.1532  0.0518  0.0235
 2946DPPC   C4B57048  25.588  13.157  32.587 -0.1170  0.0366  0.0074
 2947DPPC   NC357049   5.264  20.007  32.843 -0.2045  0.2506  0.0414
 2947DPPC   PO457050   4.771  20.112  32.637 -0.1296 -0.2491  0.4013
 2947DPPC   GL157051   4.991  19.855  32.398  0.0395 -0.2952  0.1674
 2947DPPC   GL257052   4.975  20.010  32.089  0.0202  0.1191  0.4884
 2947DPPC   C1A57053   5.329  19.531  32.386  0.0824  0.0791  0.1557
 2947DPPC   C2A57054   5.572  19.346  31.953 -0.2641  0.2554 -0.2492
 2947DPPC   C3A57055   5.833  19.011  31.861  0.0082 -0.0891 -0.1118
 2947DPPC   C4A57056   6.127  18.718  31.675 -0.0239  0.1648 -0.1480
 2947DPPC   C1B57057   5.461  20.033  32.146 -0.5067  0.1218  0.2920
 2947DPPC   C2B57058   5.862  19.754  32.073 -0.0395  0.1400  0.1104
 2947DPPC   C3B57059   6.082  19.386  32.049  0.2227  0.0699  0.0049
 2947DPPC   C4B57060   6.415  19.215  32.115  0.3432  0.0034  0.0430
 2948DPPC   NC357061   9.375  19.328  39.615  0.1957 -0.2803 -0.4120
 2948DPPC   PO457062   8.894  19.210  39.540 -0.1495  0.0138  0.0718
 2948DPPC   GL157063   9.162  18.838  39.464  0.3088  0.1667 -0.1406
 2948DPPC   GL257064   9.053  18.557  39.496 -0.1099 -0.3131  0.1286
 2948DPPC   C1A57065   9.376  18.637  39.140  0.0481  0.2009  0.0302
 2948DPPC   C2A57066   9.603  18.207  38.995  0.1960 -0.1028  0.3188
 2948DPPC   C3A57067   9.890  17.969  38.841  0.0444 -0.1921  0.3140
 2948DPPC   C4A57068  10.240  17.994  38.647 -0.1816  0.1635 -0.1157
 2948DPPC   C1B57069   8.764  18.223  39.304 -0.0216 -0.2375 -0.1936
 2948DPPC   C2B57070   8.600  17.831  39.334 -0.2073 -0.0674  0.0145
 2948DPPC   C3B57071   8.903  17.491  39.505  0.1897  0.1333 -0.5676
 2948DPPC   C4B57072   9.138  17.036  39.643  0.1489 -0.0106 -0.0171
 2949DPPC   NC357073  18.589  13.180  27.634  0.2496  0.3277 -0.2707
 2949DPPC   PO457074  18.704  12.782  27.515 -0.0223  0.0997  0.0522
 2949DPPC   GL157075  18.500  12.904  27.193  0.1528  0.1210 -0.0207
 2949DPPC   GL257076  18.210  12.766  27.232 -0.0178  0.0761 -0.0541
 2949DPPC   C1A57077  18.459  13.031  26.801 -0.1180  0.1824 -0.0107
 2949DPPC   C2A57078  18.286  12.887  26.438  0.3668  0.2479  0.2351
 2949DPPC   C3A57079  18.345  12.730  25.988  0.1009  0.0416  0.2711
 2949DPPC   C4A57080  18.140  12.341  25.858  0.0715  0.1760 -0.1447
 2949DPPC   C1B57081  17.944  12.809  26.824  0.2520  0.0673  0.0595
 2949DPPC   C2B57082  17.606  12.614  26.593  0.2020 -0.3784 -0.0787
 2949DPPC   C3B57083  17.398  12.532  26.157 -0.0656  0.0234 -0.0537
 2949DPPC   C4B57084  17.563  12.255  25.869 -0.1112  0.1205  0.0574
 2950DPPC   NC357085  15.437  17.263  38.859 -0.3348 -0.2443  0.0003
 2950DPPC   PO457086  15.723  17.047  38.588 -0.2931 -0.1030 -0.2225
 2950DPPC   GL157087  15.925  17.145  38.927  0.0217  0.2779 -0.1008
 2950DPPC   GL257088  15.804  17.145  39.193  0.3133  0.1966 -0.0358
 2950DPPC   C1A57089  16.280  17.241  39.196  0.0648  0.4925  0.1536
 2950DPPC   C2A57090  16.363  17.403  39.578 -0.3666 -0.0994 -0.0839
 2950DPPC   C3A57091  16.274  17.356  39.922 -0.0404  0.3477 -0.0516
 2950DPPC   C4A57092  16.084  17.478  40.313  0.1502 -0.0584 -0.3894
 2950DPPC   C1B57093  15.982  17.061  39.630 -0.1459  0.0249 -0.1255
 2950DPPC   C2B57094  15.814  17.063  40.089  0.1333 -0.1336  0.2922
 2950DPPC   C3B57095  15.753  17.061  40.517  0.1845  0.2500  0.1833
 2950DPPC   C4B57096  15.738  16.790  40.811  0.1059 -0.1534 -0.1219
 2951DPPC   NC357097  11.476  17.920  41.732  0.3810  0.1459 -0.1172
 2951DPPC   PO457098  11.281  17.537  41.887 -0.1207  0.3586  0.0541
 2951DPPC   GL157099  11.282  17.363  41.509  0.0880 -0.3657  0.0576
 2951DPPC   GL257100  11.657  17.424  41.493  0.1474 -0.0778 -0.3049
 2951DPPC   C1A57101  11.275  17.438  41.103 -0.2755 -0.1019 -0.0452
 2951DPPC   C2A57102  11.514  17.791  40.906  0.3160 -0.1324  0.0512
 2951DPPC   C3A57103  11.429  17.910  40.456 -0.4037  0.0027  0.1766
 2951DPPC   C4A57104  11.358  18.114  40.085  0.4554  0.2955 -0.0515
 2951DPPC   C1B57105  11.751  17.298  41.128 -0.2329 -0.1100  0.0158
 2951DPPC   C2B57106  11.610  16.952  40.850  0.1154 -0.3306 -0.2320
 2951DPPC   C3B57107  11.965  16.788  40.651  0.0925 -0.0828 -0.1928
 2951DPPC   C4B57108  12.042  16.566  40.323 -0.3189 -0.3712 -0.0382
 2952DPPC   NC357109  25.212  15.222  22.378  0.3958 -0.0935 -0.3076
 2952DPPC   PO457110  24.810  15.200  22.358 -0.1500 -0.1606 -0.0827
 2952DPPC   GL157111  24.374  15.166  22.525 -0.0811 -0.0169  0.0876
 2952DPPC   GL257112  24.105  15.302  22.823 -0.2690 -0.1233  0.0356
 2952DPPC   C1A57113  24.181  14.879  22.323  0.1463  0.2714 -0.1630
 2952DPPC   C2A57114  24.125  14.489  22.119 -0.0962 -0.0164 -0.2792
 2952DPPC   C3A57115  23.808  14.325  21.830  0.0417 -0.0775  0.0385
 2952DPPC   C4A57116  23.682  13.942  21.725 -0.3876 -0.2420 -0.1316
 2952DPPC   C1B57117  23.796  15.155  22.452 -0.1107 -0.0965  0.1073
 2952DPPC   C2B57118  23.701  14.765  22.412  0.2092  0.0253 -0.0505
 2952DPPC   C3B57119  23.756  14.313  22.320 -0.0976 -0.1008  0.1704
 2952DPPC   C4B57120  23.798  13.799  22.280 -0.1087 -0.2342  0.0031
 2953DPPC   NC357121  20.072   2.892  20.965  0.1366  0.0414 -0.1155
 2953DPPC   PO457122  20.500   2.978  21.073  0.0158 -0.1081  0.1816
 2953DPPC   GL157123  20.274   3.249  21.355 -0.0050  0.2407  0.2250
 2953DPPC   GL257124  20.346   3.576  21.230 -0.1721  0.1440  0.0402
 2953DPPC   C1A57125  19.948   3.494  21.470 -0.0703 -0.0278  0.0459
 2953DPPC   C2A57126  19.524   3.293  21.651  0.0772  0.0107  0.0867
 2953DPPC   C3A57127  19.145   3.272  21.984 -0.1902  0.1964  0.0077
 2953DPPC   C4A57128  19.210   3.411  22.432 -0.1546  0.1962 -0.2552
 2953DPPC   C1B57129  20.262   3.890  21.498  0.1372 -0.4194  0.2976
 2953DPPC   C2B57130  20.145   4.144  21.933 -0.1098  0.0620  0.0574
 2953DPPC   C3B57131  19.814   4.330  21.946 -0.0064 -0.1613  0.5140
 2953DPPC   C4B57132  19.511   4.328  21.636  0.1112  0.1546  0.0879
 2954DPPC   NC357133  19.201  18.048  35.761  0.1346 -0.0042 -0.1539
 2954DPPC   PO457134  19.059  18.445  35.868 -0.0688 -0.0029 -0.2831
 2954DPPC   GL157135  19.288  18.583  36.224 -0.1734 -0.3436  0.1723
 2954DPPC   GL257136  19.496  18.711  35.825 -0.0126  0.1257 -0.3621
 2954DPPC   C1A57137  19.465  19.029  36.338  0.2200  0.2043  0.1476
 2954DPPC   C2A57138  19.527  19.343  36.618 -0.2176 -0.0037  0.1796
 2954DPPC   C3A57139  19.744  19.222  36.941  0.0152 -0.1748  0.2070
 2954DPPC   C4A57140  19.867  19.088  37.434  0.0180  0.2618  0.2535
 2954DPPC   C1B57141  19.821  18.878  35.988  0.0890  0.1860  0.0453
 2954DPPC   C2B57142  20.272  18.811  36.145  0.2618  0.2076  0.1740
 2954DPPC   C3B57143  20.753  18.869  36.028 -0.0583  0.1094  0.1827
 2954DPPC   C4B57144  21.238  19.017  35.803  0.1560  0.2659  0.0335
 2955DPPC   NC357145  18.464  19.435  34.393  0.0459 -0.1360 -0.1113
 2955DPPC   PO457146  18.852  19.232  34.402  0.2124  0.2647  0.0469
 2955DPPC   GL157147  18.779  19.478  34.809  0.1773  0.1471 -0.1620
 2955DPPC   GL257148  18.933  19.650  34.627 -0.4345  0.0436  0.2345
 2955DPPC   C1A57149  19.184  19.501  35.052  0.0200  0.2338 -0.1065
 2955DPPC   C2A57150  19.460  19.837  35.150 -0.1993 -0.0338 -0.1970
 2955DPPC   C3A57151  20.063  19.804  35.079  0.0122 -0.0257  0.0735
 2955DPPC   C4A57152  20.400  19.953  35.103  0.2861  0.0987 -0.0933
 2955DPPC   C1B57153  19.248  19.960  34.720  0.0269 -0.0092 -0.1231
 2955DPPC   C2B57154  19.273  20.330  34.924 -0.0008  0.3323  0.1532
 2955DPPC   C3B57155  19.313  20.504  35.291 -0.0537 -0.1217 -0.1714
 2955DPPC   C4B57156  19.599  20.553  35.568 -0.1214 -0.0826 -0.3358
 2956DPPC   NC357157  12.246   9.134  37.459  0.3703  0.1593  0.1690
 2956DPPC   PO457158  11.860   8.867  37.278 -0.1841  0.2628  0.1387
 2956DPPC   GL157159  11.844   8.635  37.703  0.1010  0.0560 -0.0113
 2956DPPC   GL257160  12.067   8.714  37.966  0.0236  0.3250 -0.0498
 2956DPPC   C1A57161  11.540   8.280  37.775 -0.0324  0.0117 -0.0434
 2956DPPC   C2A57162  11.151   8.142  37.967 -0.0772  0.0277 -0.2125
 2956DPPC   C3A57163  10.927   7.981  38.337 -0.1644 -0.0013  0.0810
 2956DPPC   C4A57164  10.550   8.035  38.636 -0.1333 -0.0757  0.1314
 2956DPPC   C1B57165  11.913   8.492  38.388 -0.1803  0.2696 -0.2849
 2956DPPC   C2B57166  11.394   8.359  38.370 -0.0827 -0.2439  0.0688
 2956DPPC   C3B57167  10.983   8.598  38.536  0.2330  0.4612 -0.4876
 2956DPPC   C4B57168  10.582   8.512  38.508 -0.0117 -0.1175 -0.2070
 2957DPPC   NC357169  21.628   1.390  33.088 -0.0445  0.2177  0.1987
 2957DPPC   PO457170  21.402   1.193  32.734 -0.1590  0.1085  0.0187
 2957DPPC   GL157171  21.382   1.671  32.782  0.0978 -0.2127  0.1006
 2957DPPC   GL257172  21.577   1.949  32.608 -0.2517  0.4785 -0.1584
 2957DPPC   C1A57173  21.023   1.981  32.895  0.0289 -0.1103  0.1469
 2957DPPC   C2A57174  20.767   1.938  33.254  0.0564  0.1655  0.2583
 2957DPPC   C3A57175  20.517   2.339  33.369  0.1315  0.3746 -0.0512
 2957DPPC   C4A57176  20.338   2.621  33.721  0.1640  0.1987  0.0789
 2957DPPC   C1B57177  21.392   2.307  32.581  0.0981  0.0350 -0.2517
 2957DPPC   C2B57178  21.370   2.766  32.676 -0.0258  0.2978 -0.0929
 2957DPPC   C3B57179  21.096   3.030  32.395  0.1511  0.0307  0.0741
 2957DPPC   C4B57180  20.701   3.055  32.226  0.3845 -0.0255 -0.0061
 2958DPPC   NC357181  19.298  13.423  39.032  0.0023 -0.2145 -0.0484
 2958DPPC   PO457182  19.414  12.988  39.157 -0.3722 -0.1976  0.0929
 2958DPPC   GL157183  19.535  13.118  39.410 -0.2069  0.1027  0.0137
 2958DPPC   GL257184  19.562  13.394  39.440 -0.1240 -0.0132 -0.1655
 2958DPPC   C1A57185  19.514  13.326  39.908 -0.1116 -0.1075  0.0290
 2958DPPC   C2A57186  19.576  13.583  40.155 -0.1509 -0.2144 -0.1358
 2958DPPC   C3A57187  19.666  13.735  40.570 -0.2169 -0.1269 -0.1021
 2958DPPC   C4A57188  19.876  13.702  40.867 -0.3037 -0.1291 -0.3596
 2958DPPC   C1B57189  20.036  13.233  39.504  0.4307 -0.2543  0.0845
 2958DPPC   C2B57190  20.338  13.050  39.833  0.1678  0.5652 -0.0752
 2958DPPC   C3B57191  20.458  13.011  40.229  0.1649  0.1739 -0.2941
 2958DPPC   C4B57192  20.330  13.093  40.652 -0.0078  0.1825  0.1287
 2959DPPC   NC357193  11.372   1.571  25.058 -0.2507 -0.3640 -0.2886
 2959DPPC   PO457194  11.336   1.838  25.462  0.1546 -0.0372 -0.5609
 2959DPPC   GL157195  11.624   2.200  25.697 -0.0051 -0.0102 -0.5052
 2959DPPC   GL257196  11.643   2.316  26.074 -0.0211  0.0259 -0.2606
 2959DPPC   C1A57197  11.936   2.422  25.672 -0.3281  0.0442 -0.0663
 2959DPPC   C2A57198  12.360   2.608  25.711 -0.0434 -0.0184  0.1290
 2959DPPC   C3A57199  12.647   2.969  25.708 -0.2889 -0.0254 -0.1666
 2959DPPC   C4A57200  12.805   3.309  25.456  0.0228  0.0363  0.0071
 2959DPPC   C1B57201  11.839   2.746  26.003  0.1412 -0.0281 -0.0860
 2959DPPC   C2B57202  12.028   2.955  25.684  0.3771 -0.2410 -0.2182
 2959DPPC   C3B57203  12.277   3.361  25.701 -0.1237  0.1419 -0.2295
 2959DPPC   C4B57204  12.712   3.597  25.926  0.0074 -0.0401  0.2165
 2960DPPC   NC357205  21.639  18.644  18.883 -0.1051 -0.3590  0.1811
 2960DPPC   PO457206  21.827  18.136  18.815  0.3211 -0.2163  0.1078
 2960DPPC   GL157207  21.697  18.194  19.247  0.0688  0.2298 -0.2520
 2960DPPC   GL257208  21.400  18.222  19.117  0.1642 -0.1536  0.1535
 2960DPPC   C1A57209  21.480  17.971  19.620 -0.3957  0.1321  0.1160
 2960DPPC   C2A57210  21.039  17.839  19.840  0.0763  0.0618 -0.0089
 2960DPPC   C3A57211  20.766  17.953  20.126  0.1199 -0.0219  0.0911
 2960DPPC   C4A57212  20.278  17.799  20.150 -0.1332  0.1931 -0.0391
 2960DPPC   C1B57213  21.023  18.092  19.337 -0.2016 -0.1212 -0.0413
 2960DPPC   C2B57214  20.650  17.979  19.181 -0.2300 -0.1392  0.2221
 2960DPPC   C3B57215  20.146  17.868  19.276  0.0350  0.3496 -0.1219
 2960DPPC   C4B57216  19.716  17.763  19.319  0.2626 -0.1377  0.0306
 2961DPPC   NC357217  13.869  11.538  21.176  0.2670  0.0783 -0.3428
 2961DPPC   PO457218  13.667  11.580  20.773 -0.1482 -0.1402 -0.0726
 2961DPPC   GL157219  13.296  11.676  20.373 -0.1291 -0.2758  0.0805
 2961DPPC   GL257220  13.549  11.641  20.172 -0.0056  0.0432 -0.0755
 2961DPPC   C1A57221  13.152  11.681  19.903  0.0385  0.1331 -0.1567
 2961DPPC   C2A57222  13.068  11.382  19.666  0.1042  0.0790  0.2500
 2961DPPC   C3A57223  12.591  11.190  19.449  0.0140 -0.1275 -0.0785
 2961DPPC   C4A57224  12.217  11.171  19.122  0.2135  0.0179  0.0117
 2961DPPC   C1B57225  13.616  11.426  19.820  0.2182 -0.5037  0.2021
 2961DPPC   C2B57226  13.539  11.300  19.401 -0.1376 -0.4856  0.1718
 2961DPPC   C3B57227  13.148  11.249  19.151  0.0026  0.1239  0.3054
 2961DPPC   C4B57228  13.036  11.156  18.779  0.1459  0.0395 -0.0757
 2962DPPC   NC357229  22.423  14.547  30.948  0.0580  0.0393 -0.1802
 2962DPPC   PO457230  22.861  14.691  30.920 -0.1984 -0.0560  0.2047
 2962DPPC   GL157231  23.259  14.505  30.898  0.1946  0.1326  0.1101
 2962DPPC   GL257232  23.189  14.550  30.607  0.0341 -0.1636  0.1557
 2962DPPC   C1A57233  23.662  14.534  30.962  0.1363 -0.2213 -0.2195
 2962DPPC   C2A57234  24.062  14.569  31.215  0.1553 -0.3174 -0.4255
 2962DPPC   C3A57235  24.432  14.702  31.329 -0.2167 -0.4221  0.2878
 2962DPPC   C4A57236  24.747  14.998  31.108  0.0180 -0.0610  0.2003
 2962DPPC   C1B57237  23.443  14.947  30.736 -0.1175 -0.2604 -0.3232
 2962DPPC   C2B57238  23.874  15.163  30.773 -0.1231  0.2407 -0.0626
 2962DPPC   C3B57239  24.111  15.479  30.867 -0.0148 -0.1752 -0.2794
 2962DPPC   C4B57240  24.487  15.485  31.178 -0.0561 -0.0360 -0.1970
 2963DPPC   NC357241  16.094  16.232  39.145 -0.2983  0.1275  0.3276
 2963DPPC   PO457242  15.585  16.277  39.206 -0.2077  0.3081 -0.1802
 2963DPPC   GL157243  15.612  16.417  39.592 -0.1426 -0.3265  0.0024
 2963DPPC   GL257244  15.506  16.712  39.720 -0.3576 -0.1377  0.1497
 2963DPPC   C1A57245  15.964  16.541  39.806  0.1208 -0.0134  0.0707
 2963DPPC   C2A57246  16.232  16.426  40.158  0.0702 -0.2551 -0.3651
 2963DPPC   C3A57247  16.221  16.759  40.421 -0.0634 -0.1074  0.0300
 2963DPPC   C4A57248  16.224  17.109  40.679  0.4236  0.0252 -0.4375
 2963DPPC   C1B57249  15.489  17.149  39.706  0.1366 -0.0283 -0.2786
 2963DPPC   C2B57250  15.670  17.492  39.874 -0.1143  0.1392 -0.2622
 2963DPPC   C3B57251  15.879  17.854  39.749  0.2247  0.0269 -0.1714
 2963DPPC   C4B57252  16.220  17.881  39.658  0.1218  0.0003  0.2334
 2964DPPC   NC357253   9.371  13.525  36.717 -0.0017 -0.0507  0.1324
 2964DPPC   PO457254   9.350  13.971  36.486  0.3859 -0.2177 -0.3041
 2964DPPC   GL157255   8.929  14.111  36.618  0.2187  0.2327  0.0278
 2964DPPC   GL257256   8.786  13.831  36.784  0.2078  0.0987  0.1947
 2964DPPC   C1A57257   8.707  14.378  36.789 -0.1241  0.2449  0.1989
 2964DPPC   C2A57258   8.410  14.660  36.838 -0.0040 -0.0066  0.3031
 2964DPPC   C3A57259   7.948  14.658  36.950  0.4868  0.0681 -0.2045
 2964DPPC   C4A57260   7.619  14.607  37.207  0.0869 -0.0629 -0.0756
 2964DPPC   C1B57261   8.432  13.963  36.899  0.5098 -0.0894 -0.3423
 2964DPPC   C2B57262   8.183  14.259  37.015  0.1504  0.0321  0.0194
 2964DPPC   C3B57263   7.959  14.276  37.316  0.1295  0.2618 -0.2144
 2964DPPC   C4B57264   7.691  14.420  37.651 -0.0287  0.0641  0.1580
 2965DPPC   NC357265  23.391  17.593  24.660  0.1890 -0.3894  0.0602
 2965DPPC   PO457266  23.455  17.609  25.168  0.1477 -0.0049  0.0570
 2965DPPC   GL157267  23.202  17.335  25.150 -0.0947 -0.0414  0.2601
 2965DPPC   GL257268  23.229  17.218  25.520  0.1126  0.1784  0.0924
 2965DPPC   C1A57269  22.936  17.016  25.124  0.0906  0.1530  0.1224
 2965DPPC   C2A57270  22.620  16.873  25.338  0.4731 -0.0633 -0.2148
 2965DPPC   C3A57271  22.313  16.587  25.491  0.1646 -0.0814 -0.1489
 2965DPPC   C4A57272  22.279  16.131  25.542  0.0903  0.1115 -0.0904
 2965DPPC   C1B57273  22.877  17.203  25.691  0.0999 -0.1288 -0.0899
 2965DPPC   C2B57274  22.690  16.987  25.987 -0.1892  0.1755  0.0159
 2965DPPC   C3B57275  22.574  16.503  25.960  0.3778  0.2429 -0.4650
 2965DPPC   C4B57276  22.458  16.173  26.196 -0.4048  0.1093 -0.0660
 2966DPPC   NC357277  10.422  14.912  36.609 -0.2797  0.1614 -0.1787
 2966DPPC   PO457278  10.068  14.697  36.926 -0.1709 -0.1991  0.0851
 2966DPPC   GL157279   9.686  14.661  37.280 -0.0789 -0.1642 -0.1732
 2966DPPC   GL257280   9.496  14.410  37.079 -0.0077 -0.1479  0.1760
 2966DPPC   C1A57281   9.558  14.673  37.652 -0.0069  0.0703  0.1728
 2966DPPC   C2A57282   9.245  14.451  37.874 -0.0618  0.2834 -0.1304
 2966DPPC   C3A57283   9.103  14.346  38.288 -0.3077  0.2126 -0.2565
 2966DPPC   C4A57284   9.475  14.385  38.436 -0.1500 -0.1072  0.1002
 2966DPPC   C1B57285   9.171  14.544  37.374 -0.0569 -0.3952 -0.0942
 2966DPPC   C2B57286   8.797  14.553  37.749  0.1621  0.0612  0.0597
 2966DPPC   C3B57287   8.663  14.414  38.172 -0.0219 -0.3736 -0.0928
 2966DPPC   C4B57288   8.707  14.143  38.587 -0.2378  0.1231 -0.0670
 2967DPPC   NC357289  15.979   8.213  38.515  0.1885 -0.0373  0.1366
 2967DPPC   PO457290  16.348   7.967  38.655 -0.0948  0.1445  0.0702
 2967DPPC   GL157291  16.182   7.652  39.005  0.0121 -0.2408 -0.0429
 2967DPPC   GL257292  15.981   7.717  39.194  0.0044 -0.3270 -0.1875
 2967DPPC   C1A57293  16.092   7.239  39.258 -0.1570 -0.0114  0.3106
 2967DPPC   C2A57294  16.251   6.772  39.283 -0.1192  0.2893  0.0359
 2967DPPC   C3A57295  16.528   6.385  39.237  0.1964  0.3416 -0.1298
 2967DPPC   C4A57296  16.712   6.323  39.518 -0.1293 -0.0003  0.0007
 2967DPPC   C1B57297  16.177   7.750  39.553 -0.0875 -0.0745 -0.1710
 2967DPPC   C2B57298  16.229   7.360  39.785  0.1972  0.0546  0.2091
 2967DPPC   C3B57299  16.039   7.041  40.052 -0.2425  0.2703 -0.3508
 2967DPPC   C4B57300  15.985   6.706  40.534  0.0414 -0.0428  0.2692
 2968DPPC   NC357301  15.712  15.578  26.891 -0.0994 -0.2266  0.0384
 2968DPPC   PO457302  15.847  16.068  26.990  0.0890  0.2469 -0.0161
 2968DPPC   GL157303  16.279  15.934  26.779  0.0311 -0.1115 -0.2541
 2968DPPC   GL257304  16.136  15.756  26.620 -0.0675 -0.0037 -0.2134
 2968DPPC   C1A57305  16.582  15.679  26.532  0.0021  0.3416  0.0647
 2968DPPC   C2A57306  17.001  15.667  26.324  0.1976 -0.1994  0.0283
 2968DPPC   C3A57307  17.363  15.519  26.136 -0.2461 -0.2666 -0.2207
 2968DPPC   C4A57308  17.853  15.416  26.192 -0.3207  0.2015  0.0419
 2968DPPC   C1B57309  16.174  15.338  26.543  0.2449 -0.1023  0.0915
 2968DPPC   C2B57310  16.389  14.912  26.343 -0.0627 -0.0080 -0.0047
 2968DPPC   C3B57311  16.823  14.717  26.142 -0.1284  0.1345 -0.2702
 2968DPPC   C4B57312  17.061  14.390  26.325 -0.0207  0.0313 -0.0657
 2969DPPC   NC357313  17.316  16.269  27.805 -0.0724  0.0149 -0.2978
 2969DPPC   PO457314  17.065  16.039  27.558 -0.1937  0.1237  0.2840
 2969DPPC   GL157315  17.186  15.758  27.217  0.4470 -0.1363 -0.0070
 2969DPPC   GL257316  17.080  15.380  27.089 -0.0582 -0.1251  0.2551
 2969DPPC   C1A57317  17.021  15.785  26.812  0.0982  0.1833 -0.1012
 2969DPPC   C2A57318  17.235  16.105  26.604  0.2429 -0.0956 -0.0612
 2969DPPC   C3A57319  17.260  16.055  26.119 -0.2209  0.4841  0.0750
 2969DPPC   C4A57320  17.157  15.800  25.770 -0.0816  0.1932 -0.0844
 2969DPPC   C1B57321  17.515  15.402  27.054 -0.0422 -0.1177 -0.1998
 2969DPPC   C2B57322  17.712  15.144  26.671  0.0479  0.1336  0.2504
 2969DPPC   C3B57323  17.574  15.032  26.267  0.0238  0.2516  0.1335
 2969DPPC   C4B57324  17.684  15.044  25.795  0.2409  0.2603  0.4855
 2970DPPC   NC357325   7.575  12.393  33.525 -0.0844  0.0528  0.0554
 2970DPPC   PO457326   7.514  12.233  33.063 -0.1385  0.2768  0.1310
 2970DPPC   GL157327   7.263  11.841  33.113 -0.1044  0.0107 -0.2421
 2970DPPC   GL257328   7.343  11.534  33.285 -0.3869  0.3639 -0.1601
 2970DPPC   C1A57329   6.872  11.676  33.192  0.3413 -0.2508 -0.3129
 2970DPPC   C2A57330   6.715  11.314  33.238 -0.0225 -0.0398 -0.1874
 2970DPPC   C3A57331   6.546  11.010  33.492 -0.1139 -0.0248  0.0595
 2970DPPC   C4A57332   6.309  11.018  33.823 -0.1194  0.1393 -0.0464
 2970DPPC   C1B57333   7.041  11.333  33.616  0.0696  0.1375 -0.0211
 2970DPPC   C2B57334   6.865  11.232  34.027 -0.2894 -0.0651  0.1471
 2970DPPC   C3B57335   6.436  11.299  34.341  0.0367 -0.1199 -0.0280
 2970DPPC   C4B57336   6.280  11.632  34.550 -0.0076 -0.2267  0.4010
 2971DPPC   NC357337   7.602   3.208  32.747  0.0291 -0.0564  0.2554
 2971DPPC   PO457338   8.059   3.247  32.701 -0.2651  0.1310  0.2652
 2971DPPC   GL157339   8.368   3.550  32.620  0.1081 -0.1995 -0.0462
 2971DPPC   GL257340   8.777   3.337  32.742  0.1151 -0.2341  0.2993
 2971DPPC   C1A57341   8.453   3.924  32.457 -0.1240  0.1681 -0.1186
 2971DPPC   C2A57342   8.411   4.352  32.396  0.1377 -0.1197  0.0396
 2971DPPC   C3A57343   8.638   4.610  32.060 -0.2304 -0.0080  0.1432
 2971DPPC   C4A57344   8.749   5.048  31.910  0.2926  0.0923  0.0477
 2971DPPC   C1B57345   8.711   3.767  32.902 -0.1361 -0.3752 -0.0968
 2971DPPC   C2B57346   8.914   4.046  32.697 -0.2073 -0.1483  0.1652
 2971DPPC   C3B57347   8.924   4.398  32.429 -0.1957 -0.2835  0.0741
 2971DPPC   C4B57348   9.120   4.528  31.987 -0.1929  0.1971  0.1421
 2972DPPC   NC357349  14.591  20.769  32.891  0.1298  0.2678  0.1154
 2972DPPC   PO457350  14.327  20.868  33.253  0.0084 -0.0841 -0.1426
 2972DPPC   GL157351  14.493  21.202  33.406  0.0758 -0.2811 -0.3489
 2972DPPC   GL257352  14.356  21.243  33.776  0.2745  0.1484 -0.2467
 2972DPPC   C1A57353  14.254  21.653  33.372 -0.1018  0.2862 -0.2732
 2972DPPC   C2A57354  14.115  21.996  33.549 -0.0960 -0.1259  0.4769
 2972DPPC   C3A57355  14.021  22.283  33.755  0.0572  0.0085 -0.1748
 2972DPPC   C4A57356  14.019  22.722  33.683 -0.1433  0.0226  0.1289
 2972DPPC   C1B57357  14.515  21.646  33.781  0.0313 -0.0933 -0.2610
 2972DPPC   C2B57358  14.669  22.073  33.871  0.5130  0.1640  0.0131
 2972DPPC   C3B57359  14.500  22.363  33.916  0.2508  0.1610 -0.1921
 2972DPPC   C4B57360  14.478  22.697  33.924 -0.1645  0.0124  0.0196
 2973DPPC   NC357361  22.878   7.369  27.358 -0.3292 -0.0047 -0.0857
 2973DPPC   PO457362  22.741   7.511  27.747 -0.0278 -0.1895 -0.1386
 2973DPPC   GL157363  23.132   7.484  27.767 -0.1682 -0.1396  0.1696
 2973DPPC   GL257364  23.341   7.637  28.017 -0.0336  0.2223 -0.1013
 2973DPPC   C1A57365  23.559   7.416  27.640 -0.2783 -0.0853  0.1432
 2973DPPC   C2A57366  24.013   7.290  27.660 -0.0591  0.3815  0.0792
 2973DPPC   C3A57367  24.415   7.066  27.465 -0.2220  0.2348  0.3644
 2973DPPC   C4A57368  24.757   6.887  27.147 -0.0086 -0.1230 -0.1662
 2973DPPC   C1B57369  23.784   7.456  28.131  0.2153 -0.0363 -0.2954
 2973DPPC   C2B57370  24.194   7.457  28.448 -0.3045 -0.2305 -0.2192
 2973DPPC   C3B57371  24.481   7.447  28.753 -0.2788  0.1358  0.1184
 2973DPPC   C4B57372  24.754   7.277  29.125  0.0046 -0.2095  0.0090
 2974DPPC   NC357373  13.295  20.476  33.583  0.1898  0.0868  0.0594
 2974DPPC   PO457374  12.925  20.241  33.704 -0.1257 -0.1508 -0.0073
 2974DPPC   GL157375  12.781  20.643  33.758 -0.0457  0.1649 -0.0439
 2974DPPC   GL257376  12.984  20.886  33.828 -0.0441 -0.1611  0.1418
 2974DPPC   C1A57377  12.492  20.987  33.910 -0.0754 -0.2162 -0.5007
 2974DPPC   C2A57378  12.110  21.185  33.893 -0.1218  0.5171 -0.0838
 2974DPPC   C3A57379  11.967  21.670  33.872  0.2762 -0.4032 -0.0495
 2974DPPC   C4A57380  11.658  21.865  34.022 -0.0911 -0.3254  0.1318
 2974DPPC   C1B57381  12.901  21.211  34.076 -0.2511 -0.2268  0.0331
 2974DPPC   C2B57382  12.928  21.577  34.203 -0.0976 -0.1957 -0.1111
 2974DPPC   C3B57383  13.245  21.921  34.378  0.0733  0.1017 -0.1014
 2974DPPC   C4B57384  13.293  22.311  34.413  0.2853 -0.1574  0.1345
 2975DPPC   NC357385  22.995   9.321  31.769  0.0395  0.1549  0.2340
 2975DPPC   PO457386  23.244   8.972  31.812 -0.2682  0.2403  0.2438
 2975DPPC   GL157387  23.610   8.796  32.063 -0.0876  0.3009  0.1479
 2975DPPC   GL257388  23.617   8.685  32.340 -0.2094 -0.0952 -0.2098
 2975DPPC   C1A57389  23.936   8.579  31.865 -0.2789 -0.3266 -0.3323
 2975DPPC   C2A57390  24.359   8.394  31.773 -0.2661  0.0633 -0.1198
 2975DPPC   C3A57391  24.715   8.449  31.602 -0.3797  0.0180 -0.1323
 2975DPPC   C4A57392  24.960   8.346  31.282 -0.1738  0.0674  0.2167
 2975DPPC   C1B57393  24.057   8.732  32.396  0.1068 -0.3818 -0.0123
 2975DPPC   C2B57394  24.348   9.022  32.410  0.2678  0.3923  0.0176
 2975DPPC   C3B57395  24.575   9.188  32.650 -0.2102  0.0672 -0.2119
 2975DPPC   C4B57396  24.938   9.532  32.700 -0.0037 -0.0707  0.3264
 2976DPPC   NC357397  23.444  10.901  29.895 -0.0993  0.1418  0.3931
 2976DPPC   PO457398  23.887  11.141  29.697 -0.1941 -0.0812  0.0667
 2976DPPC   GL157399  24.362  10.914  29.778 -0.0851 -0.1443  0.0990
 2976DPPC   GL257400  24.429  10.574  29.926 -0.1879  0.0262 -0.1124
 2976DPPC   C1A57401  24.761  10.734  29.635 -0.0654  0.0743 -0.2136
 2976DPPC   C2A57402  25.061  10.594  29.285 -0.0959 -0.0257 -0.1782
 2976DPPC   C3A57403  25.341  10.262  29.168 -0.2124  0.1656 -0.0194
 2976DPPC   C4A57404  25.723  10.127  29.052 -0.0232  0.0787 -0.2180
 2976DPPC   C1B57405  24.429  10.214  30.115  0.2075 -0.2461 -0.1517
 2976DPPC   C2B57406  24.521   9.847  30.029 -0.2188  0.0549 -0.0489
 2976DPPC   C3B57407  24.702   9.330  29.969 -0.0991 -0.1128  0.0539
 2976DPPC   C4B57408  25.029   8.886  29.961  0.1575 -0.0789  0.0357
 2977DPPC   NC357409  10.929  11.781  37.886  0.1701 -0.2254 -0.1782
 2977DPPC   PO457410  10.667  12.138  38.056 -0.3836 -0.2850  0.1439
 2977DPPC   GL157411  10.570  12.151  38.476  0.0535 -0.1872 -0.1150
 2977DPPC   GL257412  10.297  12.425  38.538 -0.2009 -0.2421  0.0216
 2977DPPC   C1A57413  10.595  12.052  38.896 -0.0478  0.1091 -0.0987
 2977DPPC   C2A57414  10.503  12.286  39.250 -0.0098 -0.1492 -0.0468
 2977DPPC   C3A57415  10.233  12.457  39.563 -0.1054  0.1585 -0.0682
 2977DPPC   C4A57416   9.979  12.788  39.716  0.0666  0.1264 -0.1281
 2977DPPC   C1B57417  10.107  12.274  38.901 -0.1471  0.1183 -0.0528
 2977DPPC   C2B57418   9.721  12.460  39.135 -0.2907  0.2520  0.0192
 2977DPPC   C3B57419   9.187  12.490  39.319 -0.0161  0.0562 -0.0921
 2977DPPC   C4B57420   8.836  12.675  39.476  0.0794 -0.1364  0.1376
 2978DPPC   NC357421  13.864   0.792  32.789  0.0331 -0.2361 -0.0041
 2978DPPC   PO457422  14.237   0.725  32.479  0.2820  0.1180  0.4253
 2978DPPC   GL157423  14.516   1.032  32.246  0.1283  0.4244 -0.1731
 2978DPPC   GL257424  14.914   0.982  32.454  0.2303 -0.1187 -0.3402
 2978DPPC   C1A57425  14.782   1.367  31.996 -0.0730 -0.1741 -0.2711
 2978DPPC   C2A57426  15.074   1.532  31.740 -0.0924 -0.3208  0.0672
 2978DPPC   C3A57427  15.040   1.862  31.586 -0.3364 -0.2315  0.3662
 2978DPPC   C4A57428  15.243   2.122  31.476 -0.2584 -0.2311  0.0911
 2978DPPC   C1B57429  14.659   1.344  32.756  0.0909  0.2934  0.2837
 2978DPPC   C2B57430  14.401   1.723  32.597 -0.1556 -0.0345 -0.0556
 2978DPPC   C3B57431  14.509   2.189  32.554 -0.0991  0.2453 -0.0877
 2978DPPC   C4B57432  14.662   2.534  32.402 -0.1046  0.0927  0.2180
 2979DPPC   NC357433  21.119  18.076  17.554 -0.0469  0.0563  0.2265
 2979DPPC   PO457434  20.713  17.795  17.594  0.0531 -0.2049  0.0269
 2979DPPC   GL157435  20.742  17.823  18.031  0.1694 -0.3120 -0.0453
 2979DPPC   GL257436  20.790  18.121  18.253  0.2754  0.2241  0.0325
 2979DPPC   C1A57437  20.624  17.454  18.448  0.3245  0.0447 -0.1638
 2979DPPC   C2A57438  20.295  17.219  18.727  0.0688  0.4987  0.0627
 2979DPPC   C3A57439  20.111  16.889  18.756  0.0232 -0.1071  0.2277
 2979DPPC   C4A57440  19.891  16.601  19.016  0.1473  0.1624  0.2155
 2979DPPC   C1B57441  20.353  17.911  18.340 -0.0308  0.1970  0.0814
 2979DPPC   C2B57442  19.983  17.576  18.439  0.2485  0.1788  0.2724
 2979DPPC   C3B57443  19.503  17.561  18.768 -0.1520  0.2031  0.2204
 2979DPPC   C4B57444  19.126  17.816  18.767  0.3965  0.5352 -0.0594
 2980DPPC   NC357445   9.020   8.823  26.957 -0.0530 -0.0509 -0.2400
 2980DPPC   PO457446   9.217   8.500  27.010 -0.0422 -0.0981  0.2620
 2980DPPC   GL157447   8.998   8.190  26.835 -0.2523  0.0176 -0.1308
 2980DPPC   GL257448   9.115   8.179  26.523  0.2825 -0.0055  0.3029
 2980DPPC   C1A57449   8.670   7.898  26.741  0.1487  0.1556  0.2074
 2980DPPC   C2A57450   8.487   7.606  26.485 -0.2644  0.1438  0.2423
 2980DPPC   C3A57451   8.451   7.184  26.424 -0.0274  0.3605 -0.3972
 2980DPPC   C4A57452   8.090   6.913  26.538 -0.0921  0.0868 -0.1564
 2980DPPC   C1B57453   8.704   8.273  26.373  0.0548  0.0293 -0.1534
 2980DPPC   C2B57454   8.354   8.173  26.339  0.1798  0.1740 -0.0551
 2980DPPC   C3B57455   7.952   8.241  26.145 -0.2094  0.1351  0.2083
 2980DPPC   C4B57456   7.667   8.256  25.820 -0.1794 -0.2729 -0.0581
 2981DPPC   NC357457   9.815  10.209  36.283 -0.0205 -0.1118  0.1139
 2981DPPC   PO457458   9.936   9.880  36.543 -0.2410 -0.2274  0.0800
 2981DPPC   GL157459   9.613   9.594  36.483  0.2225 -0.1541 -0.2378
 2981DPPC   GL257460   9.463   9.752  36.196  0.1675 -0.0362 -0.0078
 2981DPPC   C1A57461   9.260   9.505  36.797 -0.2524 -0.5549  0.3721
 2981DPPC   C2A57462   9.173   9.384  37.211 -0.1801 -0.1256  0.1185
 2981DPPC   C3A57463   9.091   9.278  37.595  0.2479 -0.0155  0.3447
 2981DPPC   C4A57464   8.960   8.910  37.794  0.2870  0.1589 -0.0994
 2981DPPC   C1B57465   9.103   9.406  36.250  0.1165 -0.2779 -0.0630
 2981DPPC   C2B57466   8.774   9.283  36.285  0.0452 -0.2066 -0.1703
 2981DPPC   C3B57467   8.579   9.075  36.555 -0.0734 -0.4968  0.2825
 2981DPPC   C4B57468   8.243   8.967  36.760 -0.0864 -0.1842 -0.2342
 2982DPPC   NC357469  16.782  19.971  35.323  0.0635  0.1771  0.0705
 2982DPPC   PO457470  16.578  19.581  35.554  0.1344 -0.1207  0.0053
 2982DPPC   GL157471  16.764  19.918  35.819  0.0239  0.2758  0.0499
 2982DPPC   GL257472  17.095  19.923  35.790  0.1939  0.1825 -0.0243
 2982DPPC   C1A57473  16.774  20.463  35.811 -0.0382 -0.1331 -0.0380
 2982DPPC   C2A57474  16.911  20.945  35.854  0.1053  0.0086  0.0247
 2982DPPC   C3A57475  16.721  21.273  35.596 -0.0349 -0.0719  0.0709
 2982DPPC   C4A57476  16.649  21.766  35.587 -0.1677 -0.1531 -0.0529
 2982DPPC   C1B57477  17.285  20.244  35.984 -0.2678  0.1276  0.2634
 2982DPPC   C2B57478  17.183  20.560  36.136  0.0989 -0.2483  0.1061
 2982DPPC   C3B57479  17.376  20.974  36.224 -0.1878 -0.0932  0.0293
 2982DPPC   C4B57480  17.765  20.984  36.569 -0.2382 -0.2094  0.2159
 2983DPPC   NC357481  16.350  20.340  34.360  0.1896  0.5815  0.2744
 2983DPPC   PO457482  16.145  20.490  34.672 -0.2418  0.1902 -0.0488
 2983DPPC   GL157483  16.426  20.733  34.926  0.0049  0.0558 -0.0238
 2983DPPC   GL257484  16.349  20.541  35.265  0.1211  0.2203 -0.1008
 2983DPPC   C1A57485  16.489  21.099  35.133 -0.0547 -0.1715  0.1144
 2983DPPC   C2A57486  16.302  21.429  35.364 -0.0775 -0.0792  0.1608
 2983DPPC   C3A57487  16.148  21.631  35.678  0.0420 -0.2599  0.0363
 2983DPPC   C4A57488  16.021  21.945  36.006  0.3864  0.2420 -0.1058
 2983DPPC   C1B57489  16.505  20.870  35.541 -0.0479 -0.0567 -0.0228
 2983DPPC   C2B57490  16.245  21.180  35.826 -0.0010 -0.1693  0.0029
 2983DPPC   C3B57491  15.776  21.404  35.946 -0.0105 -0.1328  0.0310
 2983DPPC   C4B57492  15.339  21.461  36.162 -0.0862 -0.0369  0.0331
 2984DPPC   NC357493  20.160   5.584  31.436 -0.1642  0.0794  0.4208
 2984DPPC   PO457494  20.593   5.386  31.285  0.0013 -0.1322  0.1457
 2984DPPC   GL157495  20.733   5.029  31.262 -0.0161  0.2921 -0.1653
 2984DPPC   GL257496  20.744   4.953  31.584 -0.5314 -0.0049  0.2343
 2984DPPC   C1A57497  21.099   4.636  31.323  0.0651  0.0406 -0.1414
 2984DPPC   C2A57498  21.327   4.248  31.578 -0.0067  0.0193 -0.0668
 2984DPPC   C3A57499  21.501   3.960  31.754 -0.2103 -0.1182 -0.1502
 2984DPPC   C4A57500  21.449   3.623  32.018  0.3642  0.1492  0.1490
 2984DPPC   C1B57501  20.988   4.587  31.845 -0.0774  0.0276 -0.0457
 2984DPPC   C2B57502  21.363   4.391  32.079  0.1596 -0.0569  0.0561
 2984DPPC   C3B57503  21.512   4.036  32.257  0.1432 -0.1443 -0.1025
 2984DPPC   C4B57504  21.779   3.872  32.533  0.0186  0.0858 -0.0188
 2985DPPC   NC357505   8.042  23.167  27.718 -0.4324 -0.1464  0.2901
 2985DPPC   PO457506   7.776  22.887  27.433  0.0811  0.1965  0.3117
 2985DPPC   GL157507   8.211  22.723  27.490 -0.1931 -0.1474 -0.1528
 2985DPPC   GL257508   8.047  22.378  27.574 -0.2468 -0.0190  0.2015
 2985DPPC   C1A57509   8.657  22.474  27.480 -0.3908  0.0434  0.2334
 2985DPPC   C2A57510   9.102  22.347  27.402  0.0743 -0.0567  0.0608
 2985DPPC   C3A57511   9.380  22.049  27.289  0.4266 -0.0222 -0.1844
 2985DPPC   C4A57512   9.673  21.901  27.272  0.0236  0.1162 -0.4109
 2985DPPC   C1B57513   7.873  21.949  27.699  0.0506  0.1800 -0.2177
 2985DPPC   C2B57514   7.651  21.424  27.756  0.1833  0.0587 -0.0109
 2985DPPC   C3B57515   7.543  20.945  27.950  0.1246  0.1628 -0.2391
 2985DPPC   C4B57516   7.524  20.697  28.325 -0.0060 -0.0576 -0.1955
 2986DPPC   NC357517  14.127   1.663  23.249 -0.0737  0.1424 -0.1603
 2986DPPC   PO457518  14.343   1.815  22.843 -0.0069  0.1470  0.1224
 2986DPPC   GL157519  14.349   2.152  23.213  0.0592  0.4669 -0.0464
 2986DPPC   GL257520  14.665   2.260  23.101 -0.1239  0.0697 -0.2597
 2986DPPC   C1A57521  14.506   2.259  23.589  0.1580 -0.4011 -0.0130
 2986DPPC   C2A57522  14.511   2.638  23.780  0.0643 -0.0641 -0.0094
 2986DPPC   C3A57523  14.754   2.911  24.046 -0.0762  0.0170  0.1639
 2986DPPC   C4A57524  15.118   3.147  24.171 -0.1184 -0.0163  0.2973
 2986DPPC   C1B57525  14.528   2.735  23.273  0.0013  0.0741 -0.2298
 2986DPPC   C2B57526  14.684   3.040  23.559  0.0364 -0.1985  0.1615
 2986DPPC   C3B57527  14.635   3.347  23.800  0.1810 -0.1001  0.0327
 2986DPPC   C4B57528  14.605   3.831  23.791 -0.0130 -0.1158 -0.2024
 2987DPPC   NC357529   8.539  14.884  34.696 -0.0820  0.2158 -0.0597
 2987DPPC   PO457530   8.458  14.588  34.555 -0.1788 -0.0733  0.2213
 2987DPPC   GL157531   8.145  14.694  34.922 -0.3086  0.3646 -0.0606
 2987DPPC   GL257532   8.047  14.987  34.801 -0.0138 -0.0882 -0.2663
 2987DPPC   C1A57533   7.763  14.599  35.192 -0.0092  0.1862  0.1761
 2987DPPC   C2A57534   7.290  14.613  35.271 -0.2481 -0.0041 -0.1900
 2987DPPC   C3A57535   7.050  14.609  35.576 -0.0517 -0.3940  0.0703
 2987DPPC   C4A57536   6.724  14.506  35.810  0.0625  0.5335  0.2026
 2987DPPC   C1B57537   7.670  15.108  35.045  0.2750  0.0053  0.2907
 2987DPPC   C2B57538   7.281  15.408  35.033 -0.2097  0.2431  0.0810
 2987DPPC   C3B57539   6.846  15.584  35.026 -0.1430  0.0621 -0.1687
 2987DPPC   C4B57540   6.440  15.589  34.749 -0.1758 -0.1167  0.1500
 2988DPPC   NC357541  12.653   8.530  16.976  0.0565 -0.2882  0.3343
 2988DPPC   PO457542  12.368   8.729  17.209  0.0161 -0.2263 -0.0343
 2988DPPC   GL157543  12.632   8.466  17.446 -0.1198 -0.1155  0.2935
 2988DPPC   GL257544  12.873   8.375  17.383 -0.4032  0.2674 -0.0688
 2988DPPC   C1A57545  12.744   8.371  17.847 -0.0676  0.3160 -0.1418
 2988DPPC   C2A57546  12.900   8.026  18.168 -0.1906 -0.1231  0.1448
 2988DPPC   C3A57547  13.201   7.760  18.264 -0.0831 -0.0546 -0.0284
 2988DPPC   C4A57548  13.324   7.548  18.651 -0.3060  0.0067 -0.0183
 2988DPPC   C1B57549  13.182   8.590  17.600 -0.0928  0.1153 -0.0885
 2988DPPC   C2B57550  13.417   8.950  17.763  0.0141 -0.1216 -0.1936
 2988DPPC   C3B57551  13.697   9.209  18.078  0.3166 -0.6616 -0.0494
 2988DPPC   C4B57552  13.737   9.069  18.539 -0.1990 -0.0927 -0.0401
 2989DPPC   NC357553  15.926   4.418  30.949 -0.1575  0.1716  0.0271
 2989DPPC   PO457554  16.144   4.218  31.262  0.0259  0.0226 -0.2664
 2989DPPC   GL157555  16.185   3.743  31.130  0.1584  0.1692  0.1740
 2989DPPC   GL257556  16.469   3.843  31.342  0.3198 -0.1013 -0.3009
 2989DPPC   C1A57557  16.342   3.354  31.221 -0.5254 -0.0902 -0.5585
 2989DPPC   C2A57558  16.508   3.101  31.418  0.2079 -0.0749  0.0100
 2989DPPC   C3A57559  16.632   2.808  31.717 -0.3427 -0.0376 -0.0729
 2989DPPC   C4A57560  16.497   2.880  32.112  0.0084 -0.0828 -0.1397
 2989DPPC   C1B57561  16.598   3.602  31.653 -0.2317  0.0056  0.1063
 2989DPPC   C2B57562  16.421   3.526  32.020 -0.3227  0.0398 -0.3156
 2989DPPC   C3B57563  16.283   3.262  32.351 -0.1605 -0.4839 -0.0596
 2989DPPC   C4B57564  15.886   3.152  32.307 -0.1674  0.2945  0.3424
 2990DPPC   NC357565  14.666  19.776  23.864  0.1014 -0.0500 -0.1115
 2990DPPC   PO457566  14.928  20.155  23.625 -0.0554 -0.3728  0.1539
 2990DPPC   GL157567  14.966  20.581  23.631 -0.2534  0.0103  0.1593
 2990DPPC   GL257568  14.821  20.794  23.211  0.0381 -0.0147 -0.0896
 2990DPPC   C1A57569  15.109  21.047  23.515  0.0266 -0.1339  0.1499
 2990DPPC   C2A57570  15.174  21.454  23.617 -0.1060  0.1700  0.1278
 2990DPPC   C3A57571  15.445  21.651  23.715  0.1408  0.1229  0.4105
 2990DPPC   C4A57572  15.809  21.942  23.702 -0.2793  0.0198 -0.0308
 2990DPPC   C1B57573  14.433  21.043  23.073  0.1179  0.1963  0.0263
 2990DPPC   C2B57574  14.038  21.232  23.034 -0.0886 -0.0615  0.1863
 2990DPPC   C3B57575  13.933  21.690  23.057  0.1495  0.2090  0.0665
 2990DPPC   C4B57576  13.891  22.161  23.121  0.1337  0.3502 -0.0485
 2991DPPC   NC357577  12.926  10.936  38.868  0.0476 -0.2246 -0.0079
 2991DPPC   PO457578  12.814  10.606  39.091 -0.0444  0.0620 -0.0136
 2991DPPC   GL157579  12.813  10.295  39.426 -0.0939  0.1180  0.4661
 2991DPPC   GL257580  13.112  10.154  39.482 -0.1721 -0.1461 -0.0994
 2991DPPC   C1A57581  12.595  10.183  39.866  0.0310  0.1720  0.2387
 2991DPPC   C2A57582  12.423  10.354  40.182 -0.2807  0.0487  0.2480
 2991DPPC   C3A57583  12.350  10.391  40.600  0.6405 -0.1075 -0.1248
 2991DPPC   C4A57584  12.195  10.759  40.528 -0.2832  0.1662  0.0637
 2991DPPC   C1B57585  13.075  10.046  39.880  0.1483 -0.3167  0.1038
 2991DPPC   C2B57586  12.861   9.857  40.144 -0.0004 -0.1613 -0.4451
 2991DPPC   C3B57587  12.475   9.930  40.412  0.0069 -0.0745  0.1663
 2991DPPC   C4B57588  12.043   9.963  40.696 -0.2026  0.0797 -0.5232
 2992DPPC   NC357589  21.956  15.310  28.801 -0.1168 -0.0666  0.0058
 2992DPPC   PO457590  21.798  15.837  28.617 -0.1418  0.0743 -0.0208
 2992DPPC   GL157591  22.200  16.010  28.611  0.2721 -0.1795  0.1096
 2992DPPC   GL257592  22.255  15.812  28.935 -0.1166 -0.2993 -0.0037
 2992DPPC   C1A57593  22.462  16.111  28.315  0.0805  0.3363 -0.4424
 2992DPPC   C2A57594  22.747  16.398  28.496 -0.0410  0.1376 -0.0532
 2992DPPC   C3A57595  22.975  16.721  28.685 -0.1653  0.0217  0.0675
 2992DPPC   C4A57596  22.903  16.621  29.068  0.2027  0.1693  0.4505
 2992DPPC   C1B57597  22.729  15.973  28.820  0.0451 -0.4127 -0.2674
 2992DPPC   C2B57598  23.066  16.170  28.853  0.2317  0.1163  0.0847
 2992DPPC   C3B57599  23.396  16.452  28.865  0.0886 -0.0916  0.1080
 2992DPPC   C4B57600  23.740  16.727  28.815 -0.0497 -0.1771  0.1675
 2993DPPC   NC357601  13.326  17.829  42.603 -0.2175 -0.0321 -0.1021
 2993DPPC   PO457602  13.193  17.753  42.202  0.0087  0.0594  0.0856
 2993DPPC   GL157603  13.307  17.525  41.869  0.1126  0.0221  0.1833
 2993DPPC   GL257604  13.024  17.432  41.786  0.0398 -0.1128  0.0390
 2993DPPC   C1A57605  13.352  17.404  41.416  0.1399  0.0024  0.0179
 2993DPPC   C2A57606  13.534  17.419  41.120 -0.2120 -0.1052  0.0727
 2993DPPC   C3A57607  13.662  17.068  40.996 -0.0183 -0.1496 -0.2475
 2993DPPC   C4A57608  13.783  16.961  40.643  0.0626  0.1157 -0.3292
 2993DPPC   C1B57609  12.908  17.220  41.429  0.3273  0.0160  0.0318
 2993DPPC   C2B57610  13.095  17.131  40.991  0.0877 -0.0140 -0.3129
 2993DPPC   C3B57611  13.299  16.753  40.818  0.0013 -0.3053 -0.0412
 2993DPPC   C4B57612  13.317  16.633  40.409 -0.0014 -0.2152 -0.0063
 2994DPPC   NC357613  10.183   8.031  34.255  0.0505  0.3924  0.3345
 2994DPPC   PO457614  10.215   7.705  33.941  0.2822 -0.0017 -0.0874
 2994DPPC   GL157615   9.927   7.601  34.366 -0.0856  0.1706  0.5592
 2994DPPC   GL257616   9.804   7.956  34.554 -0.0722 -0.0825 -0.1486
 2994DPPC   C1A57617   9.609   7.296  34.621  0.5589 -0.0328  0.0420
 2994DPPC   C2A57618   9.312   7.030  34.691  0.0881  0.2596  0.0151
 2994DPPC   C3A57619   9.213   6.576  34.676 -0.1450 -0.4694  0.3150
 2994DPPC   C4A57620   8.887   6.293  34.736  0.6421 -0.0569  0.0004
 2994DPPC   C1B57621   9.344   7.738  34.618 -0.0769  0.0292  0.2398
 2994DPPC   C2B57622   8.989   7.391  34.685 -0.0745  0.3516  0.3040
 2994DPPC   C3B57623   8.835   6.907  34.748 -0.4228  0.1693 -0.0421
 2994DPPC   C4B57624   8.486   6.683  35.025  0.1090  0.0292 -0.0404
 2995DPPC   NC357625   4.888  13.159  36.788  0.1753 -0.0578 -0.1557
 2995DPPC   PO457626   4.939  12.990  37.181  0.2315 -0.1485  0.3108
 2995DPPC   GL157627   5.347  12.805  37.332  0.1462 -0.4735  0.2019
 2995DPPC   GL257628   5.464  12.953  37.008  0.0873  0.2273  0.0229
 2995DPPC   C1A57629   5.770  12.823  37.417  0.1273  0.1509  0.1482
 2995DPPC   C2A57630   6.160  12.675  37.241  0.5796 -0.0839  0.1775
 2995DPPC   C3A57631   6.457  12.623  37.078 -0.0291  0.0771 -0.1064
 2995DPPC   C4A57632   6.722  12.621  36.749 -0.1992  0.1538 -0.0936
 2995DPPC   C1B57633   5.962  13.041  36.906  0.0336 -0.1250  0.0486
 2995DPPC   C2B57634   6.427  13.043  36.713 -0.2681 -0.2460  0.0933
 2995DPPC   C3B57635   6.802  12.967  36.393  0.0259 -0.0798  0.2579
 2995DPPC   C4B57636   7.052  12.525  36.291 -0.0295  0.3078  0.0044
 2996DPPC   NC357637   6.002  16.374  38.676 -0.2578  0.0818 -0.3202
 2996DPPC   PO457638   6.357  16.729  38.597 -0.0193 -0.2890 -0.1003
 2996DPPC   GL157639   6.597  16.785  38.173  0.0848  0.0917  0.0945
 2996DPPC   GL257640   6.483  16.736  37.915 -0.0225  0.1252  0.0426
 2996DPPC   C1A57641   7.076  16.678  38.133 -0.0416 -0.3333  0.3377
 2996DPPC   C2A57642   7.280  16.302  38.108 -0.2788 -0.2485  0.5582
 2996DPPC   C3A57643   7.580  16.043  37.885  0.0298 -0.1437  0.0090
 2996DPPC   C4A57644   7.815  15.836  37.586  0.1173  0.2544  0.1752
 2996DPPC   C1B57645   6.490  16.269  37.669  0.2442  0.0302  0.0278
 2996DPPC   C2B57646   6.513  16.283  37.162  0.1556  0.0281  0.0010
 2996DPPC   C3B57647   6.772  16.440  36.895  0.0995  0.3073  0.1058
 2996DPPC   C4B57648   6.962  16.121  36.484 -0.3849 -0.1033  0.3161
 2997DPPC   NC357649  22.828   9.354  25.796  0.2791  0.2036  0.0979
 2997DPPC   PO457650  23.080   9.147  26.062 -0.1089  0.1258  0.0762
 2997DPPC   GL157651  23.264   9.186  25.646 -0.0484 -0.4677  0.3139
 2997DPPC   GL257652  23.151   9.085  25.394  0.0457 -0.3155  0.1128
 2997DPPC   C1A57653  23.537   8.801  25.572 -0.2197 -0.1174 -0.0744
 2997DPPC   C2A57654  23.989   8.734  25.619  0.1798  0.3506  0.0233
 2997DPPC   C3A57655  24.257   8.570  26.068  0.1473 -0.1917 -0.0329
 2997DPPC   C4A57656  24.558   8.397  26.184  0.3115  0.3663 -0.0321
 2997DPPC   C1B57657  23.391   9.037  24.996  0.1102 -0.2360  0.1087
 2997DPPC   C2B57658  23.674   8.937  24.746  0.4364 -0.1213 -0.0836
 2997DPPC   C3B57659  23.997   8.672  24.569 -0.0129  0.1017  0.3093
 2997DPPC   C4B57660  24.313   8.729  24.319 -0.2203  0.0249  0.1383
 2998DPPC   NC357661  22.042  15.168  33.981  0.2196 -0.2970 -0.1216
 2998DPPC   PO457662  22.488  15.304  33.851 -0.2207 -0.1534 -0.1901
 2998DPPC   GL157663  22.917  15.562  33.867  0.3172 -0.2142 -0.1271
 2998DPPC   GL257664  23.206  15.370  33.744  0.1065  0.2725 -0.2357
 2998DPPC   C1A57665  23.239  15.759  34.054  0.1202  0.2480  0.0177
 2998DPPC   C2A57666  23.593  15.890  33.847 -0.1529  0.1802 -0.1877
 2998DPPC   C3A57667  23.830  16.151  33.590  0.2205 -0.3345 -0.1358
 2998DPPC   C4A57668  23.716  16.093  33.203  0.4668  0.1768 -0.1766
 2998DPPC   C1B57669  23.631  15.337  33.579  0.1464 -0.2401  0.0198
 2998DPPC   C2B57670  23.960  15.576  33.357 -0.2695  0.2217  0.1600
 2998DPPC   C3B57671  24.244  15.926  33.343 -0.3565  0.1439 -0.1099
 2998DPPC   C4B57672  24.347  16.296  33.442 -0.0105 -0.0833  0.0856
 2999DPPC   NC357673   9.954   7.282  28.836 -0.0046 -0.0589 -0.2776
 2999DPPC   PO457674   9.935   7.623  28.716 -0.1789  0.0456 -0.1821
 2999DPPC   GL157675   9.480   7.444  28.836  0.0330  0.4404 -0.0029
 2999DPPC   GL257676   9.490   7.312  28.535  0.3531  0.0588 -0.0271
 2999DPPC   C1A57677   9.230   7.068  28.949 -0.1438 -0.0349 -0.0869
 2999DPPC   C2A57678   8.898   6.839  28.948  0.3292  0.2086 -0.1663
 2999DPPC   C3A57679   8.855   6.418  28.968 -0.0782 -0.2221  0.0993
 2999DPPC   C4A57680   8.608   6.055  28.916  0.1146  0.0463 -0.0602
 2999DPPC   C1B57681   9.084   7.143  28.492  0.4943  0.1583 -0.1884
 2999DPPC   C2B57682   8.727   6.866  28.479  0.0560  0.1545  0.2026
 2999DPPC   C3B57683   8.591   6.553  28.616 -0.2083 -0.1763 -0.2318
 2999DPPC   C4B57684   8.284   6.433  28.898  0.2045  0.1556  0.0983
 3000DPPC   NC357685  24.207  20.146  28.449 -0.1196 -0.0048  0.0979
 3000DPPC   PO457686  23.738  20.309  28.452 -0.0458 -0.3890  0.2422
 3000DPPC   GL157687  23.734  19.743  28.549 -0.1537 -0.0020 -0.1313
 3000DPPC   GL257688  23.643  19.754  28.843  0.2158  0.4031  0.1115
 3000DPPC   C1A57689  23.605  19.269  28.596 -0.0841 -0.1482 -0.1011
 3000DPPC   C2A57690  23.170  19.023  28.595 -0.3804 -0.1015  0.0824
 3000DPPC   C3A57691  22.706  19.190  28.613  0.1252 -0.2199  0.1757
 3000DPPC   C4A57692  22.386  19.543  28.694  0.1092  0.0275 -0.0219
 3000DPPC   C1B57693  23.327  19.689  29.141  0.0551  0.0302 -0.1068
 3000DPPC   C2B57694  22.962  19.508  29.399 -0.1619  0.1952  0.0593
 3000DPPC   C3B57695  22.491  19.312  29.458 -0.0335 -0.2243 -0.0231
 3000DPPC   C4B57696  22.096  19.233  29.599 -0.3114 -0.2814  0.1304
 3001DPPC   NC357697   3.678  10.335  27.981  0.0275 -0.0265  0.0115
 3001DPPC   PO457698   3.708   9.950  28.131  0.1157  0.0066  0.1394
 3001DPPC   GL157699   4.165  10.104  28.220 -0.1058  0.1587 -0.1607
 3001DPPC   GL257700   4.253  10.071  28.577  0.2252 -0.0276 -0.0662
 3001DPPC   C1A57701   4.443  10.137  28.010  0.0491  0.5166 -0.1606
 3001DPPC   C2A57702   4.742   9.911  27.788  0.1603  0.4928 -0.4818
 3001DPPC   C3A57703   5.205   9.728  27.819 -0.2364  0.0301  0.0013
 3001DPPC   C4A57704   5.619   9.703  27.910  0.0729  0.4349  0.3014
 3001DPPC   C1B57705   4.675  10.195  28.771  0.0644 -0.2321  0.0123
 3001DPPC   C2B57706   5.141  10.113  28.914  0.3003  0.2030 -0.7507
 3001DPPC   C3B57707   5.465  10.214  28.844 -0.0365 -0.0325 -0.0884
 3001DPPC   C4B57708   5.882  10.425  28.664  0.0675 -0.1505 -0.3873
 3002DPPC   NC357709  25.623   5.966  34.539 -0.0341 -0.0051  0.3399
 3002DPPC   PO457710  25.461   5.733  34.850  0.0358  0.3213 -0.2755
 3002DPPC   GL157711  25.096   5.804  34.722 -0.1163  0.0303 -0.1995
 3002DPPC   GL257712  25.141   5.988  34.446 -0.3233  0.1165 -0.0413
 3002DPPC   C1A57713  24.679   5.922  34.739  0.3157 -0.2567 -0.0477
 3002DPPC   C2A57714  24.367   6.117  34.637  0.0245 -0.1168  0.1545
 3002DPPC   C3A57715  24.013   6.233  34.425  0.1283 -0.0301  0.0786
 3002DPPC   C4A57716  23.638   6.322  34.347  0.0458  0.0657  0.3056
 3002DPPC   C1B57717  24.763   6.026  34.237  0.0187 -0.0433 -0.1563
 3002DPPC   C2B57718  24.380   6.093  34.050  0.1937  0.3479  0.0694
 3002DPPC   C3B57719  24.102   6.175  33.780  0.0970  0.0556 -0.0981
 3002DPPC   C4B57720  24.123   6.542  33.450 -0.2420 -0.0767 -0.1217
 3003DPPC   NC357721  18.746  23.321  23.565 -0.1613  0.0957 -0.1756
 3003DPPC   PO457722  18.836  23.031  23.985  0.0447  0.2431 -0.1788
 3003DPPC   GL157723  19.125  22.633  24.017  0.1233 -0.1124 -0.0263
 3003DPPC   GL257724  19.066  22.563  23.700  0.3471  0.1739  0.2229
 3003DPPC   C1A57725  19.368  22.260  24.117  0.3799 -0.1140  0.1825
 3003DPPC   C2A57726  19.727  21.899  24.229 -0.2805 -0.0281 -0.1730
 3003DPPC   C3A57727  19.883  21.396  24.310  0.2481  0.1587  0.2934
 3003DPPC   C4A57728  19.930  20.986  24.123  0.5586  0.0310 -0.0479
 3003DPPC   C1B57729  19.032  22.099  23.789  0.2591  0.2559  0.0335
 3003DPPC   C2B57730  19.245  21.751  23.794  0.1475  0.0645  0.1936
 3003DPPC   C3B57731  19.139  21.350  23.904  0.1714  0.0730 -0.0836
 3003DPPC   C4B57732  19.018  21.045  24.167 -0.1130  0.3834  0.1870
 3004DPPC   NC357733  14.548  17.927  37.606 -0.0315  0.0437  0.3063
 3004DPPC   PO457734  14.751  18.173  37.343  0.0690 -0.2040  0.1093
 3004DPPC   GL157735  14.847  18.220  37.859 -0.1577 -0.2393 -0.2319
 3004DPPC   GL257736  14.615  18.446  38.009 -0.3100  0.0787 -0.0288
 3004DPPC   C1A57737  15.141  18.570  38.010  0.2180  0.0198 -0.3238
 3004DPPC   C2A57738  15.047  18.984  38.174  0.0808 -0.0235 -0.3230
 3004DPPC   C3A57739  15.136  19.396  37.944  0.1616 -0.0261  0.1311
 3004DPPC   C4A57740  15.182  19.886  38.164  0.0139  0.1366  0.0214
 3004DPPC   C1B57741  14.731  18.674  38.531  0.0453 -0.4133 -0.2046
 3004DPPC   C2B57742  15.128  18.832  38.671 -0.1849 -0.1649  0.1066
 3004DPPC   C3B57743  15.472  18.970  38.791 -0.1058 -0.0919 -0.2560
 3004DPPC   C4B57744  15.744  19.211  38.816  0.0658  0.3229 -0.1134
 3005DPPC   NC357745  20.318  15.382  15.554  0.4327 -0.1437 -0.2698
 3005DPPC   PO457746  20.712  15.497  15.580  0.2494 -0.1397 -0.0741
 3005DPPC   GL157747  20.526  15.395  16.030 -0.1797  0.4117  0.1992
 3005DPPC   GL257748  20.317  15.103  16.041 -0.0204 -0.1580  0.0752
 3005DPPC   C1A57749  20.379  15.400  16.497 -0.2270  0.0233  0.2098
 3005DPPC   C2A57750  20.168  15.303  16.875 -0.0500  0.2120  0.0839
 3005DPPC   C3A57751  20.139  14.973  17.224  0.3152 -0.1940 -0.0420
 3005DPPC   C4A57752  20.255  14.700  17.595  0.0235  0.3189  0.0927
 3005DPPC   C1B57753  20.253  14.932  16.440 -0.4394  0.0206  0.0330
 3005DPPC   C2B57754  20.093  14.484  16.632 -0.0062 -0.1968 -0.0290
 3005DPPC   C3B57755  20.018  14.420  17.100  0.0485 -0.0830 -0.0537
 3005DPPC   C4B57756  20.174  14.230  17.463  0.0833  0.1653  0.1052
 3006DPPC   NC357757  12.472  25.035  27.652  0.2799 -0.0193 -0.0786
 3006DPPC   PO457758  12.958  25.042  27.645 -0.2654  0.3773  0.0407
 3006DPPC   GL157759  13.201  24.745  27.517  0.0216 -0.0134 -0.3935
 3006DPPC   GL257760  13.124  24.540  27.220  0.2716  0.2707 -0.1595
 3006DPPC   C1A57761  13.561  24.538  27.669 -0.0518  0.2645 -0.0403
 3006DPPC   C2A57762  13.685  24.128  27.807 -0.0584 -0.3076  0.2869
 3006DPPC   C3A57763  13.706  23.741  27.752 -0.1315  0.0621 -0.1930
 3006DPPC   C4A57764  13.812  23.503  28.165  0.0856  0.0358  0.0497
 3006DPPC   C1B57765  13.155  24.268  27.531 -0.1773  0.2917  0.3098
 3006DPPC   C2B57766  13.374  23.930  27.403 -0.1277  0.1786 -0.0475
 3006DPPC   C3B57767  13.691  23.649  27.187 -0.0153 -0.1835 -0.2480
 3006DPPC   C4B57768  13.856  23.281  27.197  0.0869 -0.3287 -0.3089
 3007DPPC   NC357769  18.385  18.800  25.187  0.4412 -0.2316  0.0717
 3007DPPC   PO457770  18.683  18.468  25.255 -0.0359 -0.0067 -0.2029
 3007DPPC   GL157771  18.884  18.893  25.336  0.1493  0.1224 -0.2205
 3007DPPC   GL257772  18.950  18.851  24.945  0.2835  0.2037  0.0197
 3007DPPC   C1A57773  19.185  19.089  25.440 -0.0548 -0.3047  0.2140
 3007DPPC   C2A57774  19.324  19.464  25.720  0.4730 -0.0785 -0.1718
 3007DPPC   C3A57775  19.521  19.889  25.628  0.4770 -0.0687  0.1380
 3007DPPC   C4A57776  19.611  20.202  25.353 -0.1348 -0.0686 -0.2285
 3007DPPC   C1B57777  19.354  18.979  24.948  0.0615  0.2013  0.2295
 3007DPPC   C2B57778  19.730  19.173  25.135  0.0104  0.1241 -0.2227
 3007DPPC   C3B57779  19.772  19.520  25.405  0.1558  0.0160 -0.2181
 3007DPPC   C4B57780  20.019  19.938  25.563  0.2216  0.2831 -0.1550
 3008DPPC   NC357781  23.303  13.547  30.701  0.3277 -0.3232 -0.1574
 3008DPPC   PO457782  23.098  13.764  31.096  0.1958 -0.2701 -0.0518
 3008DPPC   GL157783  23.526  13.602  31.238  0.0225  0.1191 -0.0888
 3008DPPC   GL257784  23.565  13.569  31.576 -0.1822  0.2901 -0.0608
 3008DPPC   C1A57785  24.017  13.548  31.270 -0.0627 -0.0299 -0.1692
 3008DPPC   C2A57786  24.392  13.349  31.291 -0.4064  0.0801  0.1099
 3008DPPC   C3A57787  24.781  13.260  31.041  0.1868 -0.0725  0.0119
 3008DPPC   C4A57788  24.928  13.586  30.735 -0.0900 -0.1976 -0.2184
 3008DPPC   C1B57789  23.951  13.681  31.764 -0.1126 -0.0091 -0.1582
 3008DPPC   C2B57790  24.392  13.688  31.656  0.0034  0.0929 -0.1108
 3008DPPC   C3B57791  24.699  13.956  31.892  0.0302 -0.3453  0.2251
 3008DPPC   C4B57792  25.112  14.105  32.155 -0.0513  0.1707 -0.0867
 3009DPPC   NC357793  11.331   7.517  33.861  0.0646 -0.1457 -0.2506
 3009DPPC   PO457794  10.857   7.298  33.935  0.1937  0.1660  0.0471
 3009DPPC   GL157795  10.376   7.152  34.080  0.1531 -0.0505 -0.3586
 3009DPPC   GL257796  10.534   6.828  34.078  0.0487  0.1709 -0.0855
 3009DPPC   C1A57797   9.865   7.137  34.200 -0.1895  0.0788 -0.0788
 3009DPPC   C2A57798   9.425   7.037  34.179  0.0570  0.2815  0.0530
 3009DPPC   C3A57799   9.063   6.717  34.202  0.0868  0.0824  0.3736
 3009DPPC   C4A57800   8.924   6.392  34.177 -0.1251  0.2070 -0.0192
 3009DPPC   C1B57801   9.984   6.690  34.041  0.2433 -0.0843  0.0222
 3009DPPC   C2B57802   9.849   6.370  33.910 -0.1338  0.0430  0.2542
 3009DPPC   C3B57803   9.648   5.799  33.815 -0.2020  0.2572 -0.1886
 3009DPPC   C4B57804   9.500   5.526  34.279 -0.0070 -0.1114  0.1163
 3010DPPC   NC357805  23.446  20.860  34.140 -0.1803  0.1227 -0.0479
 3010DPPC   PO457806  23.220  21.169  33.749  0.1593  0.1308 -0.0350
 3010DPPC   GL157807  23.142  20.918  33.542 -0.0577  0.0695  0.1590
 3010DPPC   GL257808  23.496  20.780  33.349  0.0454  0.1206 -0.0254
 3010DPPC   C1A57809  22.771  20.576  33.540  0.1577  0.0381  0.0569
 3010DPPC   C2A57810  22.505  20.361  33.938  0.0860 -0.2758 -0.0446
 3010DPPC   C3A57811  22.592  20.132  34.254  0.4575  0.1680  0.2322
 3010DPPC   C4A57812  22.489  19.946  34.689 -0.0666 -0.1449  0.1991
 3010DPPC   C1B57813  23.197  20.350  33.340  0.0017  0.0771 -0.0992
 3010DPPC   C2B57814  23.122  20.023  33.062 -0.0803 -0.0615 -0.1489
 3010DPPC   C3B57815  22.787  19.692  32.987  0.1268  0.0214  0.0324
 3010DPPC   C4B57816  22.418  19.465  32.759 -0.1554 -0.2128  0.1121
 3011DPPC   NC357817  14.539   9.787  21.028  0.1411 -0.1943 -0.0525
 3011DPPC   PO457818  14.573   9.783  20.523  0.0507 -0.2370  0.4147
 3011DPPC   GL157819  14.472   9.932  20.057 -0.2082 -0.3336 -0.0026
 3011DPPC   GL257820  14.442   9.624  20.016  0.4573  0.0304 -0.1439
 3011DPPC   C1A57821  14.453  10.066  19.636 -0.0629  0.2796 -0.4277
 3011DPPC   C2A57822  14.299   9.966  19.250 -0.0171 -0.0277 -0.0695
 3011DPPC   C3A57823  14.085   9.816  18.895  0.0871 -0.2578 -0.7036
 3011DPPC   C4A57824  13.885   9.535  18.559 -0.1421 -0.1083  0.0374
 3011DPPC   C1B57825  14.243   9.634  19.688 -0.1836  0.2303 -0.0693
 3011DPPC   C2B57826  14.043   9.408  19.317  0.1282  0.0076 -0.0161
 3011DPPC   C3B57827  13.644   9.129  19.146 -0.0578 -0.3536 -0.0465
 3011DPPC   C4B57828  13.285   9.015  19.445  0.1085  0.2950 -0.0026
 3012DPPC   NC357829  14.526   8.598  21.787 -0.1280  0.1620 -0.1240
 3012DPPC   PO457830  14.646   8.731  21.313  0.4979 -0.1156 -0.2241
 3012DPPC   GL157831  14.699   8.454  20.990 -0.1780  0.2321  0.3605
 3012DPPC   GL257832  14.542   8.545  20.687  0.2010 -0.1877  0.2097
 3012DPPC   C1A57833  14.674   8.003  20.841 -0.0756 -0.2299  0.1640
 3012DPPC   C2A57834  14.844   7.695  20.488  0.1986  0.2967  0.1967
 3012DPPC   C3A57835  14.726   7.621  20.132 -0.0455 -0.1919 -0.0530
 3012DPPC   C4A57836  14.436   7.541  19.889 -0.2486  0.1582 -0.0958
 3012DPPC   C1B57837  14.624   8.289  20.276  0.1432  0.0468  0.1785
 3012DPPC   C2B57838  14.623   8.238  19.837 -0.1940  0.0800 -0.1665
 3012DPPC   C3B57839  14.578   7.925  19.505 -0.0311  0.1155  0.1734
 3012DPPC   C4B57840  14.639   7.595  19.291  0.1186 -0.0694  0.0986
 3013DPPC   NC357841  21.593  15.764  30.853 -0.1692 -0.2260  0.1544
 3013DPPC   PO457842  22.084  15.997  30.858  0.0118  0.1389 -0.1280
 3013DPPC   GL157843  22.489  16.185  31.001  0.2669  0.1094  0.2769
 3013DPPC   GL257844  22.694  16.075  31.205 -0.0805  0.1432  0.0621
 3013DPPC   C1A57845  22.816  16.518  31.015 -0.0208 -0.1802 -0.0441
 3013DPPC   C2A57846  23.185  16.549  30.933  0.0267 -0.1581 -0.2313
 3013DPPC   C3A57847  23.533  16.382  30.889  0.1681 -0.0141 -0.1808
 3013DPPC   C4A57848  23.908  16.439  30.816  0.1508 -0.0895  0.0025
 3013DPPC   C1B57849  23.134  16.022  31.339  0.1633 -0.0786  0.0488
 3013DPPC   C2B57850  23.386  16.226  31.522  0.0252 -0.2129  0.0375
 3013DPPC   C3B57851  23.778  16.219  31.355 -0.0566 -0.2871  0.2370
 3013DPPC   C4B57852  24.097  16.202  31.543  0.0288  0.4577  0.0215
 3014DPPC   NC357853  24.192   3.260  25.894 -0.0771 -0.1117 -0.0696
 3014DPPC   PO457854  24.194   3.326  26.386  0.2170 -0.1872 -0.1144
 3014DPPC   GL157855  23.995   3.654  26.444  0.1470 -0.1558  0.1872
 3014DPPC   GL257856  23.836   3.637  26.165 -0.3736 -0.0390  0.0557
 3014DPPC   C1A57857  23.990   4.105  26.537  0.4940 -0.1084 -0.0464
 3014DPPC   C2A57858  23.851   4.545  26.428  0.1300 -0.1609 -0.2994
 3014DPPC   C3A57859  23.771   4.922  26.516 -0.2441  0.3416 -0.1153
 3014DPPC   C4A57860  23.541   5.258  26.261 -0.0096 -0.0120 -0.0216
 3014DPPC   C1B57861  23.543   3.865  26.383 -0.1213  0.0567 -0.0778
 3014DPPC   C2B57862  23.242   4.343  26.416  0.1597  0.3579  0.0078
 3014DPPC   C3B57863  22.878   4.491  26.588  0.1437  0.0694  0.1908
 3014DPPC   C4B57864  22.643   4.830  26.528 -0.1269 -0.1699 -0.0798
 3015DPPC   NC357865  10.752   6.828  28.349  0.0527  0.0443  0.0056
 3015DPPC   PO457866  10.292   7.009  28.200 -0.0059 -0.0898 -0.2497
 3015DPPC   GL157867  10.138   6.816  28.548  0.1132 -0.0627 -0.1040
 3015DPPC   GL257868   9.863   6.946  28.350  0.3143 -0.3232  0.0734
 3015DPPC   C1A57869   9.920   6.431  28.533  0.2172  0.1449 -0.1696
 3015DPPC   C2A57870   9.563   6.310  28.742 -0.1561 -0.0347 -0.0556
 3015DPPC   C3A57871   9.148   6.031  28.897 -0.2415 -0.0706  0.1709
 3015DPPC   C4A57872   8.984   5.715  29.115 -0.0652 -0.3762 -0.1961
 3015DPPC   C1B57873   9.480   6.826  28.539 -0.1156 -0.0715 -0.1570
 3015DPPC   C2B57874   9.180   6.582  28.612  0.1829 -0.2661 -0.2134
 3015DPPC   C3B57875   9.017   6.272  28.518 -0.0672  0.1888 -0.0034
 3015DPPC   C4B57876   9.092   5.893  28.372 -0.0569  0.2295  0.0405
 3016DPPC   NC357877  26.594   7.080  25.404  0.0662  0.1354  0.2302
 3016DPPC   PO457878  26.407   6.639  25.320 -0.2243 -0.0201 -0.0097
 3016DPPC   GL157879  26.215   6.887  25.013  0.0921  0.0758 -0.1831
 3016DPPC   GL257880  26.151   7.181  25.096  0.0190 -0.0208 -0.3362
 3016DPPC   C1A57881  25.788   6.869  24.913 -0.1696  0.2045  0.0201
 3016DPPC   C2A57882  25.354   6.839  24.944  0.3058 -0.0769  0.0404
 3016DPPC   C3A57883  24.983   7.031  25.039 -0.3491  0.0815  0.1097
 3016DPPC   C4A57884  24.595   7.124  25.139 -0.0662  0.1234 -0.1260
 3016DPPC   C1B57885  25.935   7.151  25.491  0.1495 -0.0468 -0.1009
 3016DPPC   C2B57886  25.556   7.420  25.723  0.0147  0.0140  0.1068
 3016DPPC   C3B57887  25.183   7.551  25.943  0.1328 -0.0599 -0.2562
 3016DPPC   C4B57888  24.701   7.466  26.002  0.3938  0.2026  0.2608
 3017DPPC   NC357889  26.855   6.293  28.694 -0.1491  0.2601 -0.2705
 3017DPPC   PO457890  26.892   6.696  28.966 -0.1703 -0.1225 -0.0629
 3017DPPC   GL157891  26.494   6.654  29.062  0.0943  0.0436 -0.2889
 3017DPPC   GL257892  26.256   6.556  28.804  0.0461 -0.0213 -0.3332
 3017DPPC   C1A57893  26.082   6.866  29.121 -0.1696  0.0753  0.1154
 3017DPPC   C2A57894  25.680   7.130  29.265  0.0903 -0.1026 -0.0605
 3017DPPC   C3A57895  25.236   7.296  29.382  0.1240 -0.0773 -0.1029
 3017DPPC   C4A57896  25.025   7.705  29.367 -0.3669  0.0305 -0.0801
 3017DPPC   C1B57897  25.954   6.831  28.635  0.3480  0.0793  0.0289
 3017DPPC   C2B57898  25.673   7.109  28.663  0.0200  0.2654  0.2051
 3017DPPC   C3B57899  25.585   7.519  28.726  0.1970 -0.0855  0.1547
 3017DPPC   C4B57900  25.344   7.672  28.982 -0.0271 -0.0320 -0.0950
 3018DPPC   NC357901  18.474   9.820  19.362  0.1742  0.0371  0.0502
 3018DPPC   PO457902  18.806   9.678  19.650 -0.0465  0.1417 -0.4038
 3018DPPC   GL157903  18.626   9.359  19.544 -0.0976 -0.2902 -0.1806
 3018DPPC   GL257904  18.834   9.396  19.268 -0.1759  0.2686  0.0198
 3018DPPC   C1A57905  18.521   8.995  19.248  0.1971  0.4977 -0.0434
 3018DPPC   C2A57906  18.379   8.740  18.944 -0.0371  0.1731 -0.2385
 3018DPPC   C3A57907  18.308   8.547  18.646 -0.3155 -0.0088 -0.0437
 3018DPPC   C4A57908  18.170   8.313  18.212  0.0069  0.0389 -0.2039
 3018DPPC   C1B57909  18.885   9.042  18.939  0.2772 -0.0472 -0.2768
 3018DPPC   C2B57910  18.987   8.611  18.781 -0.1041 -0.4338  0.2302
 3018DPPC   C3B57911  19.120   8.289  18.505 -0.0160  0.0594 -0.0295
 3018DPPC   C4B57912  19.175   7.949  18.252 -0.2796 -0.1193 -0.3008
 3019DPPC   NC357913  18.725   4.584  26.697 -0.1655 -0.4824  0.0530
 3019DPPC   PO457914  19.151   4.571  26.504  0.0163  0.0417 -0.3044
 3019DPPC   GL157915  19.325   4.303  26.352  0.0235 -0.0048  0.1920
 3019DPPC   GL257916  19.615   4.259  26.458 -0.4034 -0.1359  0.0654
 3019DPPC   C1A57917  19.438   3.943  26.154 -0.0052 -0.0855  0.1242
 3019DPPC   C2A57918  19.508   3.446  26.141  0.1193 -0.3553 -0.1764
 3019DPPC   C3A57919  19.584   3.098  26.287 -0.0993 -0.0518 -0.1589
 3019DPPC   C4A57920  19.927   2.917  26.435  0.1783  0.2734 -0.0802
 3019DPPC   C1B57921  19.843   3.910  26.479 -0.2523  0.0806 -0.0217
 3019DPPC   C2B57922  19.968   3.505  26.745  0.0154  0.0003 -0.1087
 3019DPPC   C3B57923  19.987   3.122  26.897 -0.0506  0.1696 -0.2200
 3019DPPC   C4B57924  20.114   2.700  26.842 -0.1288  0.0913 -0.2880
 3020DPPC   NC357925  17.695   5.519  33.468  0.1284 -0.0485  0.2913
 3020DPPC   PO457926  17.521   5.264  33.874 -0.0957 -0.0371 -0.2308
 3020DPPC   GL157927  17.729   4.896  33.980  0.0239  0.0446 -0.1847
 3020DPPC   GL257928  17.890   4.786  33.797 -0.3806 -0.1518  0.0807
 3020DPPC   C1A57929  17.754   4.496  34.252 -0.1846 -0.4071  0.0492
 3020DPPC   C2A57930  17.744   4.051  34.467 -0.1267 -0.3278 -0.1827
 3020DPPC   C3A57931  17.699   3.586  34.556  0.0568 -0.2768 -0.0978
 3020DPPC   C4A57932  17.347   3.405  34.804 -0.0452 -0.0072  0.1396
 3020DPPC   C1B57933  18.214   4.534  34.068 -0.0431  0.0514  0.2283
 3020DPPC   C2B57934  18.221   4.181  34.267  0.5279  0.2126 -0.0824
 3020DPPC   C3B57935  18.396   3.740  34.414 -0.2675  0.4976 -0.4344
 3020DPPC   C4B57936  18.166   3.368  34.548 -0.0204  0.1573 -0.1332
 3021DPPC   NC357937  19.713  18.987  31.768 -0.0472  0.0594 -0.2303
 3021DPPC   PO457938  19.809  19.056  32.077  0.0041 -0.1413  0.1282
 3021DPPC   GL157939  20.065  19.282  32.082  0.0298  0.2720 -0.0340
 3021DPPC   GL257940  19.986  19.429  31.754  0.3871  0.3322  0.1419
 3021DPPC   C1A57941  20.335  19.741  32.120 -0.0599  0.0475  0.0007
 3021DPPC   C2A57942  20.288  20.205  32.269  0.0436 -0.3896 -0.0618
 3021DPPC   C3A57943  20.167  20.602  32.527  0.1960  0.4825  0.1992
 3021DPPC   C4A57944  20.307  20.822  32.876  0.0948  0.0638 -0.4600
 3021DPPC   C1B57945  20.251  19.766  31.651  0.2964  0.0915  0.0343
 3021DPPC   C2B57946  20.615  20.065  31.856  0.0841  0.1153 -0.3338
 3021DPPC   C3B57947  20.980  20.003  31.780 -0.0058  0.0587  0.0180
 3021DPPC   C4B57948  21.179  19.970  31.403  0.0641  0.2514 -0.1793
 3022DPPC   NC357949  23.251  17.994  22.720 -0.0542  0.0102 -0.1176
 3022DPPC   PO457950  22.941  18.226  22.750 -0.1476  0.1170  0.1443
 3022DPPC   GL157951  22.557  18.080  22.525 -0.1039 -0.2466 -0.0139
 3022DPPC   GL257952  22.425  18.358  22.386  0.1721 -0.1573  0.1503
 3022DPPC   C1A57953  22.430  17.685  22.382 -0.2645  0.2388  0.0149
 3022DPPC   C2A57954  22.571  17.282  22.465 -0.2577  0.1826  0.3013
 3022DPPC   C3A57955  22.431  16.899  22.601 -0.1643 -0.0259  0.1036
 3022DPPC   C4A57956  22.368  16.544  22.410 -0.4855 -0.1665  0.1588
 3022DPPC   C1B57957  22.004  18.242  22.467 -0.2484 -0.0466  0.2568
 3022DPPC   C2B57958  21.604  18.121  22.724 -0.3070 -0.1189 -0.0056
 3022DPPC   C3B57959  21.299  17.822  22.853 -0.0736  0.1430  0.1947
 3022DPPC   C4B57960  21.133  17.685  23.207 -0.0901  0.0107  0.0779
 3023DPPC   NC357961  12.295  14.457  38.479  0.0483 -0.0148 -0.3216
 3023DPPC   PO457962  12.218  14.890  38.545 -0.1051 -0.2553 -0.0227
 3023DPPC   GL157963  11.866  15.138  38.699  0.4225  0.1322  0.1735
 3023DPPC   GL257964  11.802  15.126  39.059 -0.2167  0.4248 -0.1266
 3023DPPC   C1A57965  11.433  15.308  38.848  0.0187 -0.1010 -0.1160
 3023DPPC   C2A57966  11.256  15.552  39.137  0.2399 -0.0439 -0.2125
 3023DPPC   C3A57967  10.801  15.580  39.310 -0.0635  0.1464  0.1308
 3023DPPC   C4A57968  10.502  15.390  39.328  0.3353  0.0887 -0.3716
 3023DPPC   C1B57969  11.614  15.317  39.466 -0.1752 -0.5465  0.0842
 3023DPPC   C2B57970  11.446  15.817  39.560 -0.0650  0.0602 -0.0982
 3023DPPC   C3B57971  11.356  16.170  39.811 -0.2184  0.0115  0.0183
 3023DPPC   C4B57972  11.625  16.432  40.108 -0.0939  0.2632 -0.1993
 3024DPPC   NC357973  11.132   6.286  33.244  0.2059 -0.0626  0.1725
 3024DPPC   PO457974  11.364   6.204  33.563  0.0725 -0.0185  0.2222
 3024DPPC   GL157975  11.371   6.064  33.859  0.1612 -0.0736  0.3321
 3024DPPC   GL257976  10.977   5.974  33.841 -0.0014  0.0013  0.3015
 3024DPPC   C1A57977  11.327   5.752  34.020  0.0474 -0.0971  0.0074
 3024DPPC   C2A57978  11.067   5.507  33.949  0.2239 -0.1786 -0.2535
 3024DPPC   C3A57979  11.040   5.119  33.683  0.0686  0.1260 -0.1122
 3024DPPC   C4A57980  11.127   4.806  33.427 -0.0946 -0.0773 -0.1929
 3024DPPC   C1B57981  10.617   5.697  33.968 -0.3495  0.0296 -0.3678
 3024DPPC   C2B57982  10.424   5.312  34.145  0.2985 -0.1841  0.0788
 3024DPPC   C3B57983  10.649   4.978  34.301  0.1296 -0.1723 -0.0254
 3024DPPC   C4B57984  11.033   5.002  34.636  0.3763 -0.1780  0.1579
 3025DPPC   NC357985  14.855   9.142  44.107 -0.1105 -0.1327  0.0839
 3025DPPC   PO457986  14.767   9.542  44.137 -0.1703 -0.0208  0.2516
 3025DPPC   GL157987  14.731   9.533  43.711  0.3834 -0.1299  0.0065
 3025DPPC   GL257988  14.700   9.800  43.610 -0.1048  0.0393 -0.0592
 3025DPPC   C1A57989  14.546   9.315  43.262 -0.0340 -0.2209 -0.1544
 3025DPPC   C2A57990  14.459   9.163  42.832  0.5340  0.2323 -0.0067
 3025DPPC   C3A57991  14.613   9.102  42.486 -0.1237 -0.0293  0.1834
 3025DPPC   C4A57992  14.582   8.901  42.019 -0.1099 -0.1025 -0.1451
 3025DPPC   C1B57993  14.752   9.790  43.110 -0.2446 -0.1458  0.2738
 3025DPPC   C2B57994  14.586   9.774  42.662  0.0394  0.2093 -0.0423
 3025DPPC   C3B57995  14.566   9.913  42.280  0.1284  0.0380 -0.0685
 3025DPPC   C4B57996  14.738   9.842  42.010  0.2407  0.0264  0.0441
 3026DPPC   NC357997  16.793  19.233  28.863  0.0406 -0.1542 -0.2676
 3026DPPC   PO457998  17.091  19.621  28.747 -0.0782 -0.0142  0.1721
 3026DPPC   GL157999  17.436  19.992  28.744 -0.0864  0.0622 -0.0931
 3026DPPC   GL258000  17.427  20.155  28.416 -0.2279  0.2328  0.2242
 3026DPPC   C1A58001  17.866  20.111  28.640 -0.2010 -0.0100  0.3150
 3026DPPC   C2A58002  18.078  20.439  28.432 -0.0967  0.1484  0.1430
 3026DPPC   C3A58003  18.306  20.678  28.060 -0.0758 -0.1070 -0.0294
 3026DPPC   C4A58004  18.600  20.745  27.653 -0.1429  0.0610 -0.0658
 3026DPPC   C1B58005  17.583  20.608  28.464  0.1135  0.0087 -0.0899
 3026DPPC   C2B58006  17.812  20.884  28.362  0.1307  0.1225 -0.2898
 3026DPPC   C3B58007  18.112  21.142  28.286 -0.0603  0.1672  0.0959
 3026DPPC   C4B58008  18.633  21.364  28.342 -0.1738  0.0498 -0.0814
 3027DPPC   NC358009   9.050  21.786  37.711 -0.0490 -0.0804  0.2374
 3027DPPC   PO458010   9.432  21.927  37.421 -0.2904 -0.2068 -0.0843
 3027DPPC   GL158011   9.663  21.632  37.224 -0.2827  0.2109 -0.4922
 3027DPPC   GL258012   9.794  21.746  36.939  0.2832  0.0403  0.0311
 3027DPPC   C1A58013   9.896  21.288  37.039 -0.1215  0.2042  0.2811
 3027DPPC   C2A58014   9.965  20.833  36.800 -0.1691 -0.1227  0.0399
 3027DPPC   C3A58015   9.942  20.375  36.712  0.0386  0.4082 -0.0419
 3027DPPC   C4A58016   9.853  20.061  36.390  0.1115  0.0264  0.0874
 3027DPPC   C1B58017   9.513  21.362  36.766 -0.1756 -0.2934 -0.1690
 3027DPPC   C2B58018   9.570  21.014  36.551 -0.1393 -0.1706  0.1489
 3027DPPC   C3B58019   9.563  20.504  36.392 -0.0502 -0.0269  0.1356
 3027DPPC   C4B58020   9.415  20.281  36.678  0.5293 -0.0800  0.1234
 3028DPPC   NC358021  24.586  20.079  34.513  0.2164  0.0583  0.0598
 3028DPPC   PO458022  24.777  19.784  34.265  0.1551 -0.0907  0.2267
 3028DPPC   GL158023  24.396  19.686  34.097  0.1736  0.3579 -0.1001
 3028DPPC   GL258024  24.175  19.913  34.294 -0.1585  0.0492 -0.0352
 3028DPPC   C1A58025  23.930  19.509  34.010 -0.1789  0.0931 -0.0731
 3028DPPC   C2A58026  23.599  19.426  33.822  0.0127 -0.0814 -0.0679
 3028DPPC   C3A58027  23.084  19.272  33.791 -0.0719 -0.4690 -0.4588
 3028DPPC   C4A58028  22.733  19.139  34.079 -0.0092 -0.0330  0.1879
 3028DPPC   C1B58029  23.659  19.707  34.332  0.1751  0.1854 -0.1546
 3028DPPC   C2B58030  23.387  19.269  34.258  0.0939  0.2125 -0.3610
 3028DPPC   C3B58031  23.156  18.779  34.268  0.1088 -0.3322  0.1496
 3028DPPC   C4B58032  23.017  18.405  34.535  0.0551 -0.0042  0.0764
 3029DPPC   NC358033  17.530  23.764  23.963  0.0315 -0.0058  0.1114
 3029DPPC   PO458034  17.794  23.721  23.547  0.1700  0.1583 -0.2978
 3029DPPC   GL158035  17.959  23.289  23.598 -0.0068 -0.0562  0.6595
 3029DPPC   GL258036  17.708  23.180  23.723  0.0805 -0.1122  0.0446
 3029DPPC   C1A58037  18.163  22.895  23.569 -0.0998  0.0753 -0.1145
 3029DPPC   C2A58038  18.483  22.585  23.669  0.1783  0.0526  0.0068
 3029DPPC   C3A58039  18.501  22.158  23.815 -0.0158 -0.0107 -0.2462
 3029DPPC   C4A58040  18.246  21.818  23.901 -0.2796 -0.2035 -0.0478
 3029DPPC   C1B58041  17.889  22.931  24.005  0.2969 -0.2436  0.0049
 3029DPPC   C2B58042  17.709  22.637  24.191 -0.0994  0.0617 -0.0162
 3029DPPC   C3B58043  17.678  22.355  24.573 -0.0826  0.0167 -0.0647
 3029DPPC   C4B58044  17.569  22.456  24.954  0.1151  0.0501  0.1158
 3030DPPC   NC358045  16.956  14.845  15.108 -0.2056  0.1559  0.0939
 3030DPPC   PO458046  16.874  15.238  15.286 -0.5572  0.1043 -0.1302
 3030DPPC   GL158047  16.932  15.197  15.749 -0.2146 -0.1788 -0.0072
 3030DPPC   GL258048  17.005  15.510  15.868  0.1677 -0.4407 -0.1338
 3030DPPC   C1A58049  16.695  14.941  15.974  0.2088 -0.0715  0.0668
 3030DPPC   C2A58050  16.458  15.213  16.284  0.0736  0.2573  0.0116
 3030DPPC   C3A58051  16.354  15.338  16.613 -0.0701  0.1974 -0.0248
 3030DPPC   C4A58052  16.109  15.139  16.907  0.3074 -0.0373  0.2137
 3030DPPC   C1B58053  16.869  15.412  16.314 -0.3732 -0.0326 -0.0594
 3030DPPC   C2B58054  16.830  15.571  16.666 -0.1778  0.2899  0.0169
 3030DPPC   C3B58055  16.927  15.443  17.118 -0.3195  0.1434  0.1396
 3030DPPC   C4B58056  17.128  15.151  17.471  0.3680 -0.0715 -0.2566
 3031DPPC   NC358057  20.059   9.195  20.295 -0.0036 -0.4017 -0.1918
 3031DPPC   PO458058  20.049   8.813  20.534 -0.3394  0.1296  0.2376
 3031DPPC   GL158059  20.199   8.645  20.260 -0.0979 -0.0983 -0.0048
 3031DPPC   GL258060  20.321   8.872  20.065  0.0801  0.5848 -0.0709
 3031DPPC   C1A58061  20.247   8.418  19.815  0.0065  0.2438  0.0492
 3031DPPC   C2A58062  20.637   8.172  19.737  0.2796 -0.1917  0.0777
 3031DPPC   C3A58063  20.924   7.875  19.821 -0.1403 -0.2997  0.1312
 3031DPPC   C4A58064  21.345   7.711  19.874  0.1167  0.1233 -0.0562
 3031DPPC   C1B58065  20.677   8.740  19.847  0.0354  0.0896 -0.1403
 3031DPPC   C2B58066  20.767   8.534  19.425 -0.0542 -0.1711 -0.0228
 3031DPPC   C3B58067  20.587   8.467  19.025 -0.0046 -0.1632 -0.2879
 3031DPPC   C4B58068  20.531   7.994  18.954  0.0143  0.2024 -0.0263
 3032DPPC   NC358069   7.395  12.442  30.229  0.2529 -0.4172  0.0099
 3032DPPC   PO458070   7.494  12.159  29.949 -0.0905 -0.0862  0.0352
 3032DPPC   GL158071   7.162  11.953  30.032 -0.1174  0.1976 -0.1980
 3032DPPC   GL258072   6.964  12.200  30.130  0.0387 -0.2564 -0.0949
 3032DPPC   C1A58073   6.936  11.709  29.884 -0.1504 -0.0616 -0.4100
 3032DPPC   C2A58074   6.526  11.605  29.729 -0.4041  0.4490  0.1386
 3032DPPC   C3A58075   6.343  11.484  29.314  0.0379 -0.2651 -0.0769
 3032DPPC   C4A58076   6.367  11.246  28.964 -0.0029 -0.1400 -0.2320
 3032DPPC   C1B58077   6.674  12.291  29.900  0.1337  0.0310  0.2687
 3032DPPC   C2B58078   6.191  12.118  29.918 -0.0929 -0.2518 -0.1006
 3032DPPC   C3B58079   5.679  12.079  29.798  0.3179  0.0563  0.2999
 3032DPPC   C4B58080   5.387  12.291  30.051  0.0814 -0.0608  0.2195
 3033DPPC   NC358081  17.332  10.561  44.035 -0.0309 -0.0737 -0.2718
 3033DPPC   PO458082  17.701  10.342  43.823 -0.0699  0.0979  0.1413
 3033DPPC   GL158083  17.888  10.244  43.375 -0.0726 -0.2635 -0.2566
 3033DPPC   GL258084  17.784  10.563  43.346  0.2916  0.2521  0.0709
 3033DPPC   C1A58085  18.129  10.281  43.018 -0.1319 -0.0261  0.0939
 3033DPPC   C2A58086  18.279  10.421  42.570  0.6014 -0.0692 -0.1294
 3033DPPC   C3A58087  18.343  10.625  42.198  0.3742 -0.2743 -0.0215
 3033DPPC   C4A58088  18.608  10.591  41.845 -0.1582 -0.0694  0.1660
 3033DPPC   C1B58089  17.746  10.636  42.875 -0.1095 -0.0441  0.0335
 3033DPPC   C2B58090  17.738  10.639  42.458 -0.1988  0.2061  0.1238
 3033DPPC   C3B58091  17.769  10.737  42.035  0.1231  0.0679  0.1233
 3033DPPC   C4B58092  18.051  10.725  41.673 -0.3642 -0.0001  0.0030
 3034DPPC   NC358093  25.232  17.826  36.820 -0.0920  0.1757 -0.3360
 3034DPPC   PO458094  25.537  17.986  36.590 -0.2439  0.0488  0.4212
 3034DPPC   GL158095  25.454  17.768  36.329  0.0054  0.2284 -0.2384
 3034DPPC   GL258096  25.375  17.786  36.032  0.1998 -0.0882  0.1259
 3034DPPC   C1A58097  25.138  17.302  36.276  0.0357  0.0262  0.0984
 3034DPPC   C2A58098  24.770  17.227  36.470  0.3212  0.0260  0.2449
 3034DPPC   C3A58099  24.278  17.161  36.484  0.1466  0.2353  0.0583
 3034DPPC   C4A58100  23.900  17.017  36.239 -0.0220  0.4083  0.2000
 3034DPPC   C1B58101  25.013  17.891  35.961 -0.1659 -0.5663  0.1652
 3034DPPC   C2B58102  24.621  17.646  36.021 -0.1414  0.2280  0.0294
 3034DPPC   C3B58103  24.426  17.600  35.727  0.0373 -0.1634  0.2402
 3034DPPC   C4B58104  24.138  17.511  35.546 -0.0594  0.0008  0.3217
 3035DPPC   NC358105  21.872   0.782  30.031 -0.0428  0.1751  0.0218
 3035DPPC   PO458106  22.156   0.997  30.194 -0.0507  0.2404  0.0810
 3035DPPC   GL158107  22.005   1.405  30.413  0.0848 -0.1509  0.3318
 3035DPPC   GL258108  21.679   1.467  30.346  0.0473  0.0493 -0.0024
 3035DPPC   C1A58109  21.963   1.798  30.581  0.0293  0.1245  0.2546
 3035DPPC   C2A58110  21.912   2.248  30.720  0.1620  0.0778 -0.0486
 3035DPPC   C3A58111  21.846   2.706  30.662  0.1717  0.4746  0.0243
 3035DPPC   C4A58112  21.881   2.888  30.291  0.1775 -0.2485  0.0972
 3035DPPC   C1B58113  21.345   1.742  30.228 -0.2337 -0.0617  0.0456
 3035DPPC   C2B58114  21.137   2.143  30.305  0.1254 -0.0918  0.0992
 3035DPPC   C3B58115  20.985   2.526  30.103  0.1272  0.2514 -0.0465
 3035DPPC   C4B58116  21.000   2.957  29.721  0.1030 -0.1870  0.1081
 3036DPPC   NC358117  19.176  13.038  18.759 -0.1476  0.1613 -0.1386
 3036DPPC   PO458118  19.390  13.471  18.818  0.0787 -0.1389 -0.2409
 3036DPPC   GL158119  19.677  13.627  18.495  0.0373 -0.0708  0.0750
 3036DPPC   GL258120  19.832  13.831  18.760  0.0324  0.0659 -0.1536
 3036DPPC   C1A58121  19.831  13.742  18.120  0.3127 -0.0492 -0.3589
 3036DPPC   C2A58122  19.828  13.857  17.654 -0.2695 -0.0054 -0.2947
 3036DPPC   C3A58123  19.825  13.513  17.284 -0.0278 -0.3539 -0.0037
 3036DPPC   C4A58124  19.804  13.119  17.243  0.1184  0.0999  0.2170
 3036DPPC   C1B58125  19.657  14.118  18.421  0.1724  0.2316 -0.0866
 3036DPPC   C2B58126  19.476  14.407  18.062  0.2041  0.1784  0.0095
 3036DPPC   C3B58127  19.221  14.529  17.726 -0.0258 -0.0112 -0.0349
 3036DPPC   C4B58128  18.927  14.437  17.395  0.0972 -0.2914  0.0028
 3037DPPC   NC358129  10.814   1.423  31.310 -0.3709  0.2892  0.4568
 3037DPPC   PO458130  10.559   1.523  31.065  0.0032  0.3991  0.1217
 3037DPPC   GL158131  10.443   1.876  30.888  0.0661 -0.0289 -0.2331
 3037DPPC   GL258132  10.782   1.958  30.893 -0.0465 -0.0243 -0.4231
 3037DPPC   C1A58133  10.370   2.290  30.667  0.0111  0.3062  0.1434
 3037DPPC   C2A58134  10.391   2.630  30.369  0.0661  0.0704 -0.1237
 3037DPPC   C3A58135  10.430   3.093  30.526  0.0009  0.0689 -0.0991
 3037DPPC   C4A58136  10.485   3.419  30.824 -0.1847  0.0684  0.0949
 3037DPPC   C1B58137  10.822   2.111  30.522 -0.0343 -0.0045  0.3364
 3037DPPC   C2B58138  10.873   2.532  30.763  0.2718 -0.1010  0.2552
 3037DPPC   C3B58139  10.886   3.012  30.694  0.0218  0.0075  0.0364
 3037DPPC   C4B58140  10.967   3.451  30.765  0.0171 -0.1258 -0.1237
 3038DPPC   NC358141  24.365  16.331  22.899 -0.0172 -0.0168  0.3377
 3038DPPC   PO458142  24.076  16.457  22.577  0.0697  0.1110  0.3737
 3038DPPC   GL158143  23.837  16.212  22.677  0.1947 -0.1522 -0.0552
 3038DPPC   GL258144  24.025  15.969  22.772  0.2167 -0.0998  0.1909
 3038DPPC   C1A58145  23.397  16.106  22.812 -0.0479 -0.2826  0.0851
 3038DPPC   C2A58146  22.937  16.147  22.668 -0.1905  0.0339  0.0135
 3038DPPC   C3A58147  22.552  16.090  22.535 -0.2450 -0.1628 -0.1224
 3038DPPC   C4A58148  22.442  15.676  22.387  0.2100 -0.2649 -0.0237
 3038DPPC   C1B58149  23.756  15.668  22.610  0.0549 -0.0143  0.0125
 3038DPPC   C2B58150  23.446  15.456  22.666  0.3842 -0.1291  0.0138
 3038DPPC   C3B58151  23.288  15.168  23.081  0.1896 -0.3993 -0.3436
 3038DPPC   C4B58152  23.192  15.427  23.545  0.0867  0.2580  0.0564
 3039DPPC   NC358153  14.712  12.515  19.651  0.0391 -0.1972  0.1015
 3039DPPC   PO458154  15.090  12.903  19.647  0.0739  0.1285  0.2237
 3039DPPC   GL158155  14.987  13.123  19.287  0.2101 -0.0491 -0.0937
 3039DPPC   GL258156  15.254  13.493  19.144  0.1761  0.1419 -0.0807
 3039DPPC   C1A58157  14.696  13.028  18.941 -0.1636  0.3346 -0.0684
 3039DPPC   C2A58158  14.450  12.962  18.623 -0.1419  0.2626 -0.0065
 3039DPPC   C3A58159  14.248  12.788  18.290  0.0620 -0.2377  0.0254
 3039DPPC   C4A58160  14.155  12.421  18.022 -0.0505  0.0499 -0.1282
 3039DPPC   C1B58161  14.912  13.544  18.858  0.2323  0.2523  0.0334
 3039DPPC   C2B58162  14.662  13.429  18.539 -0.5012  0.3434 -0.2397
 3039DPPC   C3B58163  14.421  13.277  18.182 -0.0531  0.1430 -0.3528
 3039DPPC   C4B58164  14.356  13.215  17.786  0.0565  0.2005 -0.0678
 3040DPPC   NC358165  16.392   9.631  15.172 -0.3026 -0.2736  0.2378
 3040DPPC   PO458166  15.948   9.563  15.422  0.0458 -0.1570  0.0613
 3040DPPC   GL158167  15.872   9.359  15.825  0.0582  0.2439  0.0613
 3040DPPC   GL258168  16.036   9.577  15.963  0.0817 -0.4347  0.0838
 3040DPPC   C1A58169  15.717   9.116  16.219  0.1907 -0.1814  0.0066
 3040DPPC   C2A58170  15.706   8.761  16.543 -0.2939  0.0829  0.3201
 3040DPPC   C3A58171  15.869   8.487  16.804 -0.0058 -0.1086 -0.2434
 3040DPPC   C4A58172  16.041   8.115  16.788  0.4230 -0.1095  0.1217
 3040DPPC   C1B58173  16.114   9.462  16.265  0.2820  0.3543 -0.2043
 3040DPPC   C2B58174  16.323   9.535  16.720  0.2962  0.3263 -0.1848
 3040DPPC   C3B58175  16.244   9.932  17.009 -0.1384 -0.2205  0.2257
 3040DPPC   C4B58176  16.550  10.324  17.027  0.2183 -0.2829 -0.1950
 3041DPPC   NC358177  13.549   3.941  40.504  0.0028  0.1470  0.2990
 3041DPPC   PO458178  13.338   3.878  40.178 -0.1548  0.1726  0.0478
 3041DPPC   GL158179  13.290   4.336  40.041 -0.0757  0.2579  0.2866
 3041DPPC   GL258180  13.063   4.331  39.826 -0.2453  0.1001  0.0515
 3041DPPC   C1A58181  13.272   4.805  39.946  0.2650 -0.1187 -0.1715
 3041DPPC   C2A58182  13.413   5.015  39.564 -0.1058 -0.3124 -0.2882
 3041DPPC   C3A58183  13.748   5.070  39.223  0.2538 -0.1146 -0.3680
 3041DPPC   C4A58184  13.833   5.554  39.135  0.2894  0.4582  0.2040
 3041DPPC   C1B58185  13.057   4.627  39.533 -0.2138  0.0529  0.1320
 3041DPPC   C2B58186  12.784   4.927  39.322 -0.0538 -0.1229 -0.0460
 3041DPPC   C3B58187  12.567   4.882  39.100 -0.2185  0.3458 -0.0561
 3041DPPC   C4B58188  12.347   5.061  38.675 -0.0115 -0.4512  0.1454
 3042DPPC   NC358189  20.437   7.353  42.186  0.2348 -0.2298 -0.1777
 3042DPPC   PO458190  19.967   7.280  42.336  0.1131  0.1745 -0.0380
 3042DPPC   GL158191  19.989   7.514  42.038 -0.0388 -0.2093 -0.0196
 3042DPPC   GL258192  19.806   7.439  41.770  0.2992 -0.1372  0.0129
 3042DPPC   C1A58193  20.195   7.736  41.601 -0.1567 -0.4015 -0.1059
 3042DPPC   C2A58194  20.160   7.916  41.268 -0.0805 -0.1598  0.2371
 3042DPPC   C3A58195  19.677   8.106  41.104  0.2563  0.0335 -0.2759
 3042DPPC   C4A58196  19.301   7.970  40.878 -0.1506 -0.0713  0.1087
 3042DPPC   C1B58197  19.748   7.571  41.357 -0.0413 -0.1351  0.2031
 3042DPPC   C2B58198  19.665   7.557  40.865 -0.3462 -0.0929 -0.0735
 3042DPPC   C3B58199  19.847   7.572  40.451  0.1591  0.0774 -0.1403
 3042DPPC   C4B58200  19.755   7.651  40.131 -0.1556 -0.1262 -0.3685
 3043DPPC   NC358201  17.913  10.273  25.431  0.0836 -0.3181 -0.2769
 3043DPPC   PO458202  17.737  10.271  25.819  0.1068  0.1461  0.0690
 3043DPPC   GL158203  17.780  10.650  25.752  0.2181  0.0970 -0.0102
 3043DPPC   GL258204  17.923  10.777  26.018  0.0954  0.0207 -0.3348
 3043DPPC   C1A58205  17.403  10.911  25.755 -0.5120 -0.0560 -0.0815
 3043DPPC   C2A58206  17.082  11.185  25.463  0.0050 -0.2420  0.0998
 3043DPPC   C3A58207  16.809  11.532  25.380 -0.0647  0.0236 -0.2445
 3043DPPC   C4A58208  17.086  11.903  25.262 -0.1795  0.0655  0.0025
 3043DPPC   C1B58209  18.054  10.934  26.355 -0.2039  0.1380 -0.3013
 3043DPPC   C2B58210  18.372  11.234  26.502  0.1832  0.0197  0.0874
 3043DPPC   C3B58211  18.445  11.702  26.421  0.1123  0.0936 -0.1987
 3043DPPC   C4B58212  18.903  11.885  26.591 -0.3164  0.2942 -0.1055
 3044DPPC   NC358213  21.603   6.146  27.400 -0.0768  0.1359 -0.1094
 3044DPPC   PO458214  21.920   6.264  27.000 -0.2584  0.1159 -0.1211
 3044DPPC   GL158215  22.279   6.126  26.964 -0.1915 -0.1533 -0.0095
 3044DPPC   GL258216  22.334   5.868  27.121  0.0533 -0.0723 -0.0355
 3044DPPC   C1A58217  22.697   6.179  26.896 -0.2217 -0.0189  0.0681
 3044DPPC   C2A58218  22.992   5.977  26.550  0.1687  0.1485  0.3004
 3044DPPC   C3A58219  23.093   5.595  26.513 -0.1875  0.2316  0.0805
 3044DPPC   C4A58220  23.330   5.210  26.703  0.1195  0.0789 -0.0535
 3044DPPC   C1B58221  22.488   5.414  27.259 -0.0066 -0.1961 -0.2516
 3044DPPC   C2B58222  22.722   5.051  27.502 -0.0055  0.0246  0.1681
 3044DPPC   C3B58223  22.901   4.699  27.526 -0.3943  0.2648 -0.0670
 3044DPPC   C4B58224  23.270   4.719  27.733  0.1019 -0.0147 -0.1303
 3045DPPC   NC358225   4.099  16.624  27.255  0.1995 -0.0548  0.1222
 3045DPPC   PO458226   4.333  16.737  26.978  0.1619 -0.1416 -0.1826
 3045DPPC   GL158227   4.699  16.705  27.255  0.0654 -0.1587 -0.2139
 3045DPPC   GL258228   4.677  16.985  27.564  0.0237 -0.1785 -0.1306
 3045DPPC   C1A58229   5.099  16.783  27.205 -0.0224  0.1117 -0.3627
 3045DPPC   C2A58230   5.429  16.473  27.088  0.0444 -0.0823 -0.3364
 3045DPPC   C3A58231   5.681  16.069  27.089 -0.3052 -0.0758 -0.5303
 3045DPPC   C4A58232   6.158  15.914  27.077  0.0368  0.2164  0.0384
 3045DPPC   C1B58233   4.999  16.659  27.664  0.2025 -0.0097 -0.1829
 3045DPPC   C2B58234   5.436  16.624  27.604  0.0734  0.0566 -0.2188
 3045DPPC   C3B58235   5.842  16.620  27.444  0.1031 -0.0178  0.1507
 3045DPPC   C4B58236   5.950  17.064  27.526  0.2302  0.1689  0.1354
 3046DPPC   NC358237  18.585  22.878  36.741 -0.1184  0.1893  0.2645
 3046DPPC   PO458238  18.591  22.693  37.070 -0.1934  0.0162  0.2812
 3046DPPC   GL158239  18.252  22.522  36.805  0.3455  0.0177 -0.1014
 3046DPPC   GL258240  18.440  22.258  36.902  0.1939  0.3074 -0.1327
 3046DPPC   C1A58241  18.005  22.490  36.326 -0.1477 -0.1433  0.0369
 3046DPPC   C2A58242  17.813  22.297  35.913  0.4570  0.0358  0.0423
 3046DPPC   C3A58243  17.538  22.088  35.645  0.2867  0.0282  0.3460
 3046DPPC   C4A58244  17.627  21.630  35.380 -0.0007  0.0593 -0.0850
 3046DPPC   C1B58245  18.101  21.918  36.776  0.2094 -0.0058  0.1339
 3046DPPC   C2B58246  17.790  21.525  36.720 -0.0119  0.1901 -0.2419
 3046DPPC   C3B58247  17.862  21.544  36.235 -0.1099  0.1063  0.2173
 3046DPPC   C4B58248  17.924  21.765  35.863  0.1967 -0.0801  0.2160
 3047DPPC   NC358249  14.372   0.923  24.771 -0.0350 -0.1562  0.0588
 3047DPPC   PO458250  14.279   1.022  24.303  0.1828  0.0597  0.4993
 3047DPPC   GL158251  14.356   1.382  24.516 -0.1128 -0.2912 -0.3615
 3047DPPC   GL258252  14.100   1.615  24.534 -0.1985  0.0613 -0.3640
 3047DPPC   C1A58253  14.522   1.828  24.642 -0.1082  0.0084 -0.0111
 3047DPPC   C2A58254  14.550   2.192  24.947  0.3177  0.0347 -0.0849
 3047DPPC   C3A58255  14.424   2.366  25.307  0.1250  0.0209  0.2140
 3047DPPC   C4A58256  14.587   2.550  25.699 -0.2425 -0.0294 -0.0399
 3047DPPC   C1B58257  14.072   2.079  24.715  0.1326 -0.1855  0.0342
 3047DPPC   C2B58258  14.149   2.575  24.893 -0.1143 -0.1402  0.1513
 3047DPPC   C3B58259  14.234   2.986  24.823  0.0294  0.3019 -0.3409
 3047DPPC   C4B58260  14.447   3.286  24.982  0.0261 -0.1346 -0.0644
 3048DPPC   NC358261  11.022  24.395  34.046 -0.3742 -0.3863 -0.0374
 3048DPPC   PO458262  11.440  24.304  34.155  0.0531 -0.2758 -0.0286
 3048DPPC   GL158263  11.506  23.814  34.056 -0.1906 -0.0031  0.1277
 3048DPPC   GL258264  11.509  23.515  34.233 -0.1341  0.0021 -0.3235
 3048DPPC   C1A58265  11.486  23.437  33.789  0.0069 -0.1812  0.1296
 3048DPPC   C2A58266  11.687  23.057  33.506  0.2216 -0.2283 -0.1031
 3048DPPC   C3A58267  11.857  22.876  33.158 -0.0390  0.0951  0.4521
 3048DPPC   C4A58268  11.931  22.508  33.011  0.2589 -0.1937  0.1297
 3048DPPC   C1B58269  11.895  23.400  34.470 -0.3770  0.1289 -0.0707
 3048DPPC   C2B58270  12.129  23.074  34.595  0.0877 -0.1671  0.0069
 3048DPPC   C3B58271  12.346  22.747  34.684 -0.2321 -0.2815  0.0545
 3048DPPC   C4B58272  12.549  22.610  35.141 -0.0630  0.1426 -0.2980
 3049DPPC   NC358273   3.383  12.965  32.282  0.0791  0.0086  0.0248
 3049DPPC   PO458274   3.484  12.753  32.014  0.2239 -0.2500  0.1282
 3049DPPC   GL158275   3.984  12.673  31.994  0.2233 -0.0874 -0.2032
 3049DPPC   GL258276   4.009  12.747  32.402  0.1855 -0.0200 -0.0480
 3049DPPC   C1A58277   4.428  12.544  32.205 -0.3625 -0.1155  0.1371
 3049DPPC   C2A58278   4.773  12.656  32.160 -0.0134 -0.1167 -0.1951
 3049DPPC   C3A58279   5.155  12.553  32.044  0.2628 -0.0571 -0.0219
 3049DPPC   C4A58280   5.434  12.452  32.321  0.0512  0.1647 -0.0687
 3049DPPC   C1B58281   4.278  13.098  32.284 -0.1771  0.2421  0.1839
 3049DPPC   C2B58282   4.694  13.185  32.308 -0.1704 -0.0555  0.2098
 3049DPPC   C3B58283   5.001  13.508  32.337 -0.0403  0.0787 -0.1761
 3049DPPC   C4B58284   5.398  13.424  32.586 -0.0608  0.0588 -0.0626
 3050DPPC   NC358285  17.744   0.680  25.772 -0.0546 -0.3298 -0.2360
 3050DPPC   PO458286  17.933   0.917  25.480 -0.0962 -0.2276 -0.1058
 3050DPPC   GL158287  18.168   1.110  25.765  0.1119  0.1650  0.1159
 3050DPPC   GL258288  18.157   0.951  26.012 -0.2830  0.1311  0.2929
 3050DPPC   C1A58289  18.140   1.500  26.027  0.1222 -0.5156 -0.6157
 3050DPPC   C2A58290  17.765   1.694  26.133 -0.2386 -0.1120  0.0382
 3050DPPC   C3A58291  17.607   1.777  26.574 -0.0423 -0.3894 -0.1710
 3050DPPC   C4A58292  17.621   1.738  26.975  0.1176  0.0085 -0.1040
 3050DPPC   C1B58293  17.897   1.135  26.295  0.2486 -0.0521  0.1328
 3050DPPC   C2B58294  17.946   1.429  26.593 -0.0898 -0.2380  0.0027
 3050DPPC   C3B58295  18.093   1.785  26.499 -0.5001 -0.4026  0.2382
 3050DPPC   C4B58296  17.847   2.219  26.410  0.0586 -0.1309 -0.0911
 3051DPPC   NC358297   5.440  19.117  26.029 -0.7112  0.1116  0.1785
 3051DPPC   PO458298   5.079  18.889  25.965  0.0086 -0.1298  0.0924
 3051DPPC   GL158299   5.461  18.597  26.078 -0.0447  0.2916 -0.2051
 3051DPPC   GL258300   5.614  18.743  25.779  0.1395 -0.3245 -0.0657
 3051DPPC   C1A58301   5.794  18.337  26.099 -0.3936 -0.0738 -0.1108
 3051DPPC   C2A58302   6.021  18.122  26.254  0.2514  0.1212 -0.1347
 3051DPPC   C3A58303   6.284  17.978  26.580 -0.1316 -0.0486  0.0644
 3051DPPC   C4A58304   6.670  18.006  26.804  0.1092 -0.3308 -0.1338
 3051DPPC   C1B58305   5.929  18.775  26.196  0.1326  0.0676  0.0867
 3051DPPC   C2B58306   6.200  18.626  26.457  0.0375  0.0817 -0.0669
 3051DPPC   C3B58307   6.529  18.405  26.421  0.2639 -0.1099 -0.0331
 3051DPPC   C4B58308   6.706  18.001  26.209  0.2118 -0.0055  0.0814
 3052DPPC   NC358309  17.633  19.044  22.156 -0.2672 -0.1572  0.0318
 3052DPPC   PO458310  17.762  19.059  22.622  0.1113 -0.2484 -0.1070
 3052DPPC   GL158311  18.091  19.355  22.494  0.0052 -0.3369 -0.1473
 3052DPPC   GL258312  17.882  19.585  22.403  0.0251 -0.3640  0.1126
 3052DPPC   C1A58313  18.389  19.708  22.506  0.1135 -0.2359 -0.1448
 3052DPPC   C2A58314  18.416  20.145  22.450  0.1357  0.2619 -0.1759
 3052DPPC   C3A58315  18.160  20.384  22.170  0.1297 -0.1886 -0.0669
 3052DPPC   C4A58316  17.878  20.759  22.181 -0.2699 -0.0777 -0.0325
 3052DPPC   C1B58317  17.870  19.962  22.631  0.1596 -0.0287 -0.2434
 3052DPPC   C2B58318  17.968  20.476  22.655 -0.2978 -0.2201 -0.1746
 3052DPPC   C3B58319  18.389  20.616  22.536 -0.4799 -0.0278 -0.1788
 3052DPPC   C4B58320  18.741  20.781  22.360  0.2540 -0.0249 -0.0099
 3053DPPC   NC358321  22.859   9.684  24.541  0.0065  0.0645  0.1881
 3053DPPC   PO458322  22.998   9.866  24.944 -0.1869 -0.1602  0.1685
 3053DPPC   GL158323  23.442   9.784  24.967  0.2332  0.0856 -0.0396
 3053DPPC   GL258324  23.615   9.977  25.078  0.1184  0.0293 -0.1535
 3053DPPC   C1A58325  23.800   9.468  25.003  0.1170 -0.0645 -0.1451
 3053DPPC   C2A58326  24.179   9.128  24.827 -0.1071  0.1032 -0.1301
 3053DPPC   C3A58327  24.384   8.687  24.859 -0.3668 -0.3138  0.2572
 3053DPPC   C4A58328  24.282   8.305  24.758  0.0532 -0.2013  0.2855
 3053DPPC   C1B58329  24.045   9.923  24.966  0.0807 -0.0747 -0.0352
 3053DPPC   C2B58330  24.285   9.643  24.922 -0.0123  0.0476 -0.1538
 3053DPPC   C3B58331  24.635   9.374  24.732 -0.0364  0.0855  0.0980
 3053DPPC   C4B58332  24.831   9.414  24.289 -0.0061  0.0401 -0.0583
 3054DPPC   NC358333  17.507  14.306  19.473  0.0028  0.2563  0.0331
 3054DPPC   PO458334  17.428  14.439  19.080  0.1250 -0.4319  0.1403
 3054DPPC   GL158335  17.260  14.558  18.655  0.0639  0.0702 -0.0173
 3054DPPC   GL258336  16.947  14.359  18.616  0.1404  0.0933  0.2583
 3054DPPC   C1A58337  17.071  14.674  18.233 -0.1461 -0.0057 -0.0805
 3054DPPC   C2A58338  16.960  14.682  17.771  0.1421  0.0336 -0.0190
 3054DPPC   C3A58339  17.009  14.630  17.373 -0.0808  0.1290  0.0408
 3054DPPC   C4A58340  16.975  14.541  16.899  0.0685 -0.1209  0.1413
 3054DPPC   C1B58341  16.991  14.172  18.209  0.0218 -0.3188  0.2664
 3054DPPC   C2B58342  16.746  14.291  17.938 -0.0629  0.0643 -0.1856
 3054DPPC   C3B58343  16.473  14.662  17.842  0.2782 -0.2139 -0.0651
 3054DPPC   C4B58344  16.682  15.093  17.782  0.0764 -0.0132  0.0099
 3055DPPC   NC358345  21.080   1.170  33.110  0.0419  0.1700 -0.3746
 3055DPPC   PO458346  20.906   1.354  32.794  0.0196  0.0308 -0.0687
 3055DPPC   GL158347  20.910   1.706  32.492 -0.2172  0.3573  0.2024
 3055DPPC   GL258348  20.878   1.689  32.083 -0.1945 -0.1153 -0.2865
 3055DPPC   C1A58349  20.968   2.121  32.415 -0.0874  0.3178  0.1669
 3055DPPC   C2A58350  20.922   2.528  32.470  0.3011 -0.1724 -0.0283
 3055DPPC   C3A58351  20.649   2.834  32.697  0.1769 -0.0390  0.0792
 3055DPPC   C4A58352  20.383   3.109  32.918 -0.0600  0.1376  0.4555
 3055DPPC   C1B58353  20.927   1.986  31.928  0.1650  0.0742 -0.0700
 3055DPPC   C2B58354  20.905   2.426  31.631  0.1948  0.0867  0.0035
 3055DPPC   C3B58355  20.765   2.780  31.475 -0.2468  0.0121 -0.1908
 3055DPPC   C4B58356  20.627   3.134  31.269 -0.0821 -0.1742 -0.2929
 3056DPPC   NC358357  22.782  11.229  22.586 -0.1800 -0.0266 -0.1939
 3056DPPC   PO458358  22.487  11.588  22.583  0.1490  0.1863 -0.2142
 3056DPPC   GL158359  22.751  11.657  22.204  0.1496 -0.0078  0.2048
 3056DPPC   GL258360  23.062  11.462  22.249  0.4636 -0.0935 -0.0513
 3056DPPC   C1A58361  22.833  11.476  21.807  0.1931  0.2867  0.2651
 3056DPPC   C2A58362  23.166  11.474  21.617  0.1664  0.0534  0.0085
 3056DPPC   C3A58363  23.424  11.691  21.299  0.2645 -0.0315  0.1662
 3056DPPC   C4A58364  23.622  11.636  20.926  0.2147 -0.2221 -0.2800
 3056DPPC   C1B58365  23.282  11.720  22.207  0.0805 -0.1118  0.0742
 3056DPPC   C2B58366  23.638  11.704  22.296 -0.0538 -0.0066 -0.1808
 3056DPPC   C3B58367  24.022  11.782  22.415  0.5013  0.1693 -0.4102
 3056DPPC   C4B58368  24.356  12.007  22.222 -0.2040  0.0094 -0.0005
 3057DPPC   NC358369   9.505   2.180  28.446  0.0727 -0.1706  0.0275
 3057DPPC   PO458370   9.550   2.310  28.013 -0.0588 -0.1145 -0.3561
 3057DPPC   GL158371   9.925   2.607  28.020  0.0367 -0.2747 -0.2835
 3057DPPC   GL258372   9.985   2.857  27.771  0.2477 -0.1811  0.2551
 3057DPPC   C1A58373  10.270   2.781  28.236  0.1683  0.2241  0.0398
 3057DPPC   C2A58374  10.560   3.051  28.145  0.2989  0.4782 -0.0421
 3057DPPC   C3A58375  10.899   3.339  28.322  0.0073  0.2987 -0.0185
 3057DPPC   C4A58376  11.011   3.715  28.305 -0.1468 -0.2030  0.0640
 3057DPPC   C1B58377   9.772   3.135  27.613  0.3263  0.4201  0.2302
 3057DPPC   C2B58378   9.745   3.518  27.459  0.1372 -0.0058  0.4515
 3057DPPC   C3B58379   9.845   3.930  27.373 -0.1669 -0.0245  0.0578
 3057DPPC   C4B58380   9.498   4.203  27.137 -0.0931 -0.0931 -0.1137
 3058DPPC   NC358381  17.012  17.528  15.964 -0.3932  0.1076 -0.2388
 3058DPPC   PO458382  16.601  17.503  16.195  0.0659  0.0265 -0.2938
 3058DPPC   GL158383  16.484  17.169  16.205  0.1044 -0.0024  0.1530
 3058DPPC   GL258384  16.554  17.094  16.511 -0.0484  0.1045 -0.0711
 3058DPPC   C1A58385  16.247  16.797  16.242 -0.3140 -0.0141 -0.3120
 3058DPPC   C2A58386  15.872  16.672  16.538 -0.1942 -0.0430 -0.4985
 3058DPPC   C3A58387  15.724  16.609  16.840  0.0443 -0.4327 -0.1282
 3058DPPC   C4A58388  15.834  16.675  17.281  0.2460  0.0381 -0.3795
 3058DPPC   C1B58389  16.548  16.899  16.874 -0.0351 -0.4370  0.1403
 3058DPPC   C2B58390  16.789  16.734  17.242  0.1124  0.0514  0.0210
 3058DPPC   C3B58391  16.787  16.751  17.654 -0.1356 -0.0479 -0.2180
 3058DPPC   C4B58392  16.812  16.687  18.165 -0.1968  0.2845  0.2924
 3059DPPC   NC358393  19.004  16.726  22.697 -0.1034 -0.2219 -0.3516
 3059DPPC   PO458394  18.925  17.224  22.628  0.0671 -0.0234  0.1160
 3059DPPC   GL158395  19.210  17.467  22.318 -0.4229  0.0021 -0.2475
 3059DPPC   GL258396  18.956  17.618  22.241  0.1354 -0.1147  0.1059
 3059DPPC   C1A58397  19.553  17.337  22.143 -0.2497  0.0222 -0.2997
 3059DPPC   C2A58398  19.941  17.361  22.127  0.3516 -0.5359  0.1831
 3059DPPC   C3A58399  20.222  17.406  22.437 -0.0245  0.1442  0.0707
 3059DPPC   C4A58400  20.530  17.473  22.751 -0.0038  0.1754  0.2175
 3059DPPC   C1B58401  19.039  18.106  22.032  0.0421 -0.0342 -0.1069
 3059DPPC   C2B58402  19.251  18.512  21.939 -0.2690 -0.1501  0.2919
 3059DPPC   C3B58403  19.287  18.838  22.106  0.2034  0.0658 -0.1029
 3059DPPC   C4B58404  19.442  19.200  22.463 -0.2586 -0.3280  0.1797
 3060DPPC   NC358405   4.116   7.110  28.171 -0.0773 -0.0233  0.3313
 3060DPPC   PO458406   4.375   7.493  28.298 -0.2568 -0.1713  0.2009
 3060DPPC   GL158407   4.830   7.621  28.313 -0.2632  0.0040 -0.1407
 3060DPPC   GL258408   4.776   7.867  28.467 -0.2357 -0.0973  0.2226
 3060DPPC   C1A58409   5.106   7.687  28.056  0.1360  0.2202  0.4055
 3060DPPC   C2A58410   5.282   8.045  27.846  0.0021 -0.0269  0.0309
 3060DPPC   C3A58411   5.679   8.256  27.818  0.0316  0.1940  0.2045
 3060DPPC   C4A58412   5.867   8.520  27.922 -0.0394  0.4579 -0.3873
 3060DPPC   C1B58413   5.064   8.241  28.636 -0.0994 -0.2342 -0.1015
 3060DPPC   C2B58414   5.482   8.471  28.735 -0.0154 -0.0075 -0.0866
 3060DPPC   C3B58415   5.747   8.821  28.880 -0.0964  0.4096 -0.2218
 3060DPPC   C4B58416   6.247   8.923  28.868 -0.2609  0.2457 -0.0182
 3061DPPC   NC358417  14.331   8.400  43.231 -0.2197  0.0497  0.1868
 3061DPPC   PO458418  14.808   8.520  43.320  0.0037  0.0515 -0.0978
 3061DPPC   GL158419  15.011   8.703  43.083  0.1855  0.3355 -0.3599
 3061DPPC   GL258420  15.142   9.014  43.113  0.0008 -0.2982 -0.3717
 3061DPPC   C1A58421  14.937   8.696  42.607 -0.0035  0.0762 -0.1456
 3061DPPC   C2A58422  15.113   8.924  42.216  0.2490  0.1164  0.2672
 3061DPPC   C3A58423  15.454   9.058  42.160  0.0562  0.3637  0.1746
 3061DPPC   C4A58424  15.762   9.289  41.963  0.0866 -0.1363  0.0483
 3061DPPC   C1B58425  15.034   9.215  42.816  0.1064 -0.1149  0.0561
 3061DPPC   C2B58426  14.865   9.496  42.415 -0.0770  0.0096  0.0740
 3061DPPC   C3B58427  15.021   9.447  41.993 -0.2990  0.0870  0.1673
 3061DPPC   C4B58428  15.132   9.097  41.742  0.0495 -0.0039 -0.2012
 3062DPPC   NC358429   4.068  11.627  25.144  0.2387  0.4719  0.1110
 3062DPPC   PO458430   4.232  12.091  24.970  0.2592  0.0412  0.0870
 3062DPPC   GL158431   4.558  12.284  25.190  0.2288 -0.3908  0.0135
 3062DPPC   GL258432   4.616  12.386  25.564  0.2509  0.1405 -0.0400
 3062DPPC   C1A58433   4.956  12.197  25.131 -0.2836  0.1505 -0.1121
 3062DPPC   C2A58434   5.199  11.798  24.983  0.0298 -0.2197 -0.2388
 3062DPPC   C3A58435   5.581  11.806  24.799  0.0018  0.2793 -0.0406
 3062DPPC   C4A58436   5.799  11.469  24.578 -0.4842  0.0057  0.0424
 3062DPPC   C1B58437   4.874  12.661  25.976 -0.0180 -0.0132 -0.3726
 3062DPPC   C2B58438   4.695  12.883  26.375 -0.1549  0.0714 -0.0525
 3062DPPC   C3B58439   4.767  12.999  26.873 -0.0504  0.1977 -0.0622
 3062DPPC   C4B58440   4.798  12.849  27.312  0.2769 -0.4780 -0.1290
 3063DPPC   NC358441  16.411  19.033  23.487 -0.0222  0.3156 -0.0872
 3063DPPC   PO458442  16.310  19.410  23.095  0.3516 -0.0772 -0.0369
 3063DPPC   GL158443  16.190  19.877  22.899 -0.2299  0.0223 -0.1147
 3063DPPC   GL258444  16.060  19.938  22.717  0.0281 -0.1369  0.1824
 3063DPPC   C1A58445  16.234  20.388  22.832 -0.1177  0.0594 -0.2710
 3063DPPC   C2A58446  16.108  20.743  22.562 -0.2500 -0.0117 -0.0386
 3063DPPC   C3A58447  16.192  20.994  22.154  0.0673 -0.0828  0.1105
 3063DPPC   C4A58448  16.403  21.288  22.053 -0.0537 -0.0203 -0.0909
 3063DPPC   C1B58449  15.837  20.262  22.483  0.1468  0.0936 -0.0758
 3063DPPC   C2B58450  15.611  20.548  22.291  0.0097  0.0525  0.0035
 3063DPPC   C3B58451  15.698  20.815  22.031 -0.1610 -0.1173  0.0776
 3063DPPC   C4B58452  15.872  21.131  21.620 -0.2106 -0.0143  0.4121
 3064DPPC   NC358453  18.194   1.175  36.833  0.0459  0.4959  0.0146
 3064DPPC   PO458454  18.413   1.484  36.549 -0.0698  0.0017 -0.0263
 3064DPPC   GL158455  18.294   1.865  36.682 -0.1743  0.0742 -0.0600
 3064DPPC   GL258456  18.289   1.888  37.063 -0.1802 -0.1758  0.3116
 3064DPPC   C1A58457  18.008   2.181  36.736 -0.3517 -0.0334 -0.0528
 3064DPPC   C2A58458  17.708   2.531  36.588 -0.2738  0.0621  0.0316
 3064DPPC   C3A58459  17.611   2.532  36.135 -0.6168  0.0822 -0.0779
 3064DPPC   C4A58460  17.565   2.604  35.710 -0.0766 -0.1297 -0.0067
 3064DPPC   C1B58461  17.872   2.022  37.162 -0.1192  0.0169 -0.2676
 3064DPPC   C2B58462  17.713   2.407  37.083  0.1453 -0.1791 -0.2359
 3064DPPC   C3B58463  17.255   2.523  36.950 -0.1516  0.0373 -0.2885
 3064DPPC   C4B58464  17.025   2.484  36.612 -0.4319 -0.1246 -0.0178
 3065DPPC   NC358465  13.469  12.205  24.538  0.0485 -0.1245  0.2801
 3065DPPC   PO458466  13.745  12.093  24.178  0.0606 -0.5106  0.1449
 3065DPPC   GL158467  14.034  12.022  24.445  0.1400 -0.2895  0.1199
 3065DPPC   GL258468  13.889  12.004  24.693 -0.0583 -0.1537 -0.0741
 3065DPPC   C1A58469  14.321  12.316  24.720  0.0738  0.3156 -0.0691
 3065DPPC   C2A58470  14.740  12.267  25.101  0.1226 -0.0830  0.1110
 3065DPPC   C3A58471  14.801  12.461  25.493 -0.2344  0.1443  0.0425
 3065DPPC   C4A58472  14.889  12.533  25.874  0.0227  0.0874  0.2040
 3065DPPC   C1B58473  14.009  12.084  25.102 -0.2186 -0.2535 -0.2555
 3065DPPC   C2B58474  14.314  12.345  25.387 -0.0897  0.0583  0.0250
 3065DPPC   C3B58475  14.317  12.486  25.780  0.1524  0.2803 -0.0532
 3065DPPC   C4B58476  14.382  12.592  26.201 -0.1839  0.2314  0.1954
 3066DPPC   NC358477  25.606   5.741  23.356 -0.2620 -0.3337  0.1058
 3066DPPC   PO458478  25.635   6.249  23.337  0.0305  0.2870 -0.2450
 3066DPPC   GL158479  25.431   6.590  23.149  0.1591 -0.0826  0.0344
 3066DPPC   GL258480  25.529   6.576  22.752  0.0306  0.2455 -0.0421
 3066DPPC   C1A58481  25.099   6.922  23.171  0.1352  0.0180  0.3060
 3066DPPC   C2A58482  24.676   7.183  23.249  0.1159  0.2166 -0.1759
 3066DPPC   C3A58483  24.421   7.510  23.166  0.0070  0.1881  0.2014
 3066DPPC   C4A58484  24.117   7.747  23.323 -0.0740  0.1695 -0.0563
 3066DPPC   C1B58485  25.286   6.957  22.713 -0.0137  0.3930  0.0367
 3066DPPC   C2B58486  24.896   7.185  22.659 -0.3967 -0.2001 -0.0531
 3066DPPC   C3B58487  24.416   7.226  22.682  0.0539  0.0177 -0.0416
 3066DPPC   C4B58488  23.966   7.096  22.644  0.0144  0.2260 -0.1060
 3067DPPC   NC358489  18.951  23.769  32.597 -0.1190 -0.0680  0.0675
 3067DPPC   PO458490  19.012  23.367  32.523  0.0152 -0.2969  0.2654
 3067DPPC   GL158491  18.967  23.170  32.809  0.0569  0.0666 -0.0234
 3067DPPC   GL258492  19.106  22.877  32.817 -0.0877 -0.0213  0.1564
 3067DPPC   C1A58493  18.901  23.051  33.213 -0.0806  0.0613  0.0627
 3067DPPC   C2A58494  18.700  22.919  33.544  0.3219  0.0201 -0.1638
 3067DPPC   C3A58495  18.341  22.843  33.596  0.1335  0.1205  0.0706
 3067DPPC   C4A58496  18.199  22.401  33.527 -0.1861  0.3121 -0.1950
 3067DPPC   C1B58497  19.039  22.599  32.508  0.2124 -0.6120 -0.1451
 3067DPPC   C2B58498  19.100  22.182  32.346  0.1578 -0.0988  0.1434
 3067DPPC   C3B58499  19.043  21.966  31.943 -0.0780 -0.1961 -0.1119
 3067DPPC   C4B58500  18.961  21.751  31.539  0.0195  0.1274 -0.0496
 3068DPPC   NC358501  22.985  21.293  34.867 -0.3964  0.1439 -0.1797
 3068DPPC   PO458502  22.814  21.592  34.446  0.0711  0.1466  0.1220
 3068DPPC   GL158503  22.721  21.313  34.121  0.1700  0.0439 -0.2960
 3068DPPC   GL258504  22.781  21.441  33.755 -0.1116  0.2358 -0.0208
 3068DPPC   C1A58505  22.461  21.006  34.159  0.0972  0.0511 -0.1336
 3068DPPC   C2A58506  22.208  20.847  34.636 -0.0356 -0.3486  0.2340
 3068DPPC   C3A58507  21.992  20.644  34.917  0.0346  0.0469 -0.0812
 3068DPPC   C4A58508  21.800  20.366  35.211  0.0767  0.0242  0.0009
 3068DPPC   C1B58509  22.628  21.018  33.683 -0.0290 -0.0841  0.0818
 3068DPPC   C2B58510  22.296  20.735  33.696  0.0926  0.3202  0.1126
 3068DPPC   C3B58511  22.249  20.392  33.447  0.1038 -0.0611 -0.5891
 3068DPPC   C4B58512  22.062  20.031  33.342 -0.0169  0.2546  0.1684
 3069DPPC   NC358513  24.898  12.226  40.391  0.3913 -0.1544 -0.0598
 3069DPPC   PO458514  24.611  12.591  40.182  0.1704 -0.2996  0.0077
 3069DPPC   GL158515  24.377  12.703  39.805 -0.2307  0.1105  0.0531
 3069DPPC   GL258516  24.312  12.390  39.806  0.0196  0.1753 -0.0377
 3069DPPC   C1A58517  24.115  12.867  39.441  0.1519  0.0415 -0.1610
 3069DPPC   C2A58518  23.900  12.806  39.134 -0.3270 -0.1647 -0.1179
 3069DPPC   C3A58519  23.592  12.888  38.848 -0.0471 -0.1466 -0.0197
 3069DPPC   C4A58520  23.101  13.083  38.746 -0.0286  0.0977  0.1327
 3069DPPC   C1B58521  23.848  12.188  39.892  0.2821 -0.0068 -0.1158
 3069DPPC   C2B58522  23.449  11.935  39.887 -0.2436  0.1052  0.0174
 3069DPPC   C3B58523  23.219  11.589  40.113 -0.0179 -0.1655 -0.1569
 3069DPPC   C4B58524  23.012  11.080  40.221  0.3238 -0.4215  0.0990
 3070DPPC   NC358525  14.424  11.798  27.381 -0.0247 -0.1393 -0.0679
 3070DPPC   PO458526  14.619  11.715  27.765  0.0284 -0.1092 -0.2112
 3070DPPC   GL158527  14.905  11.668  27.328 -0.0186 -0.0168 -0.1994
 3070DPPC   GL258528  14.933  11.341  27.069 -0.0260  0.2754 -0.2267
 3070DPPC   C1A58529  15.152  11.842  27.091  0.1238  0.0315  0.0075
 3070DPPC   C2A58530  15.568  11.900  26.971  0.1960 -0.2123  0.1728
 3070DPPC   C3A58531  15.800  12.269  26.876  0.2706  0.1939  0.0915
 3070DPPC   C4A58532  16.106  12.365  26.587  0.1754  0.0117  0.1988
 3070DPPC   C1B58533  15.125  11.275  26.634  0.0843 -0.0879  0.0385
 3070DPPC   C2B58534  15.197  11.169  26.188 -0.0829  0.0072 -0.1434
 3070DPPC   C3B58535  15.084  10.997  25.824 -0.0991  0.1992 -0.4140
 3070DPPC   C4B58536  15.169  10.997  25.328  0.2914 -0.0221  0.3374
 3071DPPC   NC358537   3.394  16.807  28.482  0.1214  0.0686 -0.2843
 3071DPPC   PO458538   3.829  16.827  28.598  0.0388 -0.0710  0.4765
 3071DPPC   GL158539   4.216  16.614  28.833 -0.0356  0.0521  0.5920
 3071DPPC   GL258540   4.454  16.808  28.554 -0.4596 -0.2078 -0.0028
 3071DPPC   C1A58541   4.518  16.328  28.805  0.1162  0.0195  0.0019
 3071DPPC   C2A58542   4.703  15.939  28.896  0.0840  0.1275  0.3060
 3071DPPC   C3A58543   5.004  15.728  29.070  0.0054 -0.2393  0.0302
 3071DPPC   C4A58544   5.142  15.473  29.426 -0.0641  0.3372 -0.1363
 3071DPPC   C1B58545   4.779  16.562  28.315  0.3704 -0.0320 -0.2682
 3071DPPC   C2B58546   5.025  16.108  28.381  0.0911  0.2324  0.2051
 3071DPPC   C3B58547   5.231  15.908  28.523  0.1937 -0.1533 -0.0646
 3071DPPC   C4B58548   5.391  15.953  28.838  0.0849  0.0698 -0.1054
 3072DPPC   NC358549  20.810  22.876  34.871  0.3330 -0.3778  0.1176
 3072DPPC   PO458550  20.517  23.133  34.894  0.1260 -0.1041 -0.1849
 3072DPPC   GL158551  20.247  22.760  34.728 -0.1131  0.0234 -0.3789
 3072DPPC   GL258552  20.510  22.665  34.524  0.4500  0.0244  0.0646
 3072DPPC   C1A58553  20.117  22.370  34.818  0.0032  0.1479 -0.2374
 3072DPPC   C2A58554  19.830  22.075  35.031  0.1222  0.1036  0.0101
 3072DPPC   C3A58555  19.617  21.700  34.881  0.1457  0.1118  0.0627
 3072DPPC   C4A58556  19.564  21.527  34.512 -0.0843 -0.2043 -0.0254
 3072DPPC   C1B58557  20.264  22.406  34.290 -0.0107 -0.4192  0.2654
 3072DPPC   C2B58558  20.086  21.902  34.481 -0.1247 -0.2961 -0.4461
 3072DPPC   C3B58559  20.022  21.472  34.250 -0.1082 -0.0574  0.2276
 3072DPPC   C4B58560  19.963  21.150  34.206 -0.0795 -0.0967 -0.0643
 3073DPPC   NC358561   3.812  14.747  34.346 -0.1942  0.1141  0.2586
 3073DPPC   PO458562   3.828  14.617  34.838  0.2801 -0.1117  0.0456
 3073DPPC   GL158563   4.212  14.640  34.627 -0.1954  0.1540  0.0068
 3073DPPC   GL258564   4.492  14.398  34.470 -0.2903 -0.2280 -0.0199
 3073DPPC   C1A58565   4.690  14.759  34.717  0.1237  0.0536 -0.1815
 3073DPPC   C2A58566   4.929  14.885  35.086 -0.0893  0.1122  0.0003
 3073DPPC   C3A58567   5.131  15.054  35.496  0.0013  0.2878  0.2863
 3073DPPC   C4A58568   5.289  15.257  35.840  0.0647 -0.1792 -0.2370
 3073DPPC   C1B58569   4.619  14.242  34.060  0.1257  0.3101  0.3599
 3073DPPC   C2B58570   4.953  14.080  33.905  0.3336  0.3015 -0.1742
 3073DPPC   C3B58571   5.183  14.079  33.654 -0.1165 -0.1131 -0.1925
 3073DPPC   C4B58572   5.435  14.071  33.310 -0.1307  0.1883  0.0738
 3074DPPC   NC358573  17.197  19.670  24.247 -0.1760 -0.2378 -0.1355
 3074DPPC   PO458574  17.526  19.913  24.459  0.0329 -0.3813 -0.3580
 3074DPPC   GL158575  17.507  20.371  24.666 -0.1671  0.0531 -0.0385
 3074DPPC   GL258576  17.443  20.264  24.936 -0.0819 -0.3865 -0.2134
 3074DPPC   C1A58577  17.549  20.888  24.557 -0.2211  0.3562  0.0342
 3074DPPC   C2A58578  17.664  21.211  24.893  0.2061 -0.1688 -0.0983
 3074DPPC   C3A58579  17.574  21.609  24.904 -0.4196 -0.0213  0.1930
 3074DPPC   C4A58580  17.332  21.905  24.750  0.2748  0.0924  0.2198
 3074DPPC   C1B58581  17.849  20.478  25.052 -0.1124 -0.2598  0.1032
 3074DPPC   C2B58582  18.017  20.826  25.011 -0.2774  0.0000 -0.0976
 3074DPPC   C3B58583  18.266  21.184  24.852  0.1109 -0.1098 -0.0630
 3074DPPC   C4B58584  18.101  21.583  24.890  0.0116 -0.2053  0.1836
 3075DPPC   NC358585   7.377  11.316  31.487 -0.1852  0.0543 -0.2828
 3075DPPC   PO458586   7.360  11.809  31.377 -0.0834  0.0167  0.3782
 3075DPPC   GL158587   6.963  11.629  31.489 -0.1837 -0.0902 -0.1100
 3075DPPC   GL258588   7.043  11.749  31.763  0.1387  0.0374  0.0952
 3075DPPC   C1A58589   6.632  11.528  31.412  0.2675  0.1543  0.2013
 3075DPPC   C2A58590   6.386  11.107  31.431 -0.0527  0.4044  0.0337
 3075DPPC   C3A58591   6.209  10.741  31.420 -0.0294  0.0553  0.1468
 3075DPPC   C4A58592   6.161  10.371  31.317  0.2935  0.2110  0.1088
 3075DPPC   C1B58593   6.630  11.706  31.883 -0.0359 -0.1145 -0.0584
 3075DPPC   C2B58594   6.287  11.525  31.793 -0.2162  0.3478 -0.2150
 3075DPPC   C3B58595   5.900  11.358  31.481  0.3249  0.0805 -0.2358
 3075DPPC   C4B58596   5.543  11.623  31.175  0.0865  0.0571 -0.0948
 3076DPPC   NC358597  25.254   4.417  27.794 -0.1483 -0.0280  0.1790
 3076DPPC   PO458598  25.043   4.197  27.454 -0.1881  0.1441  0.1009
 3076DPPC   GL158599  24.596   4.106  27.387 -0.0059 -0.2309 -0.1159
 3076DPPC   GL258600  24.639   4.438  27.401  0.3924 -0.0411 -0.0539
 3076DPPC   C1A58601  24.203   4.343  27.261  0.1223  0.0626 -0.1197
 3076DPPC   C2A58602  23.817   4.255  27.334 -0.0348 -0.1960  0.0941
 3076DPPC   C3A58603  23.521   4.201  27.726  0.0869 -0.0202  0.1711
 3076DPPC   C4A58604  23.461   4.181  28.147  0.2475  0.1583 -0.0574
 3076DPPC   C1B58605  24.325   4.599  27.712  0.1479 -0.0764 -0.1181
 3076DPPC   C2B58606  23.888   4.623  27.922 -0.1162  0.0463  0.0523
 3076DPPC   C3B58607  23.663   4.884  28.202 -0.2139  0.2508 -0.1647
 3076DPPC   C4B58608  23.296   5.104  28.239 -0.3067 -0.3814 -0.1218
 3077DPPC   NC358609  15.645  23.014  20.705 -0.3826 -0.1191 -0.2337
 3077DPPC   PO458610  15.203  22.991  20.687 -0.0420  0.2111  0.1300
 3077DPPC   GL158611  15.035  22.609  20.864  0.0518 -0.2239  0.0358
 3077DPPC   GL258612  15.405  22.501  20.859 -0.2114 -0.1133 -0.1659
 3077DPPC   C1A58613  14.843  22.176  20.971  0.1642  0.1501  0.0761
 3077DPPC   C2A58614  14.528  21.905  21.257  0.1019  0.1074 -0.1775
 3077DPPC   C3A58615  14.429  21.510  21.385  0.0685 -0.0018  0.2066
 3077DPPC   C4A58616  14.337  21.279  21.703 -0.1329  0.0630  0.2544
 3077DPPC   C1B58617  15.298  22.117  21.136 -0.2873  0.0617 -0.1526
 3077DPPC   C2B58618  15.067  21.805  21.309  0.1686 -0.0418 -0.0683
 3077DPPC   C3B58619  14.898  21.360  21.394  0.1246 -0.0743 -0.0375
 3077DPPC   C4B58620  15.021  20.951  21.306 -0.0716  0.0870  0.1516
 3078DPPC   NC358621   6.228  11.064  39.759 -0.2939  0.3665 -0.1156
 3078DPPC   PO458622   6.523  11.060  39.456 -0.0357  0.0974  0.1968
 3078DPPC   GL158623   6.875  10.930  39.254 -0.2611 -0.0141  0.0706
 3078DPPC   GL258624   7.164  10.818  39.354  0.0826  0.0141  0.4182
 3078DPPC   C1A58625   7.128  11.312  39.158  0.1507  0.1140  0.2633
 3078DPPC   C2A58626   7.531  11.400  39.058  0.1459  0.2771 -0.0288
 3078DPPC   C3A58627   7.758  11.244  38.713 -0.1952 -0.2660  0.1784
 3078DPPC   C4A58628   8.147  11.240  38.395  0.1829 -0.3473  0.1627
 3078DPPC   C1B58629   7.462  10.888  39.019 -0.1534 -0.1403  0.1220
 3078DPPC   C2B58630   7.728  10.715  38.776  0.2852 -0.0028  0.0040
 3078DPPC   C3B58631   8.052  10.739  38.419  0.1286 -0.2603 -0.0441
 3078DPPC   C4B58632   7.853  10.825  37.961  0.0681 -0.1356 -0.1062
 3079DPPC   NC358633  26.339   6.755  22.744  0.2754 -0.1347 -0.3051
 3079DPPC   PO458634  26.040   6.780  22.397  0.1603 -0.1310 -0.0078
 3079DPPC   GL158635  25.639   7.101  22.364  0.1370 -0.1532 -0.0279
 3079DPPC   GL258636  25.896   7.303  22.401  0.0173 -0.0403  0.1449
 3079DPPC   C1A58637  25.306   7.367  22.403 -0.7082 -0.2890  0.3032
 3079DPPC   C2A58638  24.922   7.664  22.409 -0.0810  0.0727  0.0862
 3079DPPC   C3A58639  24.710   7.905  22.317 -0.0175 -0.3223  0.2761
 3079DPPC   C4A58640  24.390   8.291  22.465 -0.0615  0.0544  0.2483
 3079DPPC   C1B58641  25.695   7.439  22.769 -0.0641 -0.2793  0.3059
 3079DPPC   C2B58642  25.279   7.408  22.932 -0.0247 -0.0945  0.2321
 3079DPPC   C3B58643  24.869   7.618  22.971  0.1151  0.1918  0.1216
 3079DPPC   C4B58644  24.515   7.698  22.705  0.0425 -0.0290  0.1792
 3080DPPC   NC358645   8.026  24.117  31.351  0.0847 -0.3513 -0.3543
 3080DPPC   PO458646   8.246  23.890  31.550 -0.1227 -0.0737  0.1538
 3080DPPC   GL158647   8.442  23.531  31.507  0.0568  0.0487 -0.1235
 3080DPPC   GL258648   8.582  23.425  31.197 -0.2375  0.0097 -0.0210
 3080DPPC   C1A58649   8.622  23.081  31.743 -0.2101  0.0067  0.1569
 3080DPPC   C2A58650   8.618  22.610  31.964  0.0097  0.0704  0.3960
 3080DPPC   C3A58651   8.573  22.238  32.219  0.0470 -0.0227 -0.1371
 3080DPPC   C4A58652   8.652  21.794  32.289 -0.0299  0.0243 -0.2657
 3080DPPC   C1B58653   8.980  23.282  31.328 -0.1722  0.1327  0.1827
 3080DPPC   C2B58654   9.157  22.970  31.564 -0.0795  0.0771 -0.0082
 3080DPPC   C3B58655   9.126  22.673  31.754 -0.0852  0.0137 -0.1508
 3080DPPC   C4B58656   8.994  22.186  31.780 -0.3173  0.0028  0.1409
 3081DPPC   NC358657   4.278   8.281  27.253 -0.0844 -0.3432 -0.2732
 3081DPPC   PO458658   4.586   8.558  27.113 -0.1650 -0.0089 -0.0264
 3081DPPC   GL158659   5.031   8.419  27.189 -0.1300  0.0289 -0.0705
 3081DPPC   GL258660   5.172   8.244  26.939  0.0340 -0.2939  0.0855
 3081DPPC   C1A58661   5.282   8.454  27.485  0.1064  0.0186  0.3649
 3081DPPC   C2A58662   5.127   8.702  27.868 -0.3578 -0.1230 -0.0211
 3081DPPC   C3A58663   5.153   8.830  28.262 -0.3011 -0.0287 -0.0863
 3081DPPC   C4A58664   4.812   8.856  28.518  0.1252 -0.2344 -0.0191
 3081DPPC   C1B58665   5.428   7.847  26.803  0.0927 -0.0217  0.0208
 3081DPPC   C2B58666   5.760   7.719  27.037  0.2994  0.2846 -0.0376
 3081DPPC   C3B58667   6.012   7.482  26.951 -0.0408  0.2086  0.1247
 3081DPPC   C4B58668   6.365   7.206  26.993 -0.1395  0.3237  0.3181
 3082DPPC   NC358669  14.659  16.042  43.647  0.2044 -0.0496 -0.0606
 3082DPPC   PO458670  14.709  15.724  43.340 -0.1521 -0.0170 -0.3893
 3082DPPC   GL158671  14.602  15.566  42.988 -0.0624  0.1042 -0.1379
 3082DPPC   GL258672  14.592  15.765  42.688 -0.0675 -0.0276  0.1551
 3082DPPC   C1A58673  14.353  15.312  42.752  0.0126  0.1820 -0.1874
 3082DPPC   C2A58674  14.380  15.048  42.399  0.1763 -0.1596 -0.1999
 3082DPPC   C3A58675  14.590  15.057  42.026  0.0264 -0.2246 -0.1237
 3082DPPC   C4A58676  14.838  15.145  41.705  0.0446 -0.0106  0.2938
 3082DPPC   C1B58677  14.603  15.498  42.340  0.1251  0.1302 -0.1294
 3082DPPC   C2B58678  14.964  15.474  42.100 -0.0553 -0.0858 -0.1319
 3082DPPC   C3B58679  15.269  15.688  42.068 -0.0995 -0.1992  0.2161
 3082DPPC   C4B58680  15.692  15.730  42.063  0.2009 -0.0678  0.4006
 3083DPPC   NC358681  14.107  17.363  21.325  0.1817 -0.0256  0.1027
 3083DPPC   PO458682  14.227  17.052  21.094  0.3099 -0.0231 -0.1399
 3083DPPC   GL158683  13.810  17.173  20.856 -0.2291 -0.0136  0.1117
 3083DPPC   GL258684  13.452  17.120  21.025 -0.0291 -0.0419  0.1287
 3083DPPC   C1A58685  13.629  17.385  20.582 -0.2927 -0.2005 -0.0172
 3083DPPC   C2A58686  13.140  17.293  20.393  0.1131 -0.1891 -0.1355
 3083DPPC   C3A58687  12.924  17.423  19.927  0.3396 -0.0182  0.0516
 3083DPPC   C4A58688  12.465  17.357  19.687 -0.5819  0.1362  0.0787
 3083DPPC   C1B58689  13.230  17.484  20.921  0.1669 -0.1217 -0.1563
 3083DPPC   C2B58690  13.019  17.736  20.676  0.0388 -0.1897  0.1652
 3083DPPC   C3B58691  12.723  17.519  20.465  0.0502  0.1045 -0.1814
 3083DPPC   C4B58692  12.492  17.656  20.070  0.2405 -0.2521  0.0406
 3084DPPC   NC358693   8.796   7.669  20.565  0.1813 -0.0319 -0.1962
 3084DPPC   PO458694   8.770   7.309  20.858 -0.2338  0.1048  0.2176
 3084DPPC   GL158695   9.211   7.550  20.965  0.1896  0.0510  0.0929
 3084DPPC   GL258696   9.200   7.797  20.905 -0.0478  0.1271  0.0759
 3084DPPC   C1A58697   9.460   7.761  21.293  0.1149  0.0249  0.1616
 3084DPPC   C2A58698   9.824   8.043  21.413 -0.0433 -0.2193  0.0546
 3084DPPC   C3A58699   9.971   8.143  21.822  0.2986 -0.1317 -0.2396
 3084DPPC   C4A58700  10.205   8.141  22.073 -0.2189  0.1645  0.1915
 3084DPPC   C1B58701   9.541   8.111  20.925  0.2274 -0.2097  0.1029
 3084DPPC   C2B58702   9.928   8.066  20.856  0.0536 -0.0786  0.2374
 3084DPPC   C3B58703  10.191   8.136  21.077  0.0736  0.2569  0.0639
 3084DPPC   C4B58704  10.630   8.204  21.126 -0.0254  0.2373  0.0979
 3085DPPC   NC358705  13.588   4.669  40.861  0.1413 -0.1364 -0.1889
 3085DPPC   PO458706  13.802   4.389  40.725  0.0973 -0.2905  0.0858
 3085DPPC   GL158707  13.877   4.459  40.319 -0.0287  0.0898  0.0900
 3085DPPC   GL258708  13.787   4.278  40.045  0.1446 -0.0551  0.2025
 3085DPPC   C1A58709  13.993   4.934  40.257  0.1761 -0.0996  0.3481
 3085DPPC   C2A58710  14.310   5.106  39.992  0.1057  0.2349 -0.2934
 3085DPPC   C3A58711  14.275   5.416  39.735 -0.1723 -0.0544 -0.3209
 3085DPPC   C4A58712  14.124   5.793  39.419 -0.1793 -0.0831 -0.0255
 3085DPPC   C1B58713  13.760   4.802  39.900 -0.3552 -0.0764  0.3260
 3085DPPC   C2B58714  13.843   5.237  39.793  0.0356  0.2662 -0.3644
 3085DPPC   C3B58715  13.734   5.607  39.611 -0.1573  0.1905 -0.3405
 3085DPPC   C4B58716  13.639   5.964  39.364  0.0059 -0.0511 -0.2506
 3086DPPC   NC358717   3.235  13.976  32.505 -0.2004 -0.1418 -0.0973
 3086DPPC   PO458718   3.356  13.511  32.325 -0.5977  0.2322  0.0091
 3086DPPC   GL158719   3.728  13.623  32.313 -0.0575 -0.1628 -0.1224
 3086DPPC   GL258720   3.667  13.915  32.219  0.2686  0.0110  0.1641
 3086DPPC   C1A58721   4.114  13.556  32.469  0.1437  0.2242  0.3076
 3086DPPC   C2A58722   4.536  13.574  32.577  0.0972  0.1078 -0.4192
 3086DPPC   C3A58723   4.925  13.503  32.811 -0.0395 -0.0310  0.0956
 3086DPPC   C4A58724   5.169  13.683  33.089  0.1933  0.1213 -0.1951
 3086DPPC   C1B58725   4.082  13.991  32.230  0.5759 -0.1009  0.1041
 3086DPPC   C2B58726   4.402  14.091  32.527  0.3164 -0.0181  0.2998
 3086DPPC   C3B58727   4.810  14.044  32.622  0.0910 -0.1207  0.0554
 3086DPPC   C4B58728   5.274  13.967  32.707 -0.0128 -0.0110 -0.0066
 3087DPPC   NC358729  17.663  18.476  21.340  0.0204 -0.0273 -0.0293
 3087DPPC   PO458730  17.962  18.221  21.602  0.0563  0.0649  0.1655
 3087DPPC   GL158731  18.189  18.508  21.185 -0.2495 -0.0497  0.1479
 3087DPPC   GL258732  17.930  18.519  20.958  0.1266  0.0747 -0.0715
 3087DPPC   C1A58733  18.390  18.799  20.918  0.0215  0.2245  0.2743
 3087DPPC   C2A58734  18.840  18.879  20.660 -0.2606  0.1591 -0.3233
 3087DPPC   C3A58735  19.039  18.951  20.347 -0.1073 -0.1971  0.2374
 3087DPPC   C4A58736  19.050  19.197  19.976  0.1284  0.2203  0.1358
 3087DPPC   C1B58737  18.122  18.505  20.652 -0.0246  0.1565  0.1285
 3087DPPC   C2B58738  18.182  18.659  20.278 -0.0939  0.0477  0.0320
 3087DPPC   C3B58739  18.073  18.601  19.857 -0.2513  0.0018  0.1384
 3087DPPC   C4B58740  17.976  18.893  19.435 -0.0631  0.2030  0.3343
 3088DPPC   NC358741  14.115  12.880  15.757  0.2323 -0.1654 -0.0398
 3088DPPC   PO458742  13.606  12.846  15.837 -0.0625 -0.0263  0.3280
 3088DPPC   GL158743  13.949  12.915  16.229 -0.3340 -0.0556 -0.0911
 3088DPPC   GL258744  13.869  13.170  16.395 -0.2123 -0.2118  0.2839
 3088DPPC   C1A58745  14.304  12.820  16.439 -0.1064 -0.0405 -0.1753
 3088DPPC   C2A58746  14.495  12.491  16.814  0.3433 -0.2641 -0.1504
 3088DPPC   C3A58747  14.658  12.321  17.262 -0.0796  0.0683  0.5040
 3088DPPC   C4A58748  14.728  11.964  17.468  0.2963 -0.2757 -0.1499
 3088DPPC   C1B58749  14.184  13.247  16.621  0.0633 -0.1135  0.1971
 3088DPPC   C2B58750  14.586  13.260  16.636 -0.0732 -0.0648 -0.0554
 3088DPPC   C3B58751  14.955  13.273  16.676  0.2695  0.0263 -0.1279
 3088DPPC   C4B58752  15.272  13.053  16.828 -0.0573 -0.0185  0.1803
 3089DPPC   NC358753  21.319  10.152  20.632 -0.5263  0.0596  0.2198
 3089DPPC   PO458754  21.192  10.036  20.206  0.0693 -0.0622  0.0762
 3089DPPC   GL158755  21.508  10.129  20.024 -0.1187  0.1767  0.0439
 3089DPPC   GL258756  21.522  10.278  19.745  0.1700 -0.0050  0.0162
 3089DPPC   C1A58757  21.951   9.883  19.979 -0.2407 -0.1685  0.2192
 3089DPPC   C2A58758  22.056   9.429  19.872  0.1000  0.0471 -0.0168
 3089DPPC   C3A58759  22.411   9.165  19.823 -0.1181  0.2583 -0.1836
 3089DPPC   C4A58760  22.872   8.886  20.004  0.2021 -0.3770 -0.3242
 3089DPPC   C1B58761  21.515   9.823  19.491  0.1600 -0.0041 -0.2272
 3089DPPC   C2B58762  21.835   9.732  19.274  0.0038  0.3760  0.1646
 3089DPPC   C3B58763  22.318   9.726  19.250 -0.0929 -0.3656 -0.3712
 3089DPPC   C4B58764  22.777   9.835  18.957  0.2805 -0.2410  0.0125
 3090DPPC   NC358765   6.091   8.354  37.248  0.1774  0.0829 -0.5368
 3090DPPC   PO458766   5.903   8.312  36.913 -0.2407 -0.0146  0.2194
 3090DPPC   GL158767   6.107   8.743  36.816 -0.1226  0.1569  0.0958
 3090DPPC   GL258768   6.373   8.733  37.023 -0.0337  0.0206 -0.0748
 3090DPPC   C1A58769   6.319   9.157  36.797  0.0517 -0.0367  0.2500
 3090DPPC   C2A58770   6.725   9.128  36.841  0.1474  0.0996 -0.0656
 3090DPPC   C3A58771   6.970   8.834  37.060 -0.3704 -0.0263 -0.1722
 3090DPPC   C4A58772   7.250   8.496  37.059 -0.1868 -0.1168 -0.0559
 3090DPPC   C1B58773   6.599   8.661  36.649 -0.0597 -0.0306 -0.1932
 3090DPPC   C2B58774   6.719   8.768  36.398  0.0088 -0.3858  0.1186
 3090DPPC   C3B58775   6.660   8.907  35.909  0.0515  0.3384  0.3112
 3090DPPC   C4B58776   6.950   9.092  35.535  0.1359 -0.0470  0.3513
 3091DPPC   NC358777   0.775   9.289  29.436  0.0008  0.0146 -0.0298
 3091DPPC   PO458778   0.891   9.815  29.363 -0.1056  0.2905  0.0449
 3091DPPC   GL158779   0.503   9.689  29.498 -0.1499  0.0708 -0.1323
 3091DPPC   GL258780   0.338   9.831  29.336 -0.1356 -0.2090 -0.1718
 3091DPPC   C1A58781   0.200   9.633  29.725  0.1402  0.2081  0.3022
 3091DPPC   C2A58782  26.745   9.604  29.849  0.2603 -0.0793 -0.0960
 3091DPPC   C3A58783  26.484   9.921  29.886  0.0693 -0.4961 -0.1840
 3091DPPC   C4A58784  26.104  10.145  29.944 -0.1129 -0.0897 -0.0584
 3091DPPC   C1B58785  27.007   9.852  29.365  0.1204  0.0154  0.1073
 3091DPPC   C2B58786  26.579   9.808  29.402  0.0297  0.1454  0.2899
 3091DPPC   C3B58787  26.234  10.132  29.416  0.1043  0.3963  0.0367
 3091DPPC   C4B58788  26.195  10.513  29.182 -0.3046  0.2993  0.2112
 3092DPPC   NC358789  16.815  16.743  19.924  0.0331 -0.0009 -0.1882
 3092DPPC   PO458790  17.152  17.033  19.994 -0.4689  0.0613 -0.0711
 3092DPPC   GL158791  17.149  17.001  19.575  0.2562  0.0005  0.2424
 3092DPPC   GL258792  17.314  16.810  19.423 -0.1956 -0.2402 -0.4261
 3092DPPC   C1A58793  16.962  17.233  19.360 -0.1623 -0.2120  0.0509
 3092DPPC   C2A58794  16.673  17.243  19.076 -0.5809  0.0343  0.0970
 3092DPPC   C3A58795  16.315  17.195  18.885  0.1295  0.3739 -0.2908
 3092DPPC   C4A58796  16.023  17.293  18.462 -0.2200 -0.2987 -0.0095
 3092DPPC   C1B58797  17.078  16.733  19.084 -0.3165  0.0707 -0.0193
 3092DPPC   C2B58798  16.878  16.639  18.722  0.2074 -0.0384 -0.3037
 3092DPPC   C3B58799  16.692  17.075  18.453  0.2283 -0.0059 -0.3236
 3092DPPC   C4B58800  16.797  17.500  18.348  0.1313 -0.6324 -0.0867
 3093DPPC   NC358801  10.409  18.075  17.990  0.1158 -0.1645 -0.1627
 3093DPPC   PO458802  10.490  18.178  18.415 -0.0193  0.1567  0.2606
 3093DPPC   GL158803  10.866  18.139  18.599  0.1060  0.0750  0.0914
 3093DPPC   GL258804  10.706  17.887  18.763 -0.2928  0.0815 -0.1365
 3093DPPC   C1A58805  11.195  17.991  18.901  0.1761 -0.2456  0.2581
 3093DPPC   C2A58806  11.243  17.848  19.344 -0.2977 -0.0337 -0.2355
 3093DPPC   C3A58807  11.596  17.720  19.657  0.3057  0.0277 -0.1124
 3093DPPC   C4A58808  11.983  17.500  19.782  0.4462 -0.2669 -0.1835
 3093DPPC   C1B58809  10.719  17.695  19.179  0.1770 -0.5972 -0.0976
 3093DPPC   C2B58810  10.759  17.369  19.353 -0.1237 -0.0322  0.0013
 3093DPPC   C3B58811  11.000  16.974  19.392  0.2829 -0.1384  0.3212
 3093DPPC   C4B58812  11.201  16.627  19.400  0.1088 -0.3381  0.1354
 3094DPPC   NC358813   9.294  21.010  39.024  0.2373  0.0952 -0.1245
 3094DPPC   PO458814   9.256  20.688  38.779  0.1599  0.0769  0.1008
 3094DPPC   GL158815   9.641  20.629  38.519  0.2629  0.2631  0.1642
 3094DPPC   GL258816   9.595  20.273  38.398 -0.0180 -0.0280  0.0546
 3094DPPC   C1A58817   9.835  20.706  38.170 -0.2516 -0.0169 -0.0604
 3094DPPC   C2A58818   9.698  20.944  37.773  0.0046  0.1945  0.1868
 3094DPPC   C3A58819   9.776  20.786  37.296 -0.0067 -0.1578  0.1655
 3094DPPC   C4A58820   9.484  20.711  36.995  0.0304 -0.2319  0.1583
 3094DPPC   C1B58821   9.851  19.961  38.476 -0.0012  0.0296  0.0864
 3094DPPC   C2B58822  10.097  19.733  38.211 -0.0599 -0.1481 -0.0042
 3094DPPC   C3B58823  10.273  19.476  37.843  0.1948  0.1642 -0.0657
 3094DPPC   C4B58824  10.441  19.165  37.476  0.1569  0.2418  0.2650
 3095DPPC   NC358825   7.225  22.233  25.787 -0.0179  0.1681 -0.4066
 3095DPPC   PO458826   7.264  21.796  25.735 -0.1815  0.0835 -0.0592
 3095DPPC   GL158827   7.670  21.597  25.529 -0.3396 -0.1417  0.4805
 3095DPPC   GL258828   7.944  21.723  25.276  0.0641  0.1727 -0.2956
 3095DPPC   C1A58829   7.915  21.402  25.681 -0.1435 -0.3333 -0.2850
 3095DPPC   C2A58830   8.426  21.335  25.744 -0.0116  0.0991 -0.0828
 3095DPPC   C3A58831   8.806  21.394  25.895 -0.0802 -0.0015  0.1326
 3095DPPC   C4A58832   9.164  21.315  26.222  0.2427  0.2522 -0.0441
 3095DPPC   C1B58833   8.090  21.318  25.233 -0.2105  0.0386 -0.0042
 3095DPPC   C2B58834   7.834  21.048  25.352 -0.0871  0.0142  0.3124
 3095DPPC   C3B58835   7.615  20.751  25.343  0.0911 -0.1724  0.0754
 3095DPPC   C4B58836   7.237  20.427  25.312  0.1226  0.0764 -0.2081
 3096DPPC   NC358837  19.894  16.147  23.813  0.2208 -0.2191  0.0514
 3096DPPC   PO458838  20.234  16.111  23.507  0.1656 -0.3724 -0.1125
 3096DPPC   GL158839  20.708  16.260  23.668 -0.2269  0.1599  0.0924
 3096DPPC   GL258840  20.941  16.133  23.604 -0.2899 -0.2621 -0.0884
 3096DPPC   C1A58841  20.810  16.665  23.842  0.1811  0.0148  0.0640
 3096DPPC   C2A58842  21.052  16.945  23.904  0.1573  0.0185 -0.0539
 3096DPPC   C3A58843  21.126  17.278  24.186 -0.2653 -0.0019 -0.0973
 3096DPPC   C4A58844  21.004  17.647  24.418 -0.2552 -0.0265 -0.2969
 3096DPPC   C1B58845  21.368  16.238  23.484  0.0748  0.0275  0.1133
 3096DPPC   C2B58846  21.771  16.400  23.604 -0.1237 -0.4026 -0.1134
 3096DPPC   C3B58847  21.867  16.654  23.947 -0.1016  0.0185  0.0333
 3096DPPC   C4B58848  21.875  16.519  24.243 -0.0338  0.3419 -0.1468
 3097DPPC   NC358849  19.446  13.935  19.056 -0.0752  0.1007 -0.1507
 3097DPPC   PO458850  19.227  14.307  19.256  0.0935 -0.0553 -0.3362
 3097DPPC   GL158851  19.064  14.273  18.895 -0.0962 -0.0637 -0.0087
 3097DPPC   GL258852  18.887  14.603  18.776 -0.4616  0.0433  0.0943
 3097DPPC   C1A58853  19.195  14.312  18.551 -0.1359  0.1108 -0.4478
 3097DPPC   C2A58854  18.998  14.458  18.174 -0.0678 -0.2410 -0.2178
 3097DPPC   C3A58855  18.803  14.230  17.875  0.1418 -0.0389 -0.1793
 3097DPPC   C4A58856  18.516  14.147  17.581  0.2327  0.1304  0.0837
 3097DPPC   C1B58857  19.198  14.972  18.553 -0.0225 -0.0823 -0.3283
 3097DPPC   C2B58858  19.317  14.991  18.103  0.2328  0.0712  0.1494
 3097DPPC   C3B58859  19.713  14.821  17.879 -0.0840 -0.0848  0.1665
 3097DPPC   C4B58860  19.733  14.708  17.476 -0.2595  0.1762 -0.3782
 3098DPPC   NC358861  18.523  15.496  20.147  0.1799  0.3599  0.0496
 3098DPPC   PO458862  18.606  15.818  19.910 -0.0993  0.3531  0.0145
 3098DPPC   GL158863  18.775  15.922  19.567 -0.0332  0.2000  0.0624
 3098DPPC   GL258864  19.024  15.836  19.528 -0.0967  0.2840 -0.0644
 3098DPPC   C1A58865  18.818  16.211  19.346  0.0111 -0.0969  0.0195
 3098DPPC   C2A58866  19.058  16.477  19.062 -0.1584 -0.1752  0.1786
 3098DPPC   C3A58867  19.395  16.676  18.998  0.2754 -0.3101 -0.0426
 3098DPPC   C4A58868  19.645  17.060  18.974  0.1348  0.0894 -0.4060
 3098DPPC   C1B58869  19.355  15.788  19.401 -0.1007 -0.1790  0.1970
 3098DPPC   C2B58870  19.730  15.697  19.211 -0.0577  0.0369  0.2098
 3098DPPC   C3B58871  20.021  15.958  18.980 -0.1314 -0.0401  0.1829
 3098DPPC   C4B58872  20.249  16.358  18.902 -0.0639  0.0006 -0.0626
 3099DPPC   NC358873  16.531  23.365  37.146 -0.1483  0.3959 -0.0850
 3099DPPC   PO458874  16.722  23.321  37.550 -0.0650 -0.0632 -0.2505
 3099DPPC   GL158875  16.821  22.868  37.335 -0.2146 -0.0716  0.0850
 3099DPPC   GL258876  16.653  22.550  37.400 -0.2385  0.2073  0.0356
 3099DPPC   C1A58877  16.737  22.615  36.910  0.0585 -0.0363  0.2460
 3099DPPC   C2A58878  16.561  22.237  36.767  0.4096  0.2267  0.0168
 3099DPPC   C3A58879  16.378  21.915  36.508 -0.2741  0.0384 -0.0707
 3099DPPC   C4A58880  16.520  21.473  36.299  0.3257 -0.2407 -0.0634
 3099DPPC   C1B58881  16.403  22.228  37.217 -0.3294  0.1982 -0.3177
 3099DPPC   C2B58882  16.325  21.799  37.000  0.0187  0.1951 -0.3245
 3099DPPC   C3B58883  16.288  21.456  36.724  0.2034 -0.1631 -0.2211
 3099DPPC   C4B58884  16.465  21.031  36.593 -0.0868  0.0209  0.0130
 3100DPPC   NC358885   8.633   2.762  25.710 -0.1807  0.1477 -0.2572
 3100DPPC   PO458886   9.086   2.895  25.705  0.1114 -0.1219 -0.2013
 3100DPPC   GL158887   9.494   3.123  25.667  0.1547  0.0490 -0.1371
 3100DPPC   GL258888   9.615   3.271  25.427  0.2128 -0.4437 -0.2019
 3100DPPC   C1A58889   9.905   3.001  25.874  0.2963  0.1108 -0.4116
 3100DPPC   C2A58890   9.927   3.124  26.407 -0.0132 -0.1109  0.1402
 3100DPPC   C3A58891   9.799   3.485  26.664  0.2914  0.1585 -0.0017
 3100DPPC   C4A58892   9.972   3.704  26.925 -0.2701  0.3568  0.1599
 3100DPPC   C1B58893   9.962   3.490  25.632  0.1366 -0.2444 -0.2318
 3100DPPC   C2B58894  10.200   3.735  25.944  0.0451 -0.2038 -0.0143
 3100DPPC   C3B58895  10.604   3.946  26.163 -0.0831 -0.3149  0.1767
 3100DPPC   C4B58896  10.984   4.069  26.371  0.1691 -0.1548  0.2644
 3101DPPC   NC358897  26.899   8.796  23.501 -0.1182  0.0142  0.0095
 3101DPPC   PO458898  26.532   9.190  23.678 -0.0819  0.1165 -0.0581
 3101DPPC   GL158899  26.030   9.164  23.731  0.1986 -0.1100 -0.1229
 3101DPPC   GL258900  26.018   9.467  23.840 -0.0068  0.1657 -0.2874
 3101DPPC   C1A58901  25.539   9.210  23.736  0.0746 -0.2719 -0.0959
 3101DPPC   C2A58902  24.963   9.321  23.788 -0.3605 -0.0129 -0.0376
 3101DPPC   C3A58903  24.611   9.327  23.533 -0.0543 -0.1486 -0.1210
 3101DPPC   C4A58904  24.192   9.226  23.373  0.2296  0.0061 -0.0490
 3101DPPC   C1B58905  25.626   9.779  23.744  0.0500  0.1726 -0.1418
 3101DPPC   C2B58906  25.379   9.853  23.374  0.1117 -0.2601 -0.0664
 3101DPPC   C3B58907  25.086   9.985  23.122 -0.1263 -0.1765  0.2365
 3101DPPC   C4B58908  24.718  10.194  22.945 -0.0644 -0.1656  0.0265
 3102DPPC   NC358909   1.188   9.511  33.054 -0.2323  0.0198  0.1506
 3102DPPC   PO458910   1.006   9.501  32.803  0.0557  0.1436  0.1467
 3102DPPC   GL158911   0.476   9.456  32.908 -0.0204  0.1168 -0.0343
 3102DPPC   GL258912   0.230   9.753  32.930  0.0781 -0.2309  0.3451
 3102DPPC   C1A58913   0.038   9.452  32.593 -0.0187  0.1810  0.0877
 3102DPPC   C2A58914  26.704   9.317  32.658  0.2110  0.1275 -0.0882
 3102DPPC   C3A58915  26.280   9.244  32.562 -0.4066  0.2647 -0.1052
 3102DPPC   C4A58916  25.902   9.336  32.416  0.2203  0.2387  0.1453
 3102DPPC   C1B58917  26.860   9.691  33.053 -0.0099  0.0603  0.0861
 3102DPPC   C2B58918  26.502   9.702  33.438 -0.1257  0.0997  0.4646
 3102DPPC   C3B58919  26.125   9.875  33.276 -0.2633 -0.0780 -0.2653
 3102DPPC   C4B58920  25.889   9.842  32.845 -0.1733  0.3879 -0.0836
 3103DPPC   NC358921  22.390  18.282  19.797 -0.1446  0.1977  0.3609
 3103DPPC   PO458922  22.126  18.381  20.150 -0.1813  0.0308 -0.0661
 3103DPPC   GL158923  21.638  18.430  20.191 -0.2439 -0.1646 -0.2688
 3103DPPC   GL258924  21.393  18.647  20.405  0.1163  0.2579 -0.3807
 3103DPPC   C1A58925  21.344  18.047  20.328 -0.1233 -0.0478  0.2404
 3103DPPC   C2A58926  21.007  17.839  20.740  0.0626 -0.1472 -0.5312
 3103DPPC   C3A58927  20.732  17.716  20.995  0.1312  0.1870 -0.1319
 3103DPPC   C4A58928  20.541  17.407  21.269  0.1540 -0.3129  0.0061
 3103DPPC   C1B58929  21.617  18.245  20.719  0.1917  0.1223  0.3128
 3103DPPC   C2B58930  21.447  17.887  20.991  0.0144  0.2489  0.1129
 3103DPPC   C3B58931  21.244  17.482  21.055 -0.0850 -0.4535 -0.0279
 3103DPPC   C4B58932  21.149  17.124  21.305  0.2754  0.2754 -0.0985
 3104DPPC   NC358933   9.443  24.241  34.243 -0.0527 -0.4549  0.2561
 3104DPPC   PO458934   9.793  24.213  34.443 -0.0677  0.1458  0.0556
 3104DPPC   GL158935   9.781  23.783  34.294  0.3306  0.0669 -0.1747
 3104DPPC   GL258936   9.722  23.562  34.404  0.0494 -0.1498  0.1011
 3104DPPC   C1A58937  10.111  23.609  34.082 -0.2618 -0.2957 -0.0182
 3104DPPC   C2A58938  10.158  23.260  33.888 -0.3266 -0.0618 -0.1676
 3104DPPC   C3A58939  10.150  22.889  33.981  0.0843  0.1949 -0.1437
 3104DPPC   C4A58940  10.212  22.539  33.767 -0.1986  0.2145 -0.2453
 3104DPPC   C1B58941   9.853  23.161  34.275 -0.1305 -0.1355 -0.2508
 3104DPPC   C2B58942   9.724  22.737  34.280 -0.0944 -0.1239 -0.0072
 3104DPPC   C3B58943   9.832  22.242  34.282 -0.3498  0.0825 -0.1140
 3104DPPC   C4B58944  10.083  21.786  34.435  0.0826  0.0100  0.0161
 3105DPPC   NC358945   5.684  13.165  21.762 -0.1075  0.0440 -0.0635
 3105DPPC   PO458946   5.971  13.418  21.405  0.2493 -0.1544 -0.0264
 3105DPPC   GL158947   6.436  13.469  21.558 -0.0859 -0.2252 -0.0569
 3105DPPC   GL258948   6.557  13.724  21.631  0.1596  0.3531  0.0487
 3105DPPC   C1A58949   6.877  13.354  21.566 -0.2046 -0.2139 -0.1648
 3105DPPC   C2A58950   7.318  13.413  21.492  0.0661 -0.0863  0.3040
 3105DPPC   C3A58951   7.696  13.468  21.742 -0.4153  0.1343  0.1576
 3105DPPC   C4A58952   8.034  13.558  21.934  0.0745  0.3121 -0.2192
 3105DPPC   C1B58953   6.896  13.854  21.655  0.4397 -0.0461 -0.2061
 3105DPPC   C2B58954   7.232  14.084  21.934 -0.0951 -0.1467 -0.2865
 3105DPPC   C3B58955   7.438  14.091  22.318 -0.0998 -0.0184 -0.2563
 3105DPPC   C4B58956   7.402  14.199  22.664 -0.0997 -0.2623  0.3530
 3106DPPC   NC358957  22.076  11.839  22.727  0.1114 -0.0617  0.0937
 3106DPPC   PO458958  22.304  12.092  22.587  0.2045 -0.0196 -0.1265
 3106DPPC   GL158959  22.762  12.186  22.657 -0.1198 -0.1007 -0.2554
 3106DPPC   GL258960  22.777  12.518  22.688  0.3827 -0.5314 -0.0847
 3106DPPC   C1A58961  23.191  12.200  22.724  0.2017 -0.0083 -0.2186
 3106DPPC   C2A58962  23.551  12.214  22.454 -0.0475  0.1167  0.0313
 3106DPPC   C3A58963  23.940  12.400  22.279  0.3119  0.0243 -0.2744
 3106DPPC   C4A58964  24.358  12.551  21.996  0.1815  0.1364 -0.0569
 3106DPPC   C1B58965  23.123  12.631  22.454  0.0717  0.0570 -0.2098
 3106DPPC   C2B58966  23.492  12.956  22.463 -0.3140  0.1260  0.2007
 3106DPPC   C3B58967  23.674  13.313  22.613 -0.1811  0.4888 -0.0729
 3106DPPC   C4B58968  24.150  13.357  22.575 -0.0026  0.0798  0.1540
 3107DPPC   NC358969  18.285  23.954  32.577 -0.0191  0.0274  0.1254
 3107DPPC   PO458970  18.641  23.795  32.265 -0.1371  0.2349  0.1804
 3107DPPC   GL158971  18.374  23.480  32.289  0.0881 -0.1311 -0.2112
 3107DPPC   GL258972  18.365  23.219  31.978  0.2980 -0.2088 -0.1965
 3107DPPC   C1A58973  17.899  23.228  32.363 -0.1735 -0.0139  0.1518
 3107DPPC   C2A58974  17.624  22.967  32.247  0.3175 -0.0047 -0.0596
 3107DPPC   C3A58975  17.573  22.512  32.132 -0.0883  0.1450 -0.1594
 3107DPPC   C4A58976  17.546  22.112  31.858  0.0412 -0.2728  0.5696
 3107DPPC   C1B58977  18.527  22.960  32.295  0.0644 -0.0344 -0.0468
 3107DPPC   C2B58978  18.571  22.727  32.679  0.2233  0.2310  0.0869
 3107DPPC   C3B58979  18.749  22.586  32.907  0.1890  0.1941 -0.2213
 3107DPPC   C4B58980  18.599  22.449  33.269  0.0869 -0.1354 -0.0630
 3108DPPC   NC358981  19.239   5.497  41.827 -0.0946 -0.0416  0.0943
 3108DPPC   PO458982  19.415   5.779  42.159 -0.2232  0.0077 -0.2860
 3108DPPC   GL158983  19.087   5.956  41.783 -0.1019 -0.1603 -0.0286
 3108DPPC   GL258984  18.840   5.852  41.681 -0.1936  0.2288  0.4329
 3108DPPC   C1A58985  19.199   6.163  41.309  0.2971 -0.1223 -0.1212
 3108DPPC   C2A58986  18.951   6.574  41.209  0.2492  0.2608  0.1597
 3108DPPC   C3A58987  18.836   6.917  41.041 -0.3477  0.2127 -0.0974
 3108DPPC   C4A58988  18.528   6.988  40.694  0.1895 -0.0416  0.2209
 3108DPPC   C1B58989  18.972   5.749  41.192  0.2682  0.1137  0.1400
 3108DPPC   C2B58990  19.318   5.800  40.926  0.2100 -0.0361  0.2468
 3108DPPC   C3B58991  19.470   5.871  40.492 -0.1755  0.4335  0.1720
 3108DPPC   C4B58992  19.493   5.943  39.962  0.1568  0.1609 -0.1815
 3109DPPC   NC358993  20.062   8.171  21.551  0.2150 -0.3876 -0.0373
 3109DPPC   PO458994  20.062   8.442  21.197  0.0997  0.0793 -0.2092
 3109DPPC   GL158995  20.021   8.250  20.850  0.1765  0.1781 -0.3150
 3109DPPC   GL258996  19.777   8.312  20.700 -0.0710  0.1970  0.0219
 3109DPPC   C1A58997  20.262   8.101  20.479 -0.1692 -0.2094 -0.0860
 3109DPPC   C2A58998  20.347   7.968  20.069  0.1820 -0.0711  0.0142
 3109DPPC   C3A58999  20.431   7.619  19.871  0.2476  0.0886 -0.0320
 3109DPPC   C4A59000  20.752   7.293  19.708  0.0847 -0.1493  0.1577
 3109DPPC   C1B59001  19.796   7.952  20.355 -0.2085  0.1651 -0.0307
 3109DPPC   C2B59002  19.947   7.678  20.070  0.0725  0.0014  0.1850
 3109DPPC   C3B59003  19.745   7.457  19.734  0.0157  0.2785 -0.2914
 3109DPPC   C4B59004  19.717   7.300  19.373  0.0760 -0.2226  0.5898
 3110DPPC   NC359005  15.654  16.019  19.909  0.1335  0.2002 -0.1271
 3110DPPC   PO459006  15.950  16.294  19.828  0.0233 -0.1883 -0.0478
 3110DPPC   GL159007  16.103  16.365  19.500  0.0804  0.0291  0.2022
 3110DPPC   GL259008  15.898  16.648  19.392  0.4981 -0.2288 -0.3032
 3110DPPC   C1A59009  16.364  16.267  19.127 -0.3245 -0.0479  0.0403
 3110DPPC   C2A59010  16.311  16.257  18.634 -0.0455 -0.1226  0.2721
 3110DPPC   C3A59011  16.383  16.320  18.161  0.1024 -0.0958 -0.4223
 3110DPPC   C4A59012  16.327  16.734  18.025  0.0727 -0.3694 -0.3428
 3110DPPC   C1B59013  15.950  16.642  18.996 -0.0687 -0.1323  0.0562
 3110DPPC   C2B59014  15.796  16.877  18.671 -0.1023 -0.1917 -0.0087
 3110DPPC   C3B59015  15.866  16.792  18.235  0.1543 -0.2890  0.2051
 3110DPPC   C4B59016  15.837  16.799  17.772 -0.0624  0.0669 -0.0755
 3111DPPC   NC359017  18.866  17.227  23.470 -0.0838  0.0897 -0.2584
 3111DPPC   PO459018  18.886  17.590  23.144 -0.0956  0.1481 -0.0277
 3111DPPC   GL159019  19.255  17.876  23.236  0.0873  0.4512 -0.4639
 3111DPPC   GL259020  19.188  18.179  23.157 -0.1333  0.0847  0.1028
 3111DPPC   C1A59021  19.620  18.068  23.535  0.1436 -0.2716  0.0679
 3111DPPC   C2A59022  19.931  18.169  23.983  0.0083 -0.0807  0.0929
 3111DPPC   C3A59023  20.169  17.942  24.283  0.0967 -0.1636  0.0877
 3111DPPC   C4A59024  20.631  17.979  24.432  0.0783  0.1103 -0.0155
 3111DPPC   C1B59025  19.605  18.005  22.968 -0.1993  0.1390  0.2418
 3111DPPC   C2B59026  19.900  18.183  22.703 -0.0712  0.2307  0.1656
 3111DPPC   C3B59027  19.986  18.356  22.237 -0.0670 -0.1430 -0.1282
 3111DPPC   C4B59028  20.168  18.142  21.837  0.0009 -0.0326  0.1196
 3112DPPC   NC359029  15.599  13.776  19.428  0.0413  0.0685 -0.6714
 3112DPPC   PO459030  15.674  14.199  19.302 -0.3795 -0.1073 -0.1607
 3112DPPC   GL159031  15.402  14.298  18.931  0.0647 -0.2555  0.0680
 3112DPPC   GL259032  15.585  14.015  18.717 -0.1474 -0.1109  0.1153
 3112DPPC   C1A59033  15.256  14.571  18.558  0.1808 -0.1968  0.0637
 3112DPPC   C2A59034  15.309  14.734  18.161  0.3147  0.1752 -0.0081
 3112DPPC   C3A59035  15.475  14.801  17.814 -0.2069  0.0353 -0.0537
 3112DPPC   C4A59036  15.348  14.762  17.400 -0.2512 -0.2393 -0.1158
 3112DPPC   C1B59037  15.141  14.116  18.489 -0.0208 -0.1594 -0.0622
 3112DPPC   C2B59038  15.124  14.244  18.064 -0.4457  0.0773 -0.3666
 3112DPPC   C3B59039  14.963  14.541  17.778  0.3130 -0.0951 -0.1885
 3112DPPC   C4B59040  14.733  14.892  17.535 -0.2230 -0.2559  0.3021
 3113DPPC   NC359041  11.765   3.176  38.456 -0.0605  0.2843  0.1502
 3113DPPC   PO459042  11.619   3.008  38.124  0.6089  0.3846 -0.2416
 3113DPPC   GL159043  11.602   3.219  37.739 -0.0758 -0.1623 -0.2775
 3113DPPC   GL259044  11.384   3.485  37.659 -0.0605  0.0854  0.3168
 3113DPPC   C1A59045  11.762   3.362  37.322 -0.1550 -0.2817  0.3497
 3113DPPC   C2A59046  11.904   3.719  37.174 -0.2794 -0.2155 -0.0965
 3113DPPC   C3A59047  12.086   4.052  37.423 -0.0162  0.3081  0.1202
 3113DPPC   C4A59048  12.509   4.150  37.434 -0.3426 -0.2446  0.0043
 3113DPPC   C1B59049  11.842   3.648  37.753 -0.1717 -0.2376  0.1055
 3113DPPC   C2B59050  12.184   3.597  37.907 -0.6654 -0.2601  0.1640
 3113DPPC   C3B59051  12.611   3.765  37.711 -0.1099 -0.2152 -0.0426
 3113DPPC   C4B59052  12.921   4.011  37.659 -0.0731  0.0536  0.0988
 3114DPPC   NC359053  13.064   8.877  16.666 -0.1703 -0.0126  0.0878
 3114DPPC   PO459054  13.175   8.423  16.943  0.1494 -0.0095  0.0307
 3114DPPC   GL159055  13.275   8.086  17.349  0.0682  0.1250  0.2360
 3114DPPC   GL259056  13.190   7.769  17.348 -0.1332 -0.4552  0.1559
 3114DPPC   C1A59057  13.270   8.106  17.712 -0.1041 -0.2589  0.2075
 3114DPPC   C2A59058  13.309   8.291  18.052 -0.0677  0.1295  0.1971
 3114DPPC   C3A59059  13.609   8.503  18.374  0.0609 -0.1613 -0.0097
 3114DPPC   C4A59060  13.618   8.740  18.843 -0.1770 -0.0229  0.1421
 3114DPPC   C1B59061  13.364   7.604  17.756 -0.0409  0.0785  0.1751
 3114DPPC   C2B59062  13.614   7.498  18.160  0.0493  0.1021 -0.0192
 3114DPPC   C3B59063  13.859   7.557  18.523 -0.1013 -0.3205 -0.2273
 3114DPPC   C4B59064  13.859   7.609  18.989  0.1637 -0.0730  0.2737
 3115DPPC   NC359065   0.249  14.710  31.358 -0.2665 -0.1945  0.0619
 3115DPPC   PO459066   0.148  14.449  31.020 -0.1117 -0.3017  0.2882
 3115DPPC   GL159067  27.017  14.127  31.286  0.0439  0.0516  0.1288
 3115DPPC   GL259068   0.145  13.913  31.518 -0.1327  0.3991  0.0566
 3115DPPC   C1A59069  26.659  13.886  31.559 -0.3256 -0.2305 -0.0207
 3115DPPC   C2A59070  26.265  13.759  31.472  0.0748  0.1162  0.2971
 3115DPPC   C3A59071  25.869  13.513  31.460  0.0349 -0.0935 -0.0509
 3115DPPC   C4A59072  25.457  13.346  31.573  0.1457 -0.0604  0.1812
 3115DPPC   C1B59073  26.989  13.969  31.888 -0.1330 -0.0490  0.1586
 3115DPPC   C2B59074  26.767  13.777  32.056 -0.1550  0.0776 -0.1973
 3115DPPC   C3B59075  26.487  13.567  31.951  0.3028  0.1851 -0.1150
 3115DPPC   C4B59076  26.079  13.416  31.913  0.0354 -0.0330 -0.0221
 3116DPPC   NC359077  21.012  11.429  20.195 -0.2002  0.1272  0.0764
 3116DPPC   PO459078  20.841  11.813  19.908 -0.1993  0.1737 -0.3145
 3116DPPC   GL159079  21.228  11.817  19.635  0.2237  0.0897 -0.1021
 3116DPPC   GL259080  21.425  11.606  19.478 -0.0619  0.0562  0.1512
 3116DPPC   C1A59081  21.658  12.041  19.303  0.0389 -0.1670  0.1232
 3116DPPC   C2A59082  22.080  12.276  19.304 -0.2375 -0.0873  0.2251
 3116DPPC   C3A59083  22.350  12.611  19.204  0.1535 -0.0886  0.1653
 3116DPPC   C4A59084  22.430  13.111  19.259  0.1488 -0.0670 -0.0914
 3116DPPC   C1B59085  21.683  11.605  19.110  0.0610 -0.3215 -0.0565
 3116DPPC   C2B59086  22.028  11.852  19.019 -0.2340 -0.4585 -0.0989
 3116DPPC   C3B59087  22.438  11.798  19.086  0.2993  0.0596 -0.0868
 3116DPPC   C4B59088  22.876  11.657  19.103  0.2186 -0.0527  0.0782
 3117DPPC   NC359089  19.717  14.047  19.606 -0.0879  0.0249 -0.1374
 3117DPPC   PO459090  19.876  13.760  19.317 -0.0453  0.2195 -0.1385
 3117DPPC   GL159091  19.950  14.189  19.171 -0.0797  0.1968  0.0244
 3117DPPC   GL259092  19.734  14.453  19.280 -0.0555 -0.1664 -0.0750
 3117DPPC   C1A59093  20.021  14.335  18.763  0.2177 -0.0422 -0.1531
 3117DPPC   C2A59094  20.257  14.677  18.601  0.1532  0.1908  0.1125
 3117DPPC   C3A59095  20.510  14.928  18.528  0.3085 -0.0222 -0.1367
 3117DPPC   C4A59096  20.490  15.355  18.579 -0.1169 -0.1492 -0.2069
 3117DPPC   C1B59097  19.952  14.766  19.058  0.5194 -0.0278 -0.3645
 3117DPPC   C2B59098  20.228  15.034  18.924  0.0975  0.0283  0.3465
 3117DPPC   C3B59099  20.551  15.094  19.102 -0.0056 -0.4563 -0.2238
 3117DPPC   C4B59100  20.866  14.804  18.883  0.0286  0.1725  0.2027
 3118DPPC   NC359101   8.502  20.125  21.003 -0.0086 -0.0208 -0.1552
 3118DPPC   PO459102   8.854  19.913  21.245 -0.1158  0.0181 -0.1782
 3118DPPC   GL159103   9.127  19.598  21.523 -0.2032 -0.0365 -0.0579
 3118DPPC   GL259104   9.092  19.319  21.600 -0.1560 -0.1689  0.1519
 3118DPPC   C1A59105   9.574  19.456  21.767 -0.2171  0.0790  0.0425
 3118DPPC   C2A59106   9.901  19.300  22.025  0.2330  0.0023 -0.1878
 3118DPPC   C3A59107  10.197  19.321  22.421  0.3050 -0.1342  0.0549
 3118DPPC   C4A59108  10.636  19.340  22.642 -0.1353  0.1619 -0.2274
 3118DPPC   C1B59109   9.009  18.943  21.821  0.1876  0.2222  0.1333
 3118DPPC   C2B59110   9.003  18.573  21.684 -0.0375  0.1341 -0.4730
 3118DPPC   C3B59111   9.109  18.143  21.623 -0.2231 -0.2564 -0.3908
 3118DPPC   C4B59112   9.291  17.825  21.609  0.1479  0.0268 -0.1155
 3119DPPC   NC359113  14.532  22.283  19.139  0.2395 -0.0874  0.0988
 3119DPPC   PO459114  14.310  22.597  19.512  0.1358  0.1112  0.0224
 3119DPPC   GL159115  14.494  22.143  19.652 -0.2476  0.0921  0.0672
 3119DPPC   GL259116  14.275  22.033  19.819 -0.1990  0.1159 -0.2704
 3119DPPC   C1A59117  14.754  21.903  19.901 -0.0555 -0.1245  0.0966
 3119DPPC   C2A59118  15.063  21.564  19.846 -0.1894 -0.0307 -0.0137
 3119DPPC   C3A59119  15.128  21.129  19.944  0.2054 -0.0821 -0.1183
 3119DPPC   C4A59120  15.160  20.811  20.297  0.6439 -0.1856  0.1476
 3119DPPC   C1B59121  14.359  21.667  20.078  0.0545  0.1870  0.3825
 3119DPPC   C2B59122  14.480  21.293  20.143 -0.3347  0.1513  0.0647
 3119DPPC   C3B59123  14.599  20.894  20.220  0.0107 -0.0811 -0.2396
 3119DPPC   C4B59124  14.661  20.444  20.207  0.1243  0.1179 -0.1492
 3120DPPC   NC359125  13.797  17.808  16.319 -0.3056  0.1436 -0.0014
 3120DPPC   PO459126  14.074  17.583  16.626  0.0760 -0.1534  0.2306
 3120DPPC   GL159127  14.237  17.458  17.049 -0.1209 -0.3563  0.0716
 3120DPPC   GL259128  14.046  17.386  17.098  0.1500  0.0927 -0.2444
 3120DPPC   C1A59129  14.554  17.225  17.280  0.1825 -0.0275 -0.1267
 3120DPPC   C2A59130  14.757  17.325  17.715  0.1012  0.0218 -0.2234
 3120DPPC   C3A59131  14.633  17.502  18.072  0.2260 -0.0034  0.1064
 3120DPPC   C4A59132  14.290  17.767  18.235 -0.1195  0.1229 -0.0844
 3120DPPC   C1B59133  13.808  17.468  17.449  0.1109 -0.1425  0.1766
 3120DPPC   C2B59134  13.762  17.068  17.727 -0.1825  0.0800 -0.0592
 3120DPPC   C3B59135  13.519  16.807  17.946  0.1335 -0.2878  0.0668
 3120DPPC   C4B59136  13.092  16.814  18.060  0.3869 -0.0539 -0.0330
 3121DPPC   NC359137  14.007  10.765  20.596  0.1648  0.0208 -0.0607
 3121DPPC   PO459138  13.556  10.721  20.717  0.0933  0.0697 -0.3288
 3121DPPC   GL159139  13.229  10.663  20.794 -0.2176  0.0950 -0.2190
 3121DPPC   GL259140  13.110  10.902  20.625  0.2560 -0.2286  0.0077
 3121DPPC   C1A59141  12.915  10.332  20.487 -0.2066  0.0255 -0.0478
 3121DPPC   C2A59142  12.912   9.913  20.265  0.3119 -0.4295 -0.0732
 3121DPPC   C3A59143  13.090   9.674  19.831  0.1711  0.1494  0.3732
 3121DPPC   C4A59144  12.919   9.346  19.535 -0.0420  0.0328  0.1214
 3121DPPC   C1B59145  13.154  11.171  20.167 -0.0444 -0.0127  0.0105
 3121DPPC   C2B59146  12.794  11.413  20.117  0.1636 -0.2835  0.0301
 3121DPPC   C3B59147  12.512  11.220  19.934  0.0440 -0.0737  0.0896
 3121DPPC   C4B59148  12.165  11.019  19.606  0.2953 -0.1341 -0.3544
 3122DPPC   NC359149  21.685   1.522  33.981 -0.1023 -0.1609  0.1815
 3122DPPC   PO459150  21.737   1.754  33.764 -0.3111  0.3020 -0.0622
 3122DPPC   GL159151  21.588   2.235  33.659  0.0836  0.2717 -0.1116
 3122DPPC   GL259152  21.887   2.376  33.811  0.0834 -0.0262 -0.0850
 3122DPPC   C1A59153  21.390   2.565  33.479  0.0750  0.0595  0.0447
 3122DPPC   C2A59154  20.976   2.624  33.400  0.0870 -0.4703  0.0479
 3122DPPC   C3A59155  20.688   2.822  33.248  0.1287  0.0672  0.0889
 3122DPPC   C4A59156  20.329   2.653  33.048 -0.0053 -0.3885 -0.0211
 3122DPPC   C1B59157  21.686   2.774  33.790 -0.1563  0.2374  0.0534
 3122DPPC   C2B59158  21.449   3.105  33.608  0.0599  0.1929  0.3198
 3122DPPC   C3B59159  21.002   3.117  33.422  0.0351 -0.0576 -0.2252
 3122DPPC   C4B59160  20.785   3.397  33.217  0.0009 -0.1014  0.2254
 3123DPPC   NC359161  19.377  16.543  23.397  0.1064  0.2101 -0.0611
 3123DPPC   PO459162  19.257  16.998  23.193  0.0685 -0.0095  0.2064
 3123DPPC   GL159163  19.474  17.361  23.092  0.1859 -0.1717 -0.0139
 3123DPPC   GL259164  19.320  17.487  22.830  0.1375  0.0050 -0.2906
 3123DPPC   C1A59165  19.812  17.657  23.274  0.4172 -0.3338 -0.0182
 3123DPPC   C2A59166  20.144  17.898  23.522  0.1837  0.2628 -0.1900
 3123DPPC   C3A59167  20.375  18.182  23.729  0.1584 -0.1871  0.3596
 3123DPPC   C4A59168  20.411  18.415  24.133  0.1810  0.0618  0.2501
 3123DPPC   C1B59169  19.765  17.580  22.740  0.0407  0.1262 -0.2428
 3123DPPC   C2B59170  20.077  17.715  22.789  0.1269  0.0231  0.2043
 3123DPPC   C3B59171  20.331  17.926  22.942 -0.0647  0.0709  0.0529
 3123DPPC   C4B59172  20.714  17.980  23.034 -0.0459 -0.1671  0.0459
 3124DPPC   NC359173  20.739  17.296  41.056  0.0316 -0.1200 -0.3694
 3124DPPC   PO459174  20.873  17.042  41.320 -0.0412 -0.1287  0.0868
 3124DPPC   GL159175  20.524  16.856  41.014 -0.1857 -0.0938 -0.0971
 3124DPPC   GL259176  20.330  17.061  40.850 -0.0843 -0.0277  0.1951
 3124DPPC   C1A59177  20.581  16.624  40.700 -0.4202 -0.4553  0.0802
 3124DPPC   C2A59178  20.640  16.263  40.301  0.0021 -0.3294  0.1441
 3124DPPC   C3A59179  20.629  15.911  39.909 -0.0591 -0.2772 -0.1755
 3124DPPC   C4A59180  20.729  15.729  39.509  0.1389  0.0995 -0.1870
 3124DPPC   C1B59181  20.612  17.043  40.419 -0.2314  0.0980  0.1543
 3124DPPC   C2B59182  20.433  16.800  40.149  0.3661  0.1377  0.0686
 3124DPPC   C3B59183  20.262  16.504  39.924  0.0085 -0.0730  0.2427
 3124DPPC   C4B59184  19.919  16.162  39.709 -0.2290  0.1699 -0.5383
 3125DPPC   NC359185  17.599  11.953  23.836 -0.1184 -0.1795 -0.0338
 3125DPPC   PO459186  17.974  11.644  23.895 -0.2018 -0.2622 -0.2029
 3125DPPC   GL159187  17.658  11.630  24.244  0.1307 -0.2447 -0.0472
 3125DPPC   GL259188  17.414  11.361  24.316 -0.0205 -0.1306 -0.1446
 3125DPPC   C1A59189  17.338  11.772  24.517 -0.1207  0.1494 -0.0451
 3125DPPC   C2A59190  17.452  11.948  24.947 -0.2691  0.0282  0.0981
 3125DPPC   C3A59191  17.770  12.124  25.062  0.0298  0.1736 -0.3180
 3125DPPC   C4A59192  18.041  12.443  24.998  0.0703  0.1093 -0.1094
 3125DPPC   C1B59193  16.899  11.050  24.415 -0.0208 -0.0503 -0.2380
 3125DPPC   C2B59194  16.538  11.209  24.675  0.0043 -0.1684  0.2382
 3125DPPC   C3B59195  16.560  11.241  25.163  0.0712  0.2506  0.4906
 3125DPPC   C4B59196  16.366  11.330  25.495  0.2789 -0.1782  0.1067
 3126DPPC   NC359197   9.057  17.080  40.565 -0.1482 -0.1266 -0.0155
 3126DPPC   PO459198   9.167  17.522  40.628 -0.0869 -0.2580  0.0469
 3126DPPC   GL159199   9.489  17.401  40.414  0.2019  0.0186  0.1973
 3126DPPC   GL259200   9.596  17.106  40.438 -0.0166  0.0364  0.1819
 3126DPPC   C1A59201   9.458  17.187  39.981 -0.0511 -0.1465 -0.1600
 3126DPPC   C2A59202   9.556  17.269  39.562 -0.0726  0.0398 -0.0065
 3126DPPC   C3A59203   9.787  17.224  39.224 -0.1116 -0.2623  0.1621
 3126DPPC   C4A59204   9.921  16.931  39.058  0.0026 -0.0997  0.2053
 3126DPPC   C1B59205   9.974  17.104  40.173  0.1156  0.0736  0.1786
 3126DPPC   C2B59206  10.354  17.138  40.090  0.1755  0.0840  0.0425
 3126DPPC   C3B59207  10.728  17.304  39.910  0.0164 -0.0594 -0.2602
 3126DPPC   C4B59208  11.120  17.548  39.624  0.0757 -0.0529 -0.0122
 3127DPPC   NC359209  16.955   4.054  40.205 -0.0536  0.2523  0.1771
 3127DPPC   PO459210  16.815   4.320  40.478  0.1663 -0.1957 -0.1348
 3127DPPC   GL159211  16.985   4.619  40.197  0.0321 -0.1872  0.0928
 3127DPPC   GL259212  16.740   4.831  40.134 -0.0871  0.1485  0.1251
 3127DPPC   C1A59213  17.277   4.653  39.960 -0.0834 -0.0144  0.1889
 3127DPPC   C2A59214  17.335   4.909  39.572 -0.2575 -0.2429 -0.2311
 3127DPPC   C3A59215  17.425   5.109  39.099  0.0874  0.1633 -0.0548
 3127DPPC   C4A59216  17.440   5.428  38.773  0.1341 -0.0245 -0.1048
 3127DPPC   C1B59217  16.711   5.185  40.273 -0.0223 -0.2647 -0.0507
 3127DPPC   C2B59218  16.803   5.537  40.535 -0.1004 -0.2935  0.0827
 3127DPPC   C3B59219  17.207   5.784  40.547  0.1498 -0.5716 -0.0594
 3127DPPC   C4B59220  17.521   5.937  40.239  0.2938 -0.0092 -0.1560
 3128DPPC   NC359221  10.571  25.229  29.852  0.1754 -0.1002  0.0121
 3128DPPC   PO459222  11.043  25.030  29.986 -0.2916  0.0075 -0.2594
 3128DPPC   GL159223  11.104  24.598  30.157  0.0766  0.1317 -0.3216
 3128DPPC   GL259224  11.099  24.395  30.382 -0.1302  0.0928 -0.0152
 3128DPPC   C1A59225  10.996  24.317  29.864 -0.0055  0.0778 -0.0676
 3128DPPC   C2A59226  11.070  23.848  29.816  0.1419  0.1040  0.0672
 3128DPPC   C3A59227  11.125  23.425  29.899 -0.0905 -0.2208  0.3684
 3128DPPC   C4A59228  10.990  22.971  30.004  0.1590 -0.1479 -0.0575
 3128DPPC   C1B59229  10.882  23.987  30.395  0.2785 -0.1306 -0.3209
 3128DPPC   C2B59230  10.865  23.573  30.298  0.0021 -0.1973  0.1549
 3128DPPC   C3B59231  10.683  23.215  30.355 -0.0255  0.1096  0.0503
 3128DPPC   C4B59232  10.743  22.775  30.354 -0.1439  0.0359  0.0597
 3129DPPC   NC359233  10.111  10.699  17.813  0.0725  0.3484 -0.1421
 3129DPPC   PO459234   9.772  10.807  18.087 -0.0793 -0.2189 -0.1166
 3129DPPC   GL159235   9.891  11.050  18.520  0.0913 -0.2105  0.2875
 3129DPPC   GL259236   9.708  11.312  18.638  0.0221 -0.1241 -0.0191
 3129DPPC   C1A59237  10.302  11.196  18.743 -0.1433  0.1004 -0.4439
 3129DPPC   C2A59238  10.546  11.126  18.999  0.0064 -0.1280 -0.1336
 3129DPPC   C3A59239  10.729  11.163  19.401 -0.1251 -0.0200  0.0427
 3129DPPC   C4A59240  11.069  11.320  19.673  0.3285  0.2604  0.0166
 3129DPPC   C1B59241   9.844  11.399  19.025  0.1283 -0.2794 -0.2110
 3129DPPC   C2B59242  10.296  11.486  19.260 -0.5228  0.0268  0.0413
 3129DPPC   C3B59243  10.682  11.616  19.530  0.1359  0.0574  0.2533
 3129DPPC   C4B59244  10.844  12.072  19.594 -0.0639 -0.4222  0.0049
 3130DPPC   NC359245  10.704  11.412  42.559  0.2319  0.0678 -0.0266
 3130DPPC   PO459246  10.966  11.600  42.850  0.0434  0.1230  0.1059
 3130DPPC   GL159247  11.147  11.550  42.345  0.0818 -0.3648 -0.0340
 3130DPPC   GL259248  11.573  11.440  42.474 -0.1654 -0.0221 -0.5155
 3130DPPC   C1A59249  11.423  11.619  41.992  0.1588 -0.1390 -0.1548
 3130DPPC   C2A59250  11.591  11.697  41.545  0.2155 -0.2923  0.0307
 3130DPPC   C3A59251  11.852  11.616  41.139 -0.2860  0.2725  0.0924
 3130DPPC   C4A59252  12.067  11.796  40.792  0.2029  0.1098 -0.1329
 3130DPPC   C1B59253  11.840  11.271  42.010  0.2806 -0.2141 -0.2191
 3130DPPC   C2B59254  12.137  11.412  41.694 -0.0771 -0.1905  0.3998
 3130DPPC   C3B59255  12.611  11.198  41.757 -0.0880 -0.1166  0.2766
 3130DPPC   C4B59256  13.042  11.086  41.779 -0.1276  0.0485  0.2268
 3131DPPC   NC359257  12.497  16.531  16.936  0.2722  0.2048 -0.1154
 3131DPPC   PO459258  12.842  16.446  16.956 -0.0955 -0.0745 -0.1059
 3131DPPC   GL159259  13.094  16.319  17.358 -0.0894  0.0892  0.1198
 3131DPPC   GL259260  13.116  16.008  17.282 -0.3043 -0.0341 -0.0444
 3131DPPC   C1A59261  13.238  16.418  17.786 -0.2787 -0.2151  0.1485
 3131DPPC   C2A59262  13.477  16.300  18.151  0.2097  0.1850  0.0506
 3131DPPC   C3A59263  13.913  16.191  18.229 -0.2785 -0.3440 -0.0038
 3131DPPC   C4A59264  14.292  16.305  18.159 -0.2639  0.0469 -0.1346
 3131DPPC   C1B59265  13.481  16.031  17.594  0.2355  0.0346 -0.1407
 3131DPPC   C2B59266  14.024  15.856  17.653 -0.1435 -0.1198 -0.0372
 3131DPPC   C3B59267  14.364  15.817  17.632 -0.1262 -0.0891  0.1267
 3131DPPC   C4B59268  14.728  15.822  17.511 -0.1699  0.0445  0.3676
 3132DPPC   NC359269  26.129  10.642  20.912  0.1410  0.1184 -0.0080
 3132DPPC   PO459270  26.161  10.960  21.139  0.2186  0.1245  0.2123
 3132DPPC   GL159271  25.745  10.996  21.139 -0.1559  0.0724  0.0584
 3132DPPC   GL259272  25.595  10.703  21.132 -0.3223 -0.3660  0.1458
 3132DPPC   C1A59273  25.358  11.000  21.482  0.2836 -0.3134 -0.3221
 3132DPPC   C2A59274  25.021  10.941  21.635  0.2459  0.1364 -0.0384
 3132DPPC   C3A59275  24.713  11.160  21.686 -0.1489 -0.1035  0.5594
 3132DPPC   C4A59276  24.263  11.183  21.646  0.0858 -0.1394  0.0080
 3132DPPC   C1B59277  25.197  10.834  20.997  0.1464 -0.0868  0.4195
 3132DPPC   C2B59278  24.806  10.781  20.854 -0.3497  0.0977 -0.0819
 3132DPPC   C3B59279  24.447  10.825  20.609  0.2332 -0.1542 -0.0608
 3132DPPC   C4B59280  24.138  10.863  20.305 -0.2603 -0.2390  0.0174
 3133DPPC   NC359281  17.920  24.333  30.001 -0.1061  0.0915  0.0540
 3133DPPC   PO459282  18.275  24.611  30.114 -0.2476  0.0607  0.2068
 3133DPPC   GL159283  18.244  23.970  30.061 -0.0279  0.0645 -0.1706
 3133DPPC   GL259284  18.426  23.774  30.202  0.0367 -0.1627 -0.0154
 3133DPPC   C1A59285  17.932  23.596  30.097  0.4660  0.1961  0.0337
 3133DPPC   C2A59286  17.854  23.161  30.073  0.2732 -0.2441 -0.0444
 3133DPPC   C3A59287  17.771  22.678  30.110 -0.2601 -0.1409 -0.0220
 3133DPPC   C4A59288  17.525  22.339  29.900 -0.1012  0.4534  0.2010
 3133DPPC   C1B59289  18.217  23.339  30.376 -0.0352 -0.2553 -0.0838
 3133DPPC   C2B59290  18.087  22.899  30.422  0.1581  0.0981  0.1555
 3133DPPC   C3B59291  18.268  22.600  29.987 -0.1695 -0.1060  0.0858
 3133DPPC   C4B59292  18.228  22.140  29.907 -0.1226 -0.2704  0.2890
 3134DPPC   NC359293  13.833  13.649  23.954 -0.3820  0.2348 -0.1093
 3134DPPC   PO459294  13.964  13.920  24.280  0.1643  0.4054 -0.1526
 3134DPPC   GL159295  14.318  13.810  24.602  0.1505 -0.4034  0.1063
 3134DPPC   GL259296  14.600  14.081  24.619  0.0983 -0.1476  0.1141
 3134DPPC   C1A59297  14.754  13.651  24.412 -0.5270  0.0349 -0.1566
 3134DPPC   C2A59298  15.007  13.423  24.614 -0.0244  0.2156 -0.1455
 3134DPPC   C3A59299  15.298  13.226  24.875 -0.1893  0.0483  0.0445
 3134DPPC   C4A59300  15.506  12.972  25.176 -0.0793  0.3534  0.1222
 3134DPPC   C1B59301  14.889  13.848  24.806 -0.2229 -0.0788  0.0926
 3134DPPC   C2B59302  15.168  13.659  25.169  0.0747  0.2800 -0.0154
 3134DPPC   C3B59303  15.572  13.523  25.419 -0.0666 -0.1733  0.1630
 3134DPPC   C4B59304  15.597  13.090  25.721  0.1501 -0.2508  0.0149
 3135DPPC   NC359305  25.610   7.184  36.032  0.0199 -0.4215 -0.3152
 3135DPPC   PO459306  25.812   7.502  35.700 -0.1602  0.0730  0.1190
 3135DPPC   GL159307  25.417   7.630  35.641 -0.5062  0.1051  0.1160
 3135DPPC   GL259308  25.294   7.569  35.898  0.2212  0.0455 -0.2653
 3135DPPC   C1A59309  25.093   7.689  35.338  0.2907 -0.1254  0.2716
 3135DPPC   C2A59310  24.697   7.723  35.217  0.1056 -0.0078  0.3104
 3135DPPC   C3A59311  24.540   7.850  34.806 -0.2735 -0.0301  0.3759
 3135DPPC   C4A59312  24.240   8.134  34.674 -0.1847 -0.0163  0.1287
 3135DPPC   C1B59313  24.943   7.710  36.200  0.2641  0.2816 -0.0944
 3135DPPC   C2B59314  24.466   7.717  36.075 -0.1814 -0.1305 -0.1426
 3135DPPC   C3B59315  24.058   7.999  36.207 -0.0474  0.2646 -0.1209
 3135DPPC   C4B59316  23.871   8.353  36.498 -0.1199 -0.2248  0.3280
 3136DPPC   NC359317  22.106  12.488  20.871  0.2561 -0.0208  0.2292
 3136DPPC   PO459318  22.080  12.470  21.329  0.0738  0.2628  0.3910
 3136DPPC   GL159319  22.386  12.503  21.567  0.0403  0.0212  0.2883
 3136DPPC   GL259320  22.443  12.824  21.629  0.3007  0.1279 -0.0734
 3136DPPC   C1A59321  22.785  12.385  21.369  0.2204 -0.1049  0.3817
 3136DPPC   C2A59322  23.195  12.444  21.163 -0.0510  0.0360 -0.1756
 3136DPPC   C3A59323  23.587  12.284  21.263 -0.0426 -0.0147 -0.0165
 3136DPPC   C4A59324  23.881  12.084  21.150  0.0146 -0.2042  0.1663
 3136DPPC   C1B59325  22.835  12.875  21.338 -0.1986  0.1828  0.1257
 3136DPPC   C2B59326  23.199  12.959  21.057 -0.2032 -0.0202 -0.1369
 3136DPPC   C3B59327  23.288  13.062  20.656 -0.2089  0.0480  0.0165
 3136DPPC   C4B59328  23.681  12.847  20.494  0.0578  0.0615  0.1185
 3137DPPC   NC359329   3.869  12.708  32.871 -0.0609  0.0809  0.1590
 3137DPPC   PO459330   3.524  12.979  33.133  0.3138  0.1383 -0.1713
 3137DPPC   GL159331   4.025  12.922  33.257 -0.1757 -0.1031 -0.0775
 3137DPPC   GL259332   4.094  12.735  33.602  0.0745 -0.1543  0.1288
 3137DPPC   C1A59333   4.459  12.907  33.329 -0.2846  0.2093  0.0980
 3137DPPC   C2A59334   4.735  12.746  33.530  0.0659 -0.0440  0.1977
 3137DPPC   C3A59335   5.109  12.984  33.668 -0.3858 -0.3603 -0.4823
 3137DPPC   C4A59336   5.506  13.090  33.803  0.2022  0.0282 -0.0307
 3137DPPC   C1B59337   4.328  12.334  33.462 -0.0868 -0.0288  0.0856
 3137DPPC   C2B59338   4.631  12.037  33.607  0.0396  0.0207  0.2048
 3137DPPC   C3B59339   4.964  11.904  33.815 -0.1149 -0.0567 -0.1209
 3137DPPC   C4B59340   5.225  11.747  34.039  0.0771  0.0897 -0.1860
 3138DPPC   NC359341  20.236   1.044  24.612  0.0175  0.1325 -0.3032
 3138DPPC   PO459342  20.178   0.975  25.035  0.0485 -0.0960  0.0743
 3138DPPC   GL159343  20.050   1.393  25.085  0.0324  0.1544  0.1460
 3138DPPC   GL259344  19.851   1.432  24.685 -0.0977  0.1222 -0.1535
 3138DPPC   C1A59345  19.862   1.765  25.246  0.2901 -0.0571 -0.0953
 3138DPPC   C2A59346  19.750   2.194  25.458 -0.2163 -0.0578  0.1333
 3138DPPC   C3A59347  19.390   2.459  25.712 -0.3146 -0.0294 -0.0716
 3138DPPC   C4A59348  19.326   2.780  26.040  0.2148  0.1496  0.0249
 3138DPPC   C1B59349  19.728   1.828  24.611  0.2711 -0.1608  0.2218
 3138DPPC   C2B59350  19.205   1.949  24.489  0.1111  0.3606 -0.0673
 3138DPPC   C3B59351  18.886   2.022  24.846 -0.2481 -0.0165 -0.3834
 3138DPPC   C4B59352  18.747   2.417  25.064  0.1997 -0.0811  0.1513
 3139DPPC   NC359353  19.693  12.553  18.955  0.0779 -0.2439  0.1842
 3139DPPC   PO459354  20.026  12.924  18.847  0.1998 -0.3649  0.3818
 3139DPPC   GL159355  20.483  12.869  18.689 -0.0126  0.2221 -0.2045
 3139DPPC   GL259356  20.468  12.601  18.501  0.4006 -0.0214  0.0098
 3139DPPC   C1A59357  20.786  13.105  18.427 -0.0886  0.0627 -0.0277
 3139DPPC   C2A59358  21.196  13.003  18.449  0.0512 -0.1968 -0.1127
 3139DPPC   C3A59359  21.522  13.312  18.479 -0.0137 -0.2007  0.0213
 3139DPPC   C4A59360  22.048  13.384  18.462  0.1788 -0.2942  0.1039
 3139DPPC   C1B59361  20.429  12.398  18.106  0.0098  0.1313 -0.2172
 3139DPPC   C2B59362  20.746  12.203  17.920  0.1242 -0.3506 -0.1238
 3139DPPC   C3B59363  20.899  11.733  17.917 -0.1055  0.2900 -0.1664
 3139DPPC   C4B59364  21.276  11.404  18.065  0.1557  0.1474  0.0298
 3140DPPC   NC359365  12.319  25.228  30.850  0.0835  0.3153  0.0038
 3140DPPC   PO459366  12.676  25.270  31.071 -0.1541  0.0555  0.2547
 3140DPPC   GL159367  12.855  24.869  30.878 -0.1123 -0.3046 -0.0615
 3140DPPC   GL259368  13.183  24.786  30.972  0.1888  0.0639 -0.0323
 3140DPPC   C1A59369  12.742  24.436  30.815 -0.0518 -0.0428  0.0600
 3140DPPC   C2A59370  12.816  24.026  30.750  0.1459 -0.0960 -0.1966
 3140DPPC   C3A59371  12.913  23.676  30.684  0.2056  0.1426  0.0163
 3140DPPC   C4A59372  13.143  23.438  30.755  0.0095 -0.0540  0.1328
 3140DPPC   C1B59373  13.557  24.587  30.758 -0.5267 -0.0275 -0.2173
 3140DPPC   C2B59374  13.786  24.303  30.587  0.0902 -0.3244  0.1328
 3140DPPC   C3B59375  13.721  23.912  30.409 -0.4443  0.2605  0.1718
 3140DPPC   C4B59376  13.911  23.843  30.061 -0.0568 -0.0304  0.0574
 3141DPPC   NC359377  20.973  12.132  20.259 -0.3943 -0.1012  0.1984
 3141DPPC   PO459378  21.155  11.809  20.493 -0.0426 -0.0900  0.1301
 3141DPPC   GL159379  21.424  11.788  20.142 -0.1223 -0.0065  0.3706
 3141DPPC   GL259380  21.448  12.073  19.974 -0.1385  0.1488 -0.0356
 3141DPPC   C1A59381  21.767  11.694  19.874  0.2979  0.1097 -0.0213
 3141DPPC   C2A59382  22.071  11.791  19.521 -0.1882 -0.2662 -0.1791
 3141DPPC   C3A59383  22.404  11.816  19.554  0.0212  0.2012 -0.1463
 3141DPPC   C4A59384  22.777  11.767  19.606 -0.1288  0.0339  0.0546
 3141DPPC   C1B59385  21.838  12.164  19.777  0.0858 -0.0365  0.1361
 3141DPPC   C2B59386  22.147  12.480  19.740 -0.3956  0.1790  0.2040
 3141DPPC   C3B59387  22.520  12.297  19.613  0.1199  0.0163  0.3833
 3141DPPC   C4B59388  22.767  12.165  19.354 -0.1717  0.2252  0.0471
 3142DPPC   NC359389   8.001  17.804  31.138  0.1038 -0.2704  0.0793
 3142DPPC   PO459390   8.190  18.201  31.014 -0.1311  0.0016 -0.2398
 3142DPPC   GL159391   7.829  18.515  31.024 -0.0832  0.1698 -0.2503
 3142DPPC   GL259392   7.641  18.620  30.725  0.1924  0.3199  0.0671
 3142DPPC   C1A59393   7.394  18.542  31.142 -0.1683  0.1811  0.0886
 3142DPPC   C2A59394   7.174  18.364  30.743 -0.0384  0.1464  0.2544
 3142DPPC   C3A59395   6.727  18.192  30.656  0.5927  0.0729 -0.1408
 3142DPPC   C4A59396   6.360  17.951  30.594  0.2198  0.0021  0.0189
 3142DPPC   C1B59397   7.274  18.923  30.720 -0.0560  0.2198 -0.3468
 3142DPPC   C2B59398   6.998  19.029  31.086  0.1051  0.1624 -0.1663
 3142DPPC   C3B59399   7.006  19.209  31.546 -0.1528  0.1354  0.1300
 3142DPPC   C4B59400   7.082  19.669  31.689  0.2172  0.0658  0.1370
 3143DPPC   NC359401  20.054  13.691  43.394 -0.2164 -0.1827  0.2142
 3143DPPC   PO459402  19.598  13.784  43.407 -0.1415 -0.1338 -0.1169
 3143DPPC   GL159403  19.343  13.675  42.970  0.1826 -0.4777 -0.0853
 3143DPPC   GL259404  19.143  13.897  42.858 -0.1501  0.0482 -0.3518
 3143DPPC   C1A59405  19.417  13.617  42.531  0.0049 -0.0671  0.1051
 3143DPPC   C2A59406  19.440  13.623  42.047 -0.0878  0.0815  0.1632
 3143DPPC   C3A59407  19.103  13.658  41.731  0.0189  0.4821  0.0821
 3143DPPC   C4A59408  18.901  13.595  41.394 -0.0671  0.5012 -0.0643
 3143DPPC   C1B59409  19.096  14.056  42.442 -0.0060  0.0814  0.2713
 3143DPPC   C2B59410  18.948  13.811  42.162  0.1260  0.1281 -0.2600
 3143DPPC   C3B59411  18.636  13.785  41.830  0.5567 -0.3155 -0.1334
 3143DPPC   C4B59412  18.473  13.731  41.446 -0.0072  0.3343  0.2398
 3144DPPC   NC359413  11.599  21.712  39.226  0.0040  0.0454  0.1502
 3144DPPC   PO459414  11.348  21.760  38.955 -0.0945  0.0709 -0.1056
 3144DPPC   GL159415  11.614  21.485  38.758 -0.2219 -0.0518  0.1799
 3144DPPC   GL259416  11.461  21.265  38.577 -0.2191 -0.1890  0.1966
 3144DPPC   C1A59417  11.912  21.167  38.634 -0.2896 -0.0059  0.1149
 3144DPPC   C2A59418  11.919  20.746  38.425 -0.0145  0.2992 -0.5426
 3144DPPC   C3A59419  11.882  20.214  38.247 -0.5004 -0.2517 -0.1434
 3144DPPC   C4A59420  12.105  19.942  38.054 -0.1481  0.2885 -0.1049
 3144DPPC   C1B59421  11.472  21.035  38.278 -0.1593  0.3317  0.0563
 3144DPPC   C2B59422  11.707  20.794  37.928 -0.0616  0.4196 -0.1524
 3144DPPC   C3B59423  11.970  20.808  37.553 -0.2059 -0.0231  0.0808
 3144DPPC   C4B59424  12.370  20.718  37.206  0.0168  0.4309 -0.0978
 3145DPPC   NC359425  20.673  13.911  43.101 -0.0854  0.0477  0.1548
 3145DPPC   PO459426  20.498  14.263  42.847  0.0280 -0.1799 -0.1984
 3145DPPC   GL159427  20.513  14.003  42.580  0.2886  0.2503  0.3192
 3145DPPC   GL259428  20.691  14.008  42.329 -0.0807 -0.1830 -0.1444
 3145DPPC   C1A59429  20.349  13.587  42.578  0.3884  0.1248  0.1555
 3145DPPC   C2A59430  20.134  13.242  42.571  0.1498  0.0937 -0.0104
 3145DPPC   C3A59431  19.754  13.164  42.675 -0.1238  0.0301  0.2922
 3145DPPC   C4A59432  19.314  13.215  42.833 -0.0813 -0.2210  0.0810
 3145DPPC   C1B59433  20.760  14.086  41.870  0.0719  0.0050  0.0120
 3145DPPC   C2B59434  20.633  13.998  41.566 -0.0167  0.2452  0.1914
 3145DPPC   C3B59435  20.635  14.076  41.127  0.0056 -0.0548 -0.0330
 3145DPPC   C4B59436  20.846  13.898  40.845  0.0257 -0.1183  0.1845
 3146DPPC   NC359437  20.022  15.067  20.807  0.1465  0.1607 -0.0226
 3146DPPC   PO459438  20.092  14.695  20.694 -0.0466  0.3248  0.0252
 3146DPPC   GL159439  20.405  14.812  20.504  0.1197 -0.0885  0.0693
 3146DPPC   GL259440  20.506  15.135  20.578 -0.0784 -0.2230 -0.0982
 3146DPPC   C1A59441  20.692  14.849  20.123 -0.0503 -0.4133  0.1671
 3146DPPC   C2A59442  21.139  14.743  19.908  0.1095 -0.0197 -0.1860
 3146DPPC   C3A59443  21.456  14.573  19.647 -0.0531  0.1194  0.2432
 3146DPPC   C4A59444  21.708  14.538  19.286 -0.0562 -0.1465 -0.0401
 3146DPPC   C1B59445  20.695  15.347  20.242 -0.2351 -0.0842 -0.1645
 3146DPPC   C2B59446  21.040  15.230  20.069 -0.1028 -0.0943 -0.0060
 3146DPPC   C3B59447  21.271  15.203  19.723  0.2134  0.1381  0.1465
 3146DPPC   C4B59448  21.261  15.409  19.275 -0.1954 -0.5680 -0.0766
 3147DPPC   NC359449  16.027  17.992  20.765  0.2367 -0.1681 -0.0902
 3147DPPC   PO459450  15.953  17.605  20.547 -0.0901 -0.0916  0.0982
 3147DPPC   GL159451  16.209  17.856  20.179  0.1420  0.2197  0.0956
 3147DPPC   GL259452  16.392  17.611  19.963 -0.2307  0.0631 -0.2328
 3147DPPC   C1A59453  16.300  18.060  19.784 -0.1521 -0.1409 -0.2153
 3147DPPC   C2A59454  16.091  18.166  19.445  0.2579  0.0988  0.3938
 3147DPPC   C3A59455  15.986  18.211  19.027 -0.1383 -0.0747  0.0319
 3147DPPC   C4A59456  15.722  18.473  19.077  0.2164 -0.1620 -0.3228
 3147DPPC   C1B59457  16.425  17.539  19.569  0.0425 -0.0775  0.1931
 3147DPPC   C2B59458  16.417  17.773  19.178 -0.0180  0.2012 -0.0001
 3147DPPC   C3B59459  16.629  18.241  19.325 -0.0046 -0.3761  0.0948
 3147DPPC   C4B59460  16.974  18.306  19.623  0.1970  0.0637 -0.2265
 3148DPPC   NC359461  10.698  24.707  34.238 -0.0377  0.1334  0.0372
 3148DPPC   PO459462  10.603  24.239  34.346 -0.1609 -0.0476  0.1413
 3148DPPC   GL159463  10.682  23.946  34.133  0.0707  0.2666 -0.4267
 3148DPPC   GL259464  11.018  23.781  33.944  0.0300  0.0944 -0.0093
 3148DPPC   C1A59465  10.562  23.506  33.942 -0.1011 -0.1883  0.0316
 3148DPPC   C2A59466  10.610  23.109  33.874  0.1667  0.3715  0.1000
 3148DPPC   C3A59467  10.678  22.894  33.433 -0.0120 -0.5076  0.0574
 3148DPPC   C4A59468  10.790  22.666  33.155 -0.1495 -0.1243 -0.4924
 3148DPPC   C1B59469  10.955  23.567  33.597 -0.0937  0.0459  0.1354
 3148DPPC   C2B59470  10.935  23.286  33.199  0.0985 -0.2954  0.2802
 3148DPPC   C3B59471  11.189  23.008  32.994  0.2713 -0.2233  0.5380
 3148DPPC   C4B59472  11.452  22.659  32.859  0.4273 -0.1161 -0.0404
 3149DPPC   NC359473  16.634  11.488  23.468  0.3177 -0.0653  0.1193
 3149DPPC   PO459474  16.721  11.909  23.267 -0.0651 -0.2639  0.1551
 3149DPPC   GL159475  16.789  11.848  23.785 -0.0595 -0.1163  0.1560
 3149DPPC   GL259476  17.146  11.797  23.956 -0.2463  0.0090 -0.0029
 3149DPPC   C1A59477  16.631  12.220  24.069 -0.0860 -0.2570 -0.3074
 3149DPPC   C2A59478  16.761  12.532  24.246  0.1657  0.4223 -0.0775
 3149DPPC   C3A59479  17.039  12.606  24.631 -0.2209  0.0326  0.1624
 3149DPPC   C4A59480  17.338  12.465  24.951  0.2375  0.1217 -0.3754
 3149DPPC   C1B59481  16.880  11.639  24.216  0.1229  0.2656  0.1450
 3149DPPC   C2B59482  16.616  11.775  24.389  0.2799  0.0903  0.1401
 3149DPPC   C3B59483  16.558  12.042  24.607  0.1648 -0.2352 -0.0433
 3149DPPC   C4B59484  16.366  12.211  24.924 -0.2987  0.1636  0.1166
 3150DPPC   NC359485  18.014  17.413  24.680  0.0156  0.2132  0.0682
 3150DPPC   PO459486  18.360  16.979  24.599  0.2745 -0.0663  0.2049
 3150DPPC   GL159487  18.785  16.848  24.523 -0.0681  0.1033 -0.2188
 3150DPPC   GL259488  18.916  17.187  24.512 -0.4297  0.2590  0.0408
 3150DPPC   C1A59489  19.137  16.779  24.765  0.0293 -0.1926  0.0466
 3150DPPC   C2A59490  19.287  16.415  24.838  0.1760 -0.2724  0.3849
 3150DPPC   C3A59491  19.602  16.202  25.059 -0.4863 -0.2818  0.3237
 3150DPPC   C4A59492  19.883  16.036  25.373  0.0466  0.0024  0.5469
 3150DPPC   C1B59493  19.244  17.274  24.768  0.0617 -0.0397 -0.2650
 3150DPPC   C2B59494  19.706  17.342  24.995 -0.1019 -0.2972 -0.1828
 3150DPPC   C3B59495  20.141  17.461  24.756 -0.2301 -0.0484  0.1693
 3150DPPC   C4B59496  20.306  17.106  24.561  0.3948  0.0421  0.1361
 3151DPPC   NC359497   7.796  22.887  26.435  0.1776  0.1940  0.6467
 3151DPPC   PO459498   8.000  22.835  26.013 -0.1188  0.0469 -0.0864
 3151DPPC   GL159499   8.254  22.663  26.355  0.3467 -0.1464  0.0520
 3151DPPC   GL259500   8.586  22.710  26.257  0.0769 -0.2146 -0.1805
 3151DPPC   C1A59501   8.317  22.380  26.718  0.1354  0.4096  0.1095
 3151DPPC   C2A59502   8.244  22.321  27.166 -0.1097 -0.0983 -0.1076
 3151DPPC   C3A59503   8.342  22.032  27.509 -0.0525  0.2544 -0.2210
 3151DPPC   C4A59504   8.199  21.550  27.615 -0.3986 -0.1218 -0.0542
 3151DPPC   C1B59505   8.885  22.478  26.158  0.2888 -0.0868  0.0848
 3151DPPC   C2B59506   9.154  22.296  25.836 -0.0621 -0.1015 -0.3538
 3151DPPC   C3B59507   9.142  21.792  25.803 -0.2822 -0.3488  0.5297
 3151DPPC   C4B59508   9.367  21.341  25.698  0.2942 -0.0762  0.0168
 3152DPPC   NC359509  22.079  12.533  22.680  0.0412 -0.0631  0.0614
 3152DPPC   PO459510  22.378  12.669  22.979  0.0014 -0.0330  0.4095
 3152DPPC   GL159511  22.666  12.966  22.955  0.0606  0.1106  0.0214
 3152DPPC   GL259512  22.582  13.296  22.981 -0.0470 -0.3089 -0.0189
 3152DPPC   C1A59513  23.057  12.822  22.874  0.2383 -0.0599  0.1592
 3152DPPC   C2A59514  23.472  12.600  22.802  0.0374  0.0633 -0.0474
 3152DPPC   C3A59515  23.747  12.376  22.901 -0.0181 -0.1271 -0.0566
 3152DPPC   C4A59516  24.182  12.195  22.713 -0.1219  0.1496 -0.2350
 3152DPPC   C1B59517  22.775  13.618  22.742 -0.2599  0.1443 -0.1063
 3152DPPC   C2B59518  22.971  13.937  22.749  0.0702  0.0857  0.2216
 3152DPPC   C3B59519  23.229  14.387  22.512  0.1588 -0.2203 -0.1610
 3152DPPC   C4B59520  23.338  14.470  22.113 -0.1388  0.0606 -0.0779
 3153DPPC   NC359521  18.244  16.012  19.667  0.0881  0.3730  0.1940
 3153DPPC   PO459522  18.244  15.540  19.668  0.0260 -0.1800  0.1760
 3153DPPC   GL159523  18.391  15.591  19.359 -0.1683 -0.1291 -0.4016
 3153DPPC   GL259524  18.320  15.879  19.238 -0.1705  0.1268  0.1478
 3153DPPC   C1A59525  18.747  15.706  19.141  0.2225  0.3039  0.1280
 3153DPPC   C2A59526  18.915  16.017  18.888  0.1608  0.2604 -0.3944
 3153DPPC   C3A59527  18.922  16.271  18.579 -0.5043  0.1317  0.0944
 3153DPPC   C4A59528  18.679  16.272  18.262 -0.1157 -0.0711 -0.0951
 3153DPPC   C1B59529  18.468  16.044  18.805 -0.1874 -0.0359  0.1393
 3153DPPC   C2B59530  18.621  15.815  18.418  0.0655  0.3472 -0.0304
 3153DPPC   C3B59531  18.742  15.766  18.024  0.0411 -0.0478  0.0364
 3153DPPC   C4B59532  18.840  16.075  17.794 -0.1468 -0.4436  0.0626
 3154DPPC   NC359533  23.127  20.417  27.295 -0.1026  0.0018 -0.0517
 3154DPPC   PO459534  23.378  20.047  27.233 -0.0819 -0.1227 -0.2748
 3154DPPC   GL159535  22.995  19.932  27.449 -0.0929  0.2253  0.0705
 3154DPPC   GL259536  22.701  19.999  27.442  0.0054 -0.1811  0.0437
 3154DPPC   C1A59537  22.748  19.495  27.429 -0.1699 -0.0296 -0.0701
 3154DPPC   C2A59538  22.409  19.305  27.444  0.2908  0.4097 -0.1474
 3154DPPC   C3A59539  22.171  18.991  27.549 -0.1745 -0.1853 -0.1031
 3154DPPC   C4A59540  21.956  18.967  27.995  0.0812 -0.1855  0.0543
 3154DPPC   C1B59541  22.314  19.817  27.411 -0.0554  0.0257  0.3638
 3154DPPC   C2B59542  21.916  19.529  27.482 -0.1529 -0.4743  0.0848
 3154DPPC   C3B59543  21.774  19.165  27.233 -0.2002  0.1846 -0.1351
 3154DPPC   C4B59544  21.481  18.987  26.903 -0.0985  0.1010  0.0832
 3155DPPC   NC359545  14.475  19.360  22.608  0.1132  0.1805 -0.0321
 3155DPPC   PO459546  14.500  18.897  22.314 -0.0927  0.2158  0.2549
 3155DPPC   GL159547  14.272  19.176  21.951  0.2115  0.1741  0.0969
 3155DPPC   GL259548  14.157  18.990  21.668  0.0287 -0.2184  0.1480
 3155DPPC   C1A59549  13.874  19.394  21.890 -0.0083  0.1144 -0.2232
 3155DPPC   C2A59550  13.635  19.743  21.702  0.2491  0.1141  0.0279
 3155DPPC   C3A59551  13.412  20.086  21.497  0.0122 -0.0791  0.2644
 3155DPPC   C4A59552  13.208  20.465  21.411 -0.1157  0.1374 -0.2169
 3155DPPC   C1B59553  13.925  19.118  21.380 -0.3342 -0.1877  0.0371
 3155DPPC   C2B59554  13.724  19.479  21.066  0.0887  0.0806  0.1358
 3155DPPC   C3B59555  13.660  19.967  21.046  0.2189  0.2457 -0.1236
 3155DPPC   C4B59556  13.456  20.300  21.024 -0.1260  0.0422 -0.0268
 3156DPPC   NC359557  20.915  13.225  20.389 -0.0636 -0.1236  0.2081
 3156DPPC   PO459558  21.406  13.065  20.356 -0.2974 -0.3757 -0.0815
 3156DPPC   GL159559  21.762  13.045  20.230 -0.2788 -0.4763  0.1253
 3156DPPC   GL259560  21.929  13.362  20.104  0.0625  0.1939  0.2584
 3156DPPC   C1A59561  22.089  12.979  19.938  0.0914 -0.2533  0.1251
 3156DPPC   C2A59562  22.464  12.907  19.695 -0.1680 -0.2997 -0.0267
 3156DPPC   C3A59563  22.770  12.797  19.432  0.0841 -0.1716  0.2750
 3156DPPC   C4A59564  22.848  12.944  19.024 -0.2614  0.0469  0.0179
 3156DPPC   C1B59565  22.374  13.374  19.747 -0.1728 -0.0186 -0.0984
 3156DPPC   C2B59566  22.793  13.429  19.485 -0.1673 -0.2743 -0.1785
 3156DPPC   C3B59567  22.973  13.744  19.319  0.1812 -0.1283  0.4469
 3156DPPC   C4B59568  22.904  13.935  18.954  0.0984 -0.0728  0.4245
 3157DPPC   NC359569  18.520  15.983  23.661  0.0029  0.1183  0.0662
 3157DPPC   PO459570  18.464  15.557  23.751 -0.0936  0.1336  0.1167
 3157DPPC   GL159571  18.708  15.499  24.067 -0.0462  0.0645  0.2833
 3157DPPC   GL259572  18.426  15.387  24.224 -0.0744 -0.0445  0.3242
 3157DPPC   C1A59573  19.111  15.579  24.195  0.1801 -0.2174 -0.3032
 3157DPPC   C2A59574  19.349  15.324  24.439  0.0966 -0.2250 -0.0120
 3157DPPC   C3A59575  19.292  14.933  24.528  0.1186 -0.0092  0.0127
 3157DPPC   C4A59576  19.462  14.544  24.546 -0.0790 -0.5434 -0.1255
 3157DPPC   C1B59577  18.281  15.172  24.411 -0.0890  0.1655  0.0341
 3157DPPC   C2B59578  18.038  15.072  24.563 -0.0959 -0.0737 -0.0336
 3157DPPC   C3B59579  17.759  14.937  24.961 -0.1955 -0.1009 -0.1469
 3157DPPC   C4B59580  17.758  14.722  25.395  0.1812  0.1548 -0.1220
 3158DPPC   NC359581  21.202  14.134  25.818  0.1925 -0.1703 -0.2414
 3158DPPC   PO459582  21.080  14.338  26.179  0.2901  0.1097  0.1104
 3158DPPC   GL159583  21.378  14.685  26.158  0.0823 -0.1024 -0.0674
 3158DPPC   GL259584  21.209  15.071  26.283 -0.0329  0.0453  0.4260
 3158DPPC   C1A59585  21.687  15.050  26.040  0.1790 -0.1555 -0.2083
 3158DPPC   C2A59586  21.934  15.399  25.926 -0.5178 -0.2206  0.1554
 3158DPPC   C3A59587  21.957  15.804  25.844 -0.0559  0.0539  0.2246
 3158DPPC   C4A59588  22.008  16.259  25.998  0.0557  0.1174 -0.1504
 3158DPPC   C1B59589  21.483  15.452  26.300  0.0126 -0.2182 -0.0935
 3158DPPC   C2B59590  21.547  15.897  26.111 -0.3203  0.2180 -0.0181
 3158DPPC   C3B59591  21.388  16.259  26.375  0.1339 -0.1381 -0.0207
 3158DPPC   C4B59592  21.584  16.607  26.668  0.1452  0.2176 -0.1326
 3159DPPC   NC359593  26.132  18.543  34.245 -0.1915 -0.0572 -0.1123
 3159DPPC   PO459594  25.868  18.363  34.483 -0.1455  0.0021 -0.1659
 3159DPPC   GL159595  25.646  17.955  34.346  0.1194  0.1752  0.1354
 3159DPPC   GL259596  25.458  17.844  34.578  0.1719 -0.0494 -0.1342
 3159DPPC   C1A59597  25.617  17.725  34.010  0.0333 -0.0710 -0.0712
 3159DPPC   C2A59598  25.359  17.417  33.722 -0.1317 -0.0566  0.1143
 3159DPPC   C3A59599  24.986  17.299  33.461 -0.2583 -0.0643 -0.1083
 3159DPPC   C4A59600  24.628  17.200  33.416  0.0386  0.0178  0.3053
 3159DPPC   C1B59601  24.989  17.906  34.523  0.0480 -0.0844 -0.0931
 3159DPPC   C2B59602  24.600  17.972  34.558 -0.2089 -0.1126  0.0188
 3159DPPC   C3B59603  24.298  17.581  34.578  0.3108 -0.0782  0.0786
 3159DPPC   C4B59604  23.826  17.476  34.574 -0.1420 -0.0798 -0.0488
 3160DPPC   NC359605  24.174   9.904  40.996 -0.2190  0.1618  0.2368
 3160DPPC   PO459606  23.718   9.995  41.066 -0.0450 -0.0781  0.2744
 3160DPPC   GL159607  23.560  10.060  40.550 -0.2381 -0.1306 -0.0271
 3160DPPC   GL259608  23.294  10.259  40.543  0.1076  0.1912  0.1435
 3160DPPC   C1A59609  23.301   9.752  40.256 -0.3336  0.0950 -0.4157
 3160DPPC   C2A59610  22.912   9.552  40.261  0.4446  0.0666 -0.0657
 3160DPPC   C3A59611  22.754   9.339  39.850  0.0184 -0.1331 -0.0462
 3160DPPC   C4A59612  22.483   9.319  39.585  0.0248  0.1888  0.0846
 3160DPPC   C1B59613  22.891  10.153  40.314 -0.0039 -0.1194  0.3506
 3160DPPC   C2B59614  22.669  10.343  39.968  0.0464  0.2551 -0.1423
 3160DPPC   C3B59615  22.709  10.655  39.684  0.0173 -0.3196 -0.0524
 3160DPPC   C4B59616  22.610  10.941  39.375  0.0939 -0.0747 -0.0100
 3161DPPC   NC359617   9.360  22.006  36.948 -0.0178 -0.2586  0.3977
 3161DPPC   PO459618   9.000  22.255  36.776  0.0034  0.2207  0.2985
 3161DPPC   GL159619   9.067  22.022  36.430 -0.3568 -0.1458 -0.1533
 3161DPPC   GL259620   9.331  21.785  36.533  0.0203 -0.1042 -0.1831
 3161DPPC   C1A59621   8.937  21.643  36.298 -0.1526  0.1809 -0.0117
 3161DPPC   C2A59622   8.801  21.162  36.142 -0.0803 -0.0258  0.2358
 3161DPPC   C3A59623   8.828  20.759  36.224 -0.1622  0.6524 -0.2217
 3161DPPC   C4A59624   8.688  20.482  35.880  0.2456 -0.0185  0.1025
 3161DPPC   C1B59625   9.502  21.432  36.234 -0.0628 -0.0905  0.0770
 3161DPPC   C2B59626   9.779  21.103  35.951  0.2633  0.2338  0.0942
 3161DPPC   C3B59627  10.102  20.760  35.732  0.0855 -0.0292 -0.0933
 3161DPPC   C4B59628  10.565  20.900  35.601 -0.0849  0.0650 -0.1414
 3162DPPC   NC359629  22.964  13.406  41.623 -0.0558 -0.0712 -0.2837
 3162DPPC   PO459630  22.531  13.215  41.493  0.0702  0.2350 -0.1897
 3162DPPC   GL159631  22.347  13.279  41.144 -0.0246  0.1565 -0.0967
 3162DPPC   GL259632  22.067  13.376  41.155 -0.1623 -0.3063  0.1222
 3162DPPC   C1A59633  22.294  12.898  40.885  0.0960 -0.0331  0.0706
 3162DPPC   C2A59634  22.456  12.517  40.676 -0.0871 -0.3622 -0.2621
 3162DPPC   C3A59635  22.185  12.115  40.395 -0.0105 -0.1279 -0.1442
 3162DPPC   C4A59636  21.840  11.878  40.466 -0.2526  0.0354  0.2313
 3162DPPC   C1B59637  22.171  13.353  40.682 -0.1543  0.1968 -0.3483
 3162DPPC   C2B59638  22.081  13.029  40.481  0.1022  0.0711  0.1151
 3162DPPC   C3B59639  22.168  12.702  40.110 -0.1698 -0.1146 -0.0846
 3162DPPC   C4B59640  22.503  12.753  39.810 -0.1817  0.1596  0.1184
 3163DPPC   NC359641  23.528   3.292  23.754  0.5022  0.1372 -0.2577
 3163DPPC   PO459642  23.740   3.126  24.251  0.0162 -0.2502 -0.0626
 3163DPPC   GL159643  23.703   3.507  24.217  0.0839 -0.0666 -0.2451
 3163DPPC   GL259644  23.353   3.654  24.173  0.1357  0.2597  0.2944
 3163DPPC   C1A59645  23.814   3.873  24.031 -0.0688 -0.1698 -0.0089
 3163DPPC   C2A59646  23.740   4.364  24.068  0.1171  0.0464  0.0389
 3163DPPC   C3A59647  23.747   4.754  24.097  0.0148 -0.3190  0.1225
 3163DPPC   C4A59648  23.742   5.088  23.756  0.0402  0.4017  0.1037
 3163DPPC   C1B59649  23.366   4.055  24.309  0.5382 -0.0376  0.0276
 3163DPPC   C2B59650  22.971   4.295  24.463  0.0804 -0.1972 -0.0176
 3163DPPC   C3B59651  22.613   4.569  24.657  0.0080 -0.1490 -0.1582
 3163DPPC   C4B59652  22.476   4.879  24.929  0.1815  0.0644 -0.1303
 3164DPPC   NC359653   7.604   3.908  33.101  0.0712 -0.1436 -0.2085
 3164DPPC   PO459654   7.251   4.163  32.896  0.1612 -0.0335  0.1041
 3164DPPC   GL159655   7.655   4.479  33.032 -0.1108  0.2102  0.2996
 3164DPPC   GL259656   7.931   4.289  32.959 -0.0722 -0.1892 -0.1597
 3164DPPC   C1A59657   8.035   4.693  33.186  0.1862 -0.1814  0.0309
 3164DPPC   C2A59658   8.459   4.974  33.163 -0.3453 -0.0195 -0.2343
 3164DPPC   C3A59659   8.932   5.002  33.197 -0.2321  0.1193  0.0902
 3164DPPC   C4A59660   9.111   5.446  33.125 -0.0403  0.1387  0.0696
 3164DPPC   C1B59661   7.918   4.512  32.555  0.2445  0.0757  0.3286
 3164DPPC   C2B59662   8.175   4.764  32.257  0.2130  0.0297 -0.2497
 3164DPPC   C3B59663   8.203   4.973  31.906 -0.2824  0.0805  0.2240
 3164DPPC   C4B59664   7.908   4.847  31.542  0.1855  0.1803 -0.0528
 3165DPPC   NC359665  11.748  23.526  22.422  0.1023  0.3392 -0.0455
 3165DPPC   PO459666  12.167  23.452  22.309  0.2758  0.2164  0.1413
 3165DPPC   GL159667  12.009  23.108  22.574  0.2483 -0.1716  0.2173
 3165DPPC   GL259668  12.038  23.174  22.814  0.0889 -0.1886  0.0998
 3165DPPC   C1A59669  11.594  23.018  22.883 -0.0433  0.3858 -0.0283
 3165DPPC   C2A59670  11.267  23.052  23.225 -0.1524 -0.5151  0.0566
 3165DPPC   C3A59671  11.216  23.062  23.624  0.1848 -0.2338  0.0680
 3165DPPC   C4A59672  11.328  23.376  23.896 -0.2588  0.1454 -0.0540
 3165DPPC   C1B59673  12.518  22.944  22.795  0.2134 -0.2554 -0.0974
 3165DPPC   C2B59674  12.564  22.519  22.763  0.2982 -0.0851  0.3775
 3165DPPC   C3B59675  12.384  22.288  22.958 -0.2820  0.1976  0.1210
 3165DPPC   C4B59676  12.357  21.935  23.137 -0.0475  0.0750  0.1045
 3166DPPC   NC359677  17.528  19.507  26.099  0.0692 -0.0387 -0.0124
 3166DPPC   PO459678  17.082  19.395  25.798  0.2777  0.2584  0.0275
 3166DPPC   GL159679  17.213  19.838  25.766 -0.1502  0.1366 -0.3159
 3166DPPC   GL259680  17.062  20.114  25.470 -0.0461  0.3192  0.0494
 3166DPPC   C1A59681  17.522  20.247  25.606  0.3439 -0.1758  0.4456
 3166DPPC   C2A59682  17.979  20.366  25.523  0.1459  0.1018 -0.0966
 3166DPPC   C3A59683  18.375  20.608  25.263 -0.1831  0.0280 -0.0175
 3166DPPC   C4A59684  18.784  20.823  25.354 -0.1225  0.3283 -0.2310
 3166DPPC   C1B59685  17.090  20.435  25.301  0.1544  0.1153 -0.1376
 3166DPPC   C2B59686  17.475  20.712  25.291 -0.0543  0.0967  0.0046
 3166DPPC   C3B59687  17.592  21.211  25.416 -0.0370 -0.1396 -0.2245
 3166DPPC   C4B59688  17.606  21.554  25.383 -0.1329 -0.3608  0.3417
 3167DPPC   NC359689  10.642   1.843  26.501 -0.2522  0.0034 -0.3272
 3167DPPC   PO459690  10.231   2.060  26.632 -0.1570 -0.0344 -0.3582
 3167DPPC   GL159691  10.503   2.360  26.456 -0.0275 -0.0740 -0.0944
 3167DPPC   GL259692  10.673   2.599  26.589  0.0979 -0.3028  0.1232
 3167DPPC   C1A59693  10.276   2.706  26.292  0.0532 -0.1370  0.1437
 3167DPPC   C2A59694  10.370   3.071  26.119 -0.2279  0.0322 -0.3920
 3167DPPC   C3A59695  10.346   3.487  26.434  0.1341 -0.0507  0.1533
 3167DPPC   C4A59696  10.389   3.938  26.704  0.1845  0.4352 -0.1059
 3167DPPC   C1B59697  10.775   2.976  26.746  0.1600  0.0427 -0.0714
 3167DPPC   C2B59698  11.063   3.187  27.036 -0.0278 -0.0740 -0.0228
 3167DPPC   C3B59699  11.361   3.486  27.073  0.1026  0.0031 -0.3788
 3167DPPC   C4B59700  11.358   3.799  27.182  0.1733 -0.2686  0.2361
 3168DPPC   NC359701  18.920   7.568  21.092 -0.1378 -0.3280  0.3155
 3168DPPC   PO459702  19.336   7.796  20.982  0.1550 -0.1586 -0.3138
 3168DPPC   GL159703  19.386   7.456  20.731  0.0169  0.2690  0.0688
 3168DPPC   GL259704  19.087   7.235  20.804  0.0550  0.0063 -0.0649
 3168DPPC   C1A59705  19.581   7.406  20.384  0.2243  0.0343  0.0072
 3168DPPC   C2A59706  19.786   7.203  20.124 -0.1308  0.1483  0.0376
 3168DPPC   C3A59707  20.094   7.114  19.723  0.2635  0.2213 -0.2738
 3168DPPC   C4A59708  20.194   7.349  19.319  0.1095  0.1819  0.0299
 3168DPPC   C1B59709  19.241   6.995  20.546  0.0572 -0.0865  0.1248
 3168DPPC   C2B59710  19.641   6.718  20.312  0.1086  0.1492  0.3143
 3168DPPC   C3B59711  19.888   6.256  20.226 -0.2569 -0.0830  0.0997
 3168DPPC   C4B59712  19.775   5.883  19.976  0.0756  0.2518  0.2241
 3169DPPC   NC359713  15.649  19.385  16.981 -0.4223  0.0760 -0.2522
 3169DPPC   PO459714  15.324  19.387  17.207  0.1882 -0.1343 -0.1167
 3169DPPC   GL159715  15.296  19.043  17.584  0.0829  0.0814 -0.0564
 3169DPPC   GL259716  15.145  18.786  17.618  0.0497  0.0076  0.3928
 3169DPPC   C1A59717  15.205  18.910  18.068  0.3649  0.0459 -0.1925
 3169DPPC   C2A59718  14.929  18.685  18.313 -0.1717  0.0843  0.2516
 3169DPPC   C3A59719  14.966  18.319  18.479  0.1409 -0.1094 -0.5291
 3169DPPC   C4A59720  14.871  17.965  18.479 -0.2076  0.0988 -0.1157
 3169DPPC   C1B59721  15.266  18.436  17.585  0.1153 -0.3079  0.0425
 3169DPPC   C2B59722  15.559  18.193  17.803  0.1449  0.0734 -0.0965
 3169DPPC   C3B59723  15.885  18.309  18.034  0.2599  0.2782  0.1807
 3169DPPC   C4B59724  15.811  18.778  18.272 -0.3102  0.1079  0.0013
 3170DPPC   NC359725   9.422   6.044  40.204  0.2081 -0.2729  0.2995
 3170DPPC   PO459726   9.762   5.842  39.961  0.2482 -0.3001  0.1764
 3170DPPC   GL159727  10.087   6.032  39.745 -0.0988  0.0867 -0.1398
 3170DPPC   GL259728  10.026   6.183  39.398  0.3145 -0.0029 -0.0611
 3170DPPC   C1A59729  10.433   5.960  39.382 -0.1556  0.0094 -0.1442
 3170DPPC   C2A59730  10.309   5.945  38.909 -0.3637  0.4082 -0.0146
 3170DPPC   C3A59731  10.634   5.872  38.477  0.2873 -0.2312  0.2334
 3170DPPC   C4A59732  10.981   5.641  38.319 -0.1807 -0.1337  0.1977
 3170DPPC   C1B59733  10.241   6.443  39.245  0.1965  0.0737  0.0522
 3170DPPC   C2B59734  10.592   6.387  38.811  0.5021  0.0946  0.2676
 3170DPPC   C3B59735  10.768   6.755  38.620  0.1268 -0.0006  0.1731
 3170DPPC   C4B59736  10.923   7.081  38.388 -0.2945 -0.0763  0.2746
 3171DPPC   NC359737  19.326  14.328  15.247  0.1821  0.1150 -0.0106
 3171DPPC   PO459738  19.717  14.337  15.121 -0.0797  0.3958 -0.0082
 3171DPPC   GL159739  19.800  14.029  15.441 -0.0656  0.0930  0.0029
 3171DPPC   GL259740  19.938  13.781  15.439 -0.2458 -0.2759 -0.0359
 3171DPPC   C1A59741  19.649  13.804  15.822 -0.1707 -0.2044  0.0920
 3171DPPC   C2A59742  19.436  13.673  16.213  0.0653  0.0065 -0.1297
 3171DPPC   C3A59743  19.029  13.406  16.328 -0.2881 -0.0942 -0.1762
 3171DPPC   C4A59744  18.770  13.114  16.581  0.0467  0.2117 -0.1771
 3171DPPC   C1B59745  20.004  13.484  15.879  0.0825  0.0430  0.1760
 3171DPPC   C2B59746  20.158  13.303  16.199  0.0192 -0.0425  0.0950
 3171DPPC   C3B59747  20.139  12.976  16.473  0.1621 -0.0829 -0.0868
 3171DPPC   C4B59748  20.306  12.913  16.940 -0.1228  0.0277  0.1190
 3172DPPC   NC359749  15.950  16.749  19.843 -0.2754 -0.1778  0.0310
 3172DPPC   PO459750  16.283  16.926  20.029 -0.3463 -0.2088 -0.0592
 3172DPPC   GL159751  16.046  17.257  19.864 -0.4550  0.3192  0.1820
 3172DPPC   GL259752  15.838  17.447  20.040 -0.1586 -0.2768  0.1695
 3172DPPC   C1A59753  15.615  17.338  19.619 -0.1329  0.0813  0.0362
 3172DPPC   C2A59754  15.363  17.646  19.416 -0.1404 -0.2277  0.1404
 3172DPPC   C3A59755  15.185  17.450  19.144  0.1062  0.1732 -0.0035
 3172DPPC   C4A59756  14.804  17.268  19.177 -0.3563  0.0391 -0.0328
 3172DPPC   C1B59757  15.915  17.702  19.704 -0.2153 -0.4206 -0.3828
 3172DPPC   C2B59758  15.854  17.694  19.325 -0.2079 -0.0470 -0.1025
 3172DPPC   C3B59759  16.022  17.630  18.898  0.1631 -0.0877 -0.0982
 3172DPPC   C4B59760  16.421  17.607  18.667 -0.2518  0.0123 -0.0743
 3173DPPC   NC359761  19.110  16.708  21.436 -0.2763  0.0835  0.0072
 3173DPPC   PO459762  19.028  16.676  21.856 -0.1724 -0.3462 -0.0697
 3173DPPC   GL159763  19.351  16.998  21.794 -0.3708  0.4718 -0.0228
 3173DPPC   GL259764  19.792  16.931  21.945 -0.2339  0.3106 -0.0105
 3173DPPC   C1A59765  19.553  17.340  21.580 -0.1511 -0.1379 -0.2188
 3173DPPC   C2A59766  19.792  17.681  21.655  0.2139  0.0346  0.1850
 3173DPPC   C3A59767  19.945  17.938  21.414 -0.0222  0.3745 -0.2319
 3173DPPC   C4A59768  20.311  17.903  21.134  0.0084 -0.0442  0.1281
 3173DPPC   C1B59769  20.119  17.123  21.655 -0.2725 -0.1577 -0.1528
 3173DPPC   C2B59770  20.049  17.374  21.287 -0.1981  0.1155  0.3583
 3173DPPC   C3B59771  19.892  17.366  20.855  0.0876 -0.1276 -0.0688
 3173DPPC   C4B59772  19.378  17.236  20.737 -0.1853  0.0383 -0.0507
 3174DPPC   NC359773  12.790  24.747  24.641  0.1689 -0.1983  0.1873
 3174DPPC   PO459774  12.855  24.479  24.225 -0.2277 -0.0420  0.0243
 3174DPPC   GL159775  12.929  24.118  24.371  0.0587  0.1932  0.2745
 3174DPPC   GL259776  12.817  23.810  24.053  0.0738 -0.1059 -0.1511
 3174DPPC   C1A59777  12.984  23.639  24.475 -0.2179  0.2256  0.4979
 3174DPPC   C2A59778  13.119  23.233  24.380 -0.0269 -0.4850  0.2254
 3174DPPC   C3A59779  13.331  22.899  24.517  0.0393  0.2501  0.1312
 3174DPPC   C4A59780  13.600  22.567  24.394  0.1369  0.0780 -0.2365
 3174DPPC   C1B59781  12.612  23.443  24.280 -0.0910 -0.2199 -0.0199
 3174DPPC   C2B59782  12.643  23.123  24.518 -0.1594  0.1452  0.1847
 3174DPPC   C3B59783  12.835  22.833  24.785  0.0555  0.0296  0.2235
 3174DPPC   C4B59784  13.110  22.538  24.818 -0.2981  0.4317 -0.1666
 3175DPPC   NC359785   3.960   8.372  30.247  0.2271 -0.1789 -0.1685
 3175DPPC   PO459786   4.283   8.257  30.021  0.2404  0.0927 -0.1119
 3175DPPC   GL159787   4.655   8.274  30.158  0.0807  0.0532 -0.0908
 3175DPPC   GL259788   4.674   8.609  30.024  0.1202  0.0077 -0.0192
 3175DPPC   C1A59789   5.039   8.248  30.510 -0.3748  0.1057 -0.3952
 3175DPPC   C2A59790   5.108   8.394  30.946  0.2899 -0.2985  0.1987
 3175DPPC   C3A59791   5.396   8.623  31.058 -0.0709  0.1601 -0.3028
 3175DPPC   C4A59792   5.413   8.995  31.214 -0.1785  0.1816  0.2057
 3175DPPC   C1B59793   4.975   8.737  29.747 -0.0412 -0.1151  0.0219
 3175DPPC   C2B59794   5.435   8.943  29.856  0.0313 -0.0248 -0.2618
 3175DPPC   C3B59795   5.775   9.353  30.027  0.1221  0.2708 -0.1278
 3175DPPC   C4B59796   6.019   9.728  30.065 -0.1034  0.0732 -0.4243
 3176DPPC   NC359797  19.558   7.909  16.255  0.3240  0.1231 -0.3193
 3176DPPC   PO459798  19.148   7.608  16.222 -0.1673 -0.0510  0.0691
 3176DPPC   GL159799  19.201   7.851  16.582  0.0201 -0.0293 -0.1069
 3176DPPC   GL259800  19.214   8.184  16.459  0.1068 -0.1882  0.0287
 3176DPPC   C1A59801  19.359   7.846  17.006 -0.0416 -0.0704 -0.1117
 3176DPPC   C2A59802  19.598   7.998  17.390 -0.1232 -0.3075 -0.0867
 3176DPPC   C3A59803  19.639   8.399  17.447  0.1942  0.1021  0.2158
 3176DPPC   C4A59804  19.656   8.900  17.626  0.0077 -0.2239  0.1893
 3176DPPC   C1B59805  18.801   8.381  16.534 -0.0958 -0.4070  0.2402
 3176DPPC   C2B59806  18.674   8.686  16.729 -0.1656  0.0496  0.4505
 3176DPPC   C3B59807  18.509   8.916  16.976 -0.0049 -0.0949 -0.0467
 3176DPPC   C4B59808  18.478   9.224  17.252  0.0131 -0.0530  0.0419
 3177DPPC   NC359809  14.918  11.868  44.021 -0.2732 -0.1717 -0.2428
 3177DPPC   PO459810  15.226  12.088  43.994 -0.2445  0.0524  0.2796
 3177DPPC   GL159811  15.070  12.021  43.597  0.3411  0.0375  0.4060
 3177DPPC   GL259812  15.241  12.157  43.411  0.0755 -0.0657 -0.0315
 3177DPPC   C1A59813  14.792  11.784  43.298 -0.0860 -0.0297 -0.2981
 3177DPPC   C2A59814  14.657  11.489  42.929 -0.2382  0.1089 -0.0525
 3177DPPC   C3A59815  14.402  11.585  42.571 -0.1354  0.0706 -0.1621
 3177DPPC   C4A59816  14.445  11.684  42.236  0.1264 -0.1617  0.2842
 3177DPPC   C1B59817  15.579  12.088  43.123  0.3124 -0.4393  0.0474
 3177DPPC   C2B59818  15.854  11.931  42.862 -0.3205 -0.0237 -0.1017
 3177DPPC   C3B59819  16.023  11.747  42.498  0.1278  0.1304 -0.0784
 3177DPPC   C4B59820  16.303  11.222  42.394 -0.1096 -0.1033 -0.0127
 3178DPPC   NC359821  26.431  19.147  34.731 -0.0626  0.0652  0.0290
 3178DPPC   PO459822  26.014  18.870  34.569 -0.4626 -0.1074 -0.0087
 3178DPPC   GL159823  25.552  18.692  34.355  0.1178  0.4090  0.0270
 3178DPPC   GL259824  25.467  18.400  34.171 -0.0699 -0.0166 -0.0591
 3178DPPC   C1A59825  25.141  18.400  34.552 -0.3157 -0.3966  0.0709
 3178DPPC   C2A59826  24.754  18.509  34.668 -0.0249  0.0323  0.1657
 3178DPPC   C3A59827  24.509  18.418  34.306  0.1631  0.2299  0.0031
 3178DPPC   C4A59828  24.103  18.123  34.366  0.0625 -0.1619 -0.0639
 3178DPPC   C1B59829  25.247  18.088  34.011 -0.2844 -0.1530  0.0331
 3178DPPC   C2B59830  25.082  17.748  34.061  0.0354 -0.1389 -0.0301
 3178DPPC   C3B59831  24.766  17.548  33.837  0.1520  0.2395 -0.1417
 3178DPPC   C4B59832  24.299  17.555  33.685 -0.0276  0.1056  0.0815
 3179DPPC   NC359833   9.547  24.610  27.929 -0.4552 -0.3168  0.1657
 3179DPPC   PO459834  10.069  24.510  28.045  0.0551 -0.0798  0.0192
 3179DPPC   GL159835  10.046  24.152  28.292 -0.3662  0.0884  0.0752
 3179DPPC   GL259836   9.968  24.027  28.520  0.0618  0.2195  0.1154
 3179DPPC   C1A59837  10.064  23.677  28.182 -0.1178 -0.1745 -0.2908
 3179DPPC   C2A59838  10.281  23.342  28.015 -0.1419 -0.1296 -0.0448
 3179DPPC   C3A59839  10.458  23.325  27.583  0.1234  0.1044  0.1516
 3179DPPC   C4A59840  10.644  23.644  27.224  0.2675  0.3601 -0.0479
 3179DPPC   C1B59841  10.252  23.777  28.783  0.3329 -0.2044 -0.0986
 3179DPPC   C2B59842  10.566  23.587  28.979  0.0279  0.1949  0.3207
 3179DPPC   C3B59843  10.756  23.291  28.931 -0.3291 -0.0132 -0.0494
 3179DPPC   C4B59844  11.176  23.282  29.076 -0.2323  0.0370 -0.0196
 3180DPPC   NC359845  22.702   1.653  31.126 -0.0975 -0.1537 -0.0018
 3180DPPC   PO459846  23.150   1.626  31.228  0.0768  0.0174  0.1397
 3180DPPC   GL159847  22.915   2.079  31.065 -0.1544 -0.0717 -0.1482
 3180DPPC   GL259848  22.691   2.067  30.884  0.0735  0.0377 -0.1455
 3180DPPC   C1A59849  22.755   2.478  31.233 -0.2375  0.3357 -0.1853
 3180DPPC   C2A59850  22.861   2.856  31.416 -0.2595  0.2843  0.1529
 3180DPPC   C3A59851  22.686   3.165  31.631  0.0933  0.2626 -0.0087
 3180DPPC   C4A59852  22.336   3.164  31.885  0.4750  0.0446  0.0182
 3180DPPC   C1B59853  22.402   2.156  30.499 -0.2438  0.0796 -0.3547
 3180DPPC   C2B59854  22.364   2.520  30.388 -0.1664  0.0276 -0.0303
 3180DPPC   C3B59855  22.373   2.870  30.066 -0.1398  0.2572  0.1586
 3180DPPC   C4B59856  22.263   2.951  29.676  0.2000 -0.0541 -0.1798
 3181DPPC   NC359857  22.451   1.026  26.700  0.1358  0.1669 -0.0520
 3181DPPC   PO459858  22.589   1.439  26.488 -0.0692  0.3271  0.1251
 3181DPPC   GL159859  22.247   1.804  26.591  0.3789  0.2727  0.0198
 3181DPPC   GL259860  21.926   1.929  26.779  0.1081  0.3370 -0.1760
 3181DPPC   C1A59861  22.186   2.190  26.327  0.0407 -0.0551 -0.5112
 3181DPPC   C2A59862  22.293   2.507  26.156  0.1847 -0.2040  0.0207
 3181DPPC   C3A59863  22.026   2.890  26.233 -0.1657 -0.2930  0.0076
 3181DPPC   C4A59864  21.753   3.187  26.219  0.2502  0.1687 -0.2121
 3181DPPC   C1B59865  22.073   2.250  27.135 -0.1812 -0.5206  0.2718
 3181DPPC   C2B59866  22.094   2.573  27.505 -0.1953  0.4335 -0.2380
 3181DPPC   C3B59867  22.112   2.948  27.699 -0.1412  0.1762  0.1699
 3181DPPC   C4B59868  22.182   3.171  28.085 -0.4327  0.0488 -0.2622
 3182DPPC   NC359869  19.072  21.853  39.455 -0.2755  0.1712 -0.3577
 3182DPPC   PO459870  19.023  21.434  39.046  0.1901  0.1778 -0.1300
 3182DPPC   GL159871  18.677  21.436  39.132  0.2227 -0.0536 -0.1946
 3182DPPC   GL259872  18.538  21.083  39.202 -0.1397 -0.1914 -0.1594
 3182DPPC   C1A59873  18.339  21.541  38.963 -0.2121 -0.0323  0.2351
 3182DPPC   C2A59874  17.981  21.523  38.675 -0.1081  0.2838 -0.1069
 3182DPPC   C3A59875  17.597  21.438  38.533 -0.1570 -0.1768 -0.2081
 3182DPPC   C4A59876  17.350  21.100  38.550  0.2876 -0.0050  0.3979
 3182DPPC   C1B59877  18.518  20.953  38.788 -0.0317  0.0395 -0.1025
 3182DPPC   C2B59878  18.706  20.572  38.582  0.1255  0.2185 -0.1329
 3182DPPC   C3B59879  18.652  20.336  38.190 -0.1102 -0.3216  0.1820
 3182DPPC   C4B59880  18.254  20.409  38.029 -0.2236  0.4667  0.2818
 3183DPPC   NC359881  15.536  23.347  37.558 -0.1273 -0.2294  0.0419
 3183DPPC   PO459882  15.972  23.280  37.722  0.2739 -0.3059 -0.0242
 3183DPPC   GL159883  15.826  22.858  37.762  0.0874  0.1078  0.2543
 3183DPPC   GL259884  16.119  22.791  37.902 -0.2378  0.1051 -0.3744
 3183DPPC   C1A59885  15.750  22.380  37.761 -0.1585 -0.2788 -0.0826
 3183DPPC   C2A59886  15.995  22.068  37.451  0.2297 -0.3762  0.0903
 3183DPPC   C3A59887  15.964  22.222  37.122 -0.1989 -0.3969 -0.1267
 3183DPPC   C4A59888  15.947  22.105  36.667  0.0035 -0.0612  0.2230
 3183DPPC   C1B59889  16.239  22.554  37.643  0.0262  0.0562 -0.0266
 3183DPPC   C2B59890  16.190  22.685  37.189  0.2529  0.0326  0.0992
 3183DPPC   C3B59891  16.090  22.657  36.748  0.0874  0.1033  0.1040
 3183DPPC   C4B59892  16.167  22.374  36.272 -0.2616  0.1613 -0.5938
 3184DPPC   NC359893  21.426  14.004  22.933  0.0961 -0.1543  0.2886
 3184DPPC   PO459894  21.571  13.998  22.532  0.0755 -0.1762  0.0890
 3184DPPC   GL159895  21.770  14.486  22.395 -0.2265  0.0190 -0.1453
 3184DPPC   GL259896  21.880  14.725  22.600  0.0381  0.1089 -0.1382
 3184DPPC   C1A59897  22.014  14.845  22.131 -0.0135  0.1343  0.1834
 3184DPPC   C2A59898  22.214  15.188  22.008 -0.1312 -0.0321  0.1320
 3184DPPC   C3A59899  22.689  15.246  21.746  0.1552  0.1030 -0.1917
 3184DPPC   C4A59900  23.050  15.327  21.915 -0.0022  0.0936  0.0344
 3184DPPC   C1B59901  21.916  15.291  22.531  0.0871  0.3025  0.0291
 3184DPPC   C2B59902  21.939  15.532  22.274 -0.0256  0.3438 -0.0760
 3184DPPC   C3B59903  22.176  15.704  21.950 -0.3928 -0.2380 -0.1969
 3184DPPC   C4B59904  22.499  15.712  21.665  0.2334 -0.1600  0.0197
 3185DPPC   NC359905  26.789  17.370  32.074  0.0010  0.0957 -0.2270
 3185DPPC   PO459906  26.493  17.101  32.059 -0.0327 -0.0474  0.1500
 3185DPPC   GL159907  26.079  16.901  32.125 -0.0292  0.2381 -0.1608
 3185DPPC   GL259908  26.100  16.637  31.890 -0.2176  0.1997 -0.2208
 3185DPPC   C1A59909  25.716  16.692  32.281  0.1249  0.0717  0.1048
 3185DPPC   C2A59910  25.265  16.731  32.351  0.0194  0.1085  0.2592
 3185DPPC   C3A59911  24.973  16.359  32.274  0.4036 -0.0653 -0.2964
 3185DPPC   C4A59912  24.958  16.007  32.612 -0.0394 -0.0131 -0.1276
 3185DPPC   C1B59913  25.627  16.728  31.726  0.0815 -0.1133 -0.1598
 3185DPPC   C2B59914  25.248  16.815  31.850  0.1346  0.4534 -0.1000
 3185DPPC   C3B59915  24.922  16.767  31.957 -0.3365 -0.2059  0.2602
 3185DPPC   C4B59916  24.798  16.413  31.735 -0.1576 -0.2163 -0.0133
 3186DPPC   NC359917  25.743   3.295  31.003 -0.0698  0.1238 -0.1220
 3186DPPC   PO459918  25.291   3.466  31.239  0.0650  0.1293  0.3345
 3186DPPC   GL159919  24.892   3.547  31.281  0.1340  0.0061  0.5278
 3186DPPC   GL259920  24.875   3.911  31.375 -0.0786 -0.0849  0.0400
 3186DPPC   C1A59921  24.422   3.746  31.126  0.3115 -0.3137 -0.1745
 3186DPPC   C2A59922  23.991   3.815  31.214 -0.1499 -0.0882 -0.0377
 3186DPPC   C3A59923  23.745   4.130  31.110  0.3808  0.3916  0.1255
 3186DPPC   C4A59924  23.631   4.370  30.880 -0.1366 -0.1252 -0.0228
 3186DPPC   C1B59925  24.475   4.106  31.467 -0.0472 -0.2346  0.1067
 3186DPPC   C2B59926  24.222   4.470  31.416  0.0568  0.0009  0.1909
 3186DPPC   C3B59927  23.849   4.817  31.529  0.3645  0.0233 -0.0997
 3186DPPC   C4B59928  23.540   5.015  31.773 -0.1198 -0.3446  0.1925
 3187DPPC   NC359929  11.211   3.017  37.380  0.0432  0.0794  0.3805
 3187DPPC   PO459930  10.930   2.998  37.125  0.0314 -0.0462  0.2042
 3187DPPC   GL159931  11.319   3.209  36.915  0.0006 -0.1073 -0.2303
 3187DPPC   GL259932  11.589   2.978  36.711 -0.0894  0.1811 -0.2750
 3187DPPC   C1A59933  11.644   3.541  36.787 -0.0901 -0.0547  0.0374
 3187DPPC   C2A59934  11.811   3.920  36.677 -0.0393  0.0633  0.0260
 3187DPPC   C3A59935  11.955   3.946  36.332 -0.0727 -0.0487  0.0113
 3187DPPC   C4A59936  11.962   4.185  35.855 -0.0875  0.0911 -0.3348
 3187DPPC   C1B59937  11.973   3.272  36.487 -0.1970  0.1939  0.2877
 3187DPPC   C2B59938  12.273   3.487  36.210  0.4635  0.1834  0.2726
 3187DPPC   C3B59939  12.247   3.789  35.959  0.2111 -0.0765 -0.1156
 3187DPPC   C4B59940  12.477   4.056  35.691  0.0978  0.1186  0.0503
 3188DPPC   NC359941  17.598  14.623  23.414 -0.0296 -0.0685 -0.1009
 3188DPPC   PO459942  17.245  14.368  23.304 -0.1255 -0.1684  0.3385
 3188DPPC   GL159943  16.986  14.474  23.659 -0.0266  0.2240 -0.0556
 3188DPPC   GL259944  17.151  14.442  23.858 -0.0304 -0.0605  0.1483
 3188DPPC   C1A59945  16.568  14.353  23.747  0.0679  0.2057 -0.0067
 3188DPPC   C2A59946  16.382  14.279  24.136  0.1725  0.1108 -0.0687
 3188DPPC   C3A59947  16.364  14.226  24.616  0.0713  0.0878 -0.0081
 3188DPPC   C4A59948  16.422  14.010  25.053 -0.0659 -0.0380 -0.0112
 3188DPPC   C1B59949  16.889  14.544  24.213  0.2008 -0.3325 -0.3323
 3188DPPC   C2B59950  16.782  14.482  24.686  0.0223 -0.0343 -0.0845
 3188DPPC   C3B59951  16.904  14.388  25.162  0.1683 -0.0225 -0.2102
 3188DPPC   C4B59952  16.949  13.989  25.409 -0.0593 -0.2317 -0.1411
 3189DPPC   NC359953  20.712  19.023  18.939 -0.0216  0.1469  0.1313
 3189DPPC   PO459954  20.913  19.338  19.238  0.2649  0.3170  0.2998
 3189DPPC   GL159955  20.713  19.073  19.481  0.2080  0.1757  0.1668
 3189DPPC   GL259956  20.507  19.387  19.645 -0.3078  0.0309  0.2880
 3189DPPC   C1A59957  20.679  18.656  19.670  0.1477 -0.3049 -0.0729
 3189DPPC   C2A59958  20.645  18.315  19.615  0.2631  0.0168  0.0346
 3189DPPC   C3A59959  20.485  17.952  19.684  0.0532  0.3465  0.4500
 3189DPPC   C4A59960  20.701  17.610  19.580  0.0804  0.1314  0.2008
 3189DPPC   C1B59961  20.246  19.058  19.878 -0.1175 -0.0265 -0.2088
 3189DPPC   C2B59962  19.815  19.099  19.564 -0.3663  0.2443 -0.0499
 3189DPPC   C3B59963  19.367  19.094  19.287 -0.0440  0.1503 -0.2388
 3189DPPC   C4B59964  19.288  19.038  18.858  0.1881 -0.0399 -0.3760
 3190DPPC   NC359965  13.228  16.780  17.038 -0.0347 -0.2485 -0.1954
 3190DPPC   PO459966  13.319  16.379  16.802  0.0284 -0.1004 -0.1963
 3190DPPC   GL159967  13.672  16.292  17.062 -0.0095  0.0435 -0.0544
 3190DPPC   GL259968  13.750  16.027  17.003 -0.1917 -0.1988 -0.2146
 3190DPPC   C1A59969  14.010  16.361  17.488 -0.1629  0.1921  0.1991
 3190DPPC   C2A59970  14.402  16.382  17.684  0.2934  0.1443 -0.1564
 3190DPPC   C3A59971  14.641  16.276  17.510  0.0748 -0.2319  0.1768
 3190DPPC   C4A59972  15.005  16.479  17.304  0.0003  0.0369  0.0859
 3190DPPC   C1B59973  13.667  15.674  17.213  0.1234 -0.1660  0.1159
 3190DPPC   C2B59974  13.531  15.542  17.587  0.1317 -0.1797 -0.0526
 3190DPPC   C3B59975  13.431  15.738  17.970 -0.3544  0.1328 -0.3747
 3190DPPC   C4B59976  13.509  15.667  18.317  0.1877 -0.4528  0.2029
 3191DPPC   NC359977  13.645  23.949  36.810 -0.4150 -0.2364  0.1136
 3191DPPC   PO459978  13.410  23.984  36.387 -0.2556  0.2482  0.0537
 3191DPPC   GL159979  13.365  23.736  36.022 -0.0838  0.0580 -0.1799
 3191DPPC   GL259980  13.176  23.433  36.245  0.2909 -0.0747 -0.0947
 3191DPPC   C1A59981  13.667  23.518  35.849  0.1164 -0.0896 -0.2644
 3191DPPC   C2A59982  13.855  23.313  35.569  0.3098  0.2853  0.0362
 3191DPPC   C3A59983  14.006  23.030  35.273 -0.1301  0.6858 -0.0789
 3191DPPC   C4A59984  14.084  22.724  34.888 -0.1970  0.2718 -0.1977
 3191DPPC   C1B59985  13.425  23.106  36.161 -0.1193 -0.0831  0.0402
 3191DPPC   C2B59986  13.504  22.665  36.095  0.0981  0.1234  0.0491
 3191DPPC   C3B59987  13.465  22.207  36.115 -0.1529  0.0382 -0.0525
 3191DPPC   C4B59988  13.421  21.810  36.199  0.0403  0.0051 -0.2649
 3192DPPC   NC359989  13.039  10.682  44.148  0.2051  0.1852 -0.1695
 3192DPPC   PO459990  13.320  10.914  43.765  0.0821  0.1615 -0.0952
 3192DPPC   GL159991  13.389  11.184  43.446  0.3255 -0.0210  0.0004
 3192DPPC   GL259992  13.637  11.409  43.482 -0.1095 -0.3062 -0.2040
 3192DPPC   C1A59993  13.507  11.135  43.032  0.2746 -0.3336 -0.0351
 3192DPPC   C2A59994  13.635  11.233  42.695 -0.1161  0.4158  0.1152
 3192DPPC   C3A59995  13.573  11.252  42.264 -0.1338  0.2831  0.0456
 3192DPPC   C4A59996  13.394  11.441  42.023 -0.1421 -0.1509 -0.0214
 3192DPPC   C1B59997  13.826  11.561  43.131 -0.0550  0.0760  0.0835
 3192DPPC   C2B59998  14.043  11.801  42.823  0.0330 -0.0120  0.0378
 3192DPPC   C3B59999  14.181  12.177  42.592  0.2693  0.0712  0.0149
 3192DPPC   C4B60000  14.375  12.694  42.372  0.0061  0.0960  0.2007
 3193DPPC   NC360001  14.099   2.745  39.209  0.0357  0.0491  0.2198
 3193DPPC   PO460002  14.160   3.183  39.170  0.0315 -0.0026  0.1656
 3193DPPC   GL160003  14.393   3.548  38.978 -0.2222 -0.0551  0.1860
 3193DPPC   GL260004  14.178   3.748  39.175  0.0947  0.1243 -0.1824
 3193DPPC   C1A60005  14.438   4.063  38.863  0.1832 -0.0522 -0.0875
 3193DPPC   C2A60006  14.303   4.552  38.883  0.2382  0.0050 -0.0981
 3193DPPC   C3A60007  14.194   4.892  38.508 -0.0416 -0.0488  0.2824
 3193DPPC   C4A60008  14.279   5.239  38.312 -0.0662  0.1311  0.0616
 3193DPPC   C1B60009  14.481   4.077  39.369 -0.0103 -0.1889 -0.1447
 3193DPPC   C2B60010  14.695   4.183  39.622 -0.0382 -0.0520 -0.5172
 3193DPPC   C3B60011  14.808   4.468  40.007 -0.1206  0.0522  0.0852
 3193DPPC   C4B60012  14.469   4.711  40.263 -0.0248  0.0784 -0.0739
 3194DPPC   NC360013   5.935  21.271  26.921  0.2032  0.2518  0.2488
 3194DPPC   PO460014   6.273  21.360  27.064 -0.0719  0.1220  0.3566
 3194DPPC   GL160015   6.555  21.044  27.193  0.0275 -0.1848 -0.2156
 3194DPPC   GL260016   6.798  21.122  27.065  0.1867  0.1530  0.3092
 3194DPPC   C1A60017   6.890  21.073  27.557  0.1541  0.1377  0.3310
 3194DPPC   C2A60018   7.045  20.750  27.874 -0.1997 -0.4430 -0.0678
 3194DPPC   C3A60019   7.344  20.419  27.876 -0.1649 -0.2934 -0.3385
 3194DPPC   C4A60020   7.745  20.397  27.858  0.2377  0.0398  0.0537
 3194DPPC   C1B60021   7.016  20.677  27.068 -0.5853 -0.0499  0.0359
 3194DPPC   C2B60022   7.263  20.317  27.062  0.0834  0.1603 -0.1351
 3194DPPC   C3B60023   7.552  20.014  27.078  0.0143 -0.2305  0.0868
 3194DPPC   C4B60024   7.875  19.745  27.067 -0.1494 -0.1154 -0.0083
 3195DPPC   NC360025  18.111  19.023  23.554 -0.0073 -0.1023  0.2123
 3195DPPC   PO460026  18.431  19.278  23.870  0.0233 -0.1463  0.1425
 3195DPPC   GL160027  18.676  19.601  23.941  0.0769  0.3030 -0.0878
 3195DPPC   GL260028  18.540  19.748  24.187 -0.0333  0.0807  0.0021
 3195DPPC   C1A60029  18.990  19.926  23.826  0.0246  0.1240 -0.1194
 3195DPPC   C2A60030  18.894  20.280  23.949 -0.0261  0.0403 -0.1735
 3195DPPC   C3A60031  18.914  20.681  23.763  0.2222  0.1218  0.0617
 3195DPPC   C4A60032  18.718  20.749  23.377  0.0712  0.0025 -0.2085
 3195DPPC   C1B60033  18.845  19.607  24.441 -0.2085 -0.1607 -0.1748
 3195DPPC   C2B60034  19.190  19.790  24.533  0.1474 -0.2076 -0.1279
 3195DPPC   C3B60035  19.364  20.135  24.867  0.3724 -0.3032 -0.2341
 3195DPPC   C4B60036  19.794  20.348  24.821  0.1632  0.0018  0.0409
 3196DPPC   NC360037  19.772   9.965  43.468 -0.0587 -0.2844 -0.2618
 3196DPPC   PO460038  19.867  10.419  43.261 -0.0106 -0.3235  0.3975
 3196DPPC   GL160039  19.685  10.459  42.872  0.0679 -0.1003 -0.1826
 3196DPPC   GL260040  19.612  10.239  42.684 -0.0679 -0.0678 -0.2870
 3196DPPC   C1A60041  19.822  10.740  42.511 -0.3209  0.0451  0.0205
 3196DPPC   C2A60042  19.997  10.904  42.080 -0.1340  0.0784 -0.3666
 3196DPPC   C3A60043  19.865  11.000  41.790  0.2311  0.2470 -0.1266
 3196DPPC   C4A60044  19.527  11.102  41.599 -0.1826  0.0777 -0.0175
 3196DPPC   C1B60045  19.722  10.215  42.187  0.0320  0.0395 -0.1965
 3196DPPC   C2B60046  19.891  10.464  41.853  0.1117  0.0905  0.0909
 3196DPPC   C3B60047  20.045  10.377  41.455  0.2035  0.0745 -0.3681
 3196DPPC   C4B60048  20.194   9.995  41.230 -0.0810  0.2315  0.1304
 3197DPPC   NC360049  14.402  25.215  33.042  0.1777  0.2328 -0.0949
 3197DPPC   PO460050  14.537  25.155  33.452 -0.2558  0.0164 -0.0362
 3197DPPC   GL160051  14.672  24.760  33.404  0.4198  0.3332  0.0999
 3197DPPC   GL260052  14.719  24.715  32.971  0.0002  0.0016  0.2923
 3197DPPC   C1A60053  14.921  24.408  33.437 -0.2657  0.2190 -0.1252
 3197DPPC   C2A60054  15.176  24.121  33.295 -0.3614 -0.1234 -0.0894
 3197DPPC   C3A60055  15.396  23.752  33.399 -0.1977 -0.0757  0.0170
 3197DPPC   C4A60056  15.327  23.176  33.374 -0.0416  0.0950 -0.1640
 3197DPPC   C1B60057  14.663  24.359  32.723  0.2091 -0.0134 -0.0682
 3197DPPC   C2B60058  14.501  23.972  32.632 -0.0054  0.1570 -0.2985
 3197DPPC   C3B60059  14.462  23.477  32.779 -0.3294  0.0865 -0.1674
 3197DPPC   C4B60060  14.593  23.112  32.512 -0.1810 -0.0905 -0.2243
 3198DPPC   NC360061  25.170  10.393  18.261  0.0145  0.1609 -0.0824
 3198DPPC   PO460062  24.890  10.056  18.359  0.2627  0.3547  0.0521
 3198DPPC   GL160063  24.818  10.102  18.753 -0.2139 -0.0569  0.0293
 3198DPPC   GL260064  24.522   9.890  18.798 -0.0159 -0.2111  0.3527
 3198DPPC   C1A60065  24.457  10.256  19.088  0.0246  0.0220 -0.0549
 3198DPPC   C2A60066  24.235  10.403  19.352  0.0144 -0.1780 -0.0440
 3198DPPC   C3A60067  23.829  10.388  19.582  0.1679 -0.0199  0.2067
 3198DPPC   C4A60068  23.612  10.604  19.931  0.1365 -0.1275  0.0681
 3198DPPC   C1B60069  24.322   9.831  19.318 -0.0224 -0.2430 -0.1561
 3198DPPC   C2B60070  24.306  10.085  19.700 -0.0189  0.0960  0.2634
 3198DPPC   C3B60071  24.204  10.372  19.940  0.1829  0.3140  0.3499
 3198DPPC   C4B60072  24.316  10.398  20.380  0.0745 -0.1255 -0.1144
 3199DPPC   NC360073  16.973   0.290  24.587  0.1751  0.0147  0.2056
 3199DPPC   PO460074  16.815   0.760  24.717 -0.0786 -0.0404  0.0683
 3199DPPC   GL160075  17.023   1.095  24.833  0.4007  0.0482  0.2064
 3199DPPC   GL260076  17.311   1.161  24.759 -0.1996  0.2567 -0.1929
 3199DPPC   C1A60077  16.906   1.542  24.718 -0.1605  0.2675 -0.4241
 3199DPPC   C2A60078  16.572   1.973  24.738  0.4150  0.0354  0.2110
 3199DPPC   C3A60079  16.851   2.466  24.757  0.1808  0.0782  0.3239
 3199DPPC   C4A60080  17.224   2.796  24.811 -0.2854 -0.1460 -0.2122
 3199DPPC   C1B60081  17.408   1.623  24.740 -0.0802 -0.1400  0.0994
 3199DPPC   C2B60082  17.626   1.904  25.014 -0.0132 -0.0066 -0.1921
 3199DPPC   C3B60083  17.509   2.148  25.311  0.1092 -0.1558  0.1507
 3199DPPC   C4B60084  17.391   2.461  25.605  0.2375  0.1834  0.1855
 3200DPPC   NC360085  16.581   7.797  43.499  0.4606 -0.0014  0.3987
 3200DPPC   PO460086  16.874   7.798  43.103 -0.1348 -0.0481  0.3087
 3200DPPC   GL160087  16.983   7.832  42.671 -0.7364  0.0526 -0.0804
 3200DPPC   GL260088  17.138   8.095  42.621  0.0426 -0.1119 -0.1105
 3200DPPC   C1A60089  16.661   7.997  42.375 -0.2080  0.0607  0.1043
 3200DPPC   C2A60090  16.782   7.785  42.032  0.0832 -0.0093  0.1792
 3200DPPC   C3A60091  17.003   7.711  41.678  0.0925  0.0064  0.2410
 3200DPPC   C4A60092  16.935   7.647  41.159  0.0748  0.1998 -0.0727
 3200DPPC   C1B60093  17.110   8.139  42.226  0.2227 -0.1012  0.0931
 3200DPPC   C2B60094  17.125   8.184  41.788 -0.1997  0.2855  0.0689
 3200DPPC   C3B60095  16.890   8.149  41.358  0.1158 -0.1544 -0.2328
 3200DPPC   C4B60096  16.715   8.334  41.018  0.0780 -0.1664 -0.0495
 3201DPPC   NC360097  19.264  22.791  21.633 -0.3101 -0.3552  0.1301
 3201DPPC   PO460098  18.826  22.993  21.741  0.0648 -0.0161 -0.0320
 3201DPPC   GL160099  18.707  22.611  21.886  0.1864  0.1366 -0.2107
 3201DPPC   GL260100  18.869  22.459  22.178 -0.3829  0.2180 -0.3169
 3201DPPC   C1A60101  18.527  22.194  21.880  0.1927 -0.0059 -0.1821
 3201DPPC   C2A60102  18.318  21.835  22.004 -0.3407  0.1608  0.2037
 3201DPPC   C3A60103  18.034  21.505  22.098 -0.2042  0.0289  0.5485
 3201DPPC   C4A60104  17.851  21.156  21.846  0.3619  0.0205 -0.2206
 3201DPPC   C1B60105  18.934  22.201  22.589  0.4138  0.2071 -0.0141
 3201DPPC   C2B60106  18.743  21.826  22.713 -0.0632  0.1266 -0.3007
 3201DPPC   C3B60107  18.694  21.474  22.882  0.4163 -0.0725 -0.0109
 3201DPPC   C4B60108  18.766  21.310  23.190 -0.0098  0.1080 -0.0925
 3202DPPC   NC360109  19.310   9.042  43.268  0.0819 -0.2085  0.3141
 3202DPPC   PO460110  19.718   8.941  43.207  0.3896  0.0248  0.3349
 3202DPPC   GL160111  19.701   8.763  42.672 -0.2395 -0.3766 -0.2714
 3202DPPC   GL260112  19.286   8.941  42.738 -0.2032 -0.0943 -0.0121
 3202DPPC   C1A60113  19.521   8.717  42.391  0.1334  0.0097  0.2893
 3202DPPC   C2A60114  19.170   8.623  42.224  0.0711  0.2562 -0.3149
 3202DPPC   C3A60115  18.912   8.719  41.875 -0.3250 -0.2284 -0.1517
 3202DPPC   C4A60116  18.837   8.802  41.402  0.1103 -0.1048 -0.0860
 3202DPPC   C1B60117  18.956   8.777  42.658  0.1104  0.3700  0.2246
 3202DPPC   C2B60118  18.701   8.817  42.316  0.2110 -0.1042  0.1178
 3202DPPC   C3B60119  18.419   8.739  41.952  0.0757  0.0096  0.0834
 3202DPPC   C4B60120  18.396   8.605  41.529 -0.0968  0.0678  0.3686
 3203DPPC   NC360121  21.227  13.552  21.832 -0.0904  0.1989  0.4218
 3203DPPC   PO460122  21.606  13.420  21.760 -0.0613 -0.1265  0.0209
 3203DPPC   GL160123  21.982  13.318  21.556  0.0183 -0.0547  0.1181
 3203DPPC   GL260124  22.297  13.259  21.808  0.1760 -0.0968 -0.1718
 3203DPPC   C1A60125  22.302  13.559  21.475 -0.0008 -0.1508 -0.2401
 3203DPPC   C2A60126  22.530  13.818  21.706  0.2737 -0.3526 -0.0954
 3203DPPC   C3A60127  22.909  14.109  21.971 -0.1694 -0.0443  0.3125
 3203DPPC   C4A60128  23.323  13.968  22.091  0.0307  0.0323  0.0461
 3203DPPC   C1B60129  22.753  13.361  21.635 -0.3780 -0.0663  0.0467
 3203DPPC   C2B60130  23.109  13.143  21.635 -0.2409  0.0329  0.0381
 3203DPPC   C3B60131  23.522  13.252  21.615 -0.1187 -0.0250 -0.0265
 3203DPPC   C4B60132  23.919  13.529  21.621 -0.1406 -0.0548 -0.2722
 3204DPPC   NC360133  13.980  17.106  16.571 -0.1979  0.3279 -0.1874
 3204DPPC   PO460134  13.663  16.760  16.755  0.2992  0.0801 -0.1302
 3204DPPC   GL160135  13.835  16.808  17.110 -0.0109 -0.0688 -0.1523
 3204DPPC   GL260136  14.131  16.881  17.051  0.2355 -0.1249  0.1360
 3204DPPC   C1A60137  14.159  16.814  17.487 -0.0468 -0.1781 -0.1636
 3204DPPC   C2A60138  14.363  16.855  17.895  0.0605  0.2887  0.1413
 3204DPPC   C3A60139  14.557  16.689  18.292 -0.1390 -0.2313 -0.0467
 3204DPPC   C4A60140  15.047  16.513  18.407  0.1533 -0.1344 -0.1853
 3204DPPC   C1B60141  14.565  16.733  17.190  0.1601 -0.0855  0.0065
 3204DPPC   C2B60142  14.742  16.756  17.622 -0.0763 -0.2061 -0.0377
 3204DPPC   C3B60143  14.912  16.454  17.908  0.4633  0.2806  0.0685
 3204DPPC   C4B60144  14.745  15.987  18.039  0.1579 -0.3533 -0.1786
 3205DPPC   NC360145  18.461  16.808  20.660 -0.2352 -0.0141  0.2903
 3205DPPC   PO460146  17.998  16.844  20.501 -0.2153  0.2035 -0.0951
 3205DPPC   GL160147  18.211  17.068  20.136  0.1333 -0.0255  0.0509
 3205DPPC   GL260148  18.157  16.828  19.951 -0.1015  0.1671 -0.0074
 3205DPPC   C1A60149  18.542  17.370  20.145 -0.1707  0.2586 -0.2763
 3205DPPC   C2A60150  18.712  17.748  19.939  0.0280  0.0967 -0.2222
 3205DPPC   C3A60151  18.818  17.920  19.671 -0.0625  0.0617  0.1210
 3205DPPC   C4A60152  18.963  18.063  19.238  0.4227  0.1034 -0.2992
 3205DPPC   C1B60153  18.410  17.175  19.687 -0.0950 -0.1134  0.2373
 3205DPPC   C2B60154  18.421  17.566  19.607 -0.0543 -0.1258  0.4493
 3205DPPC   C3B60155  18.373  17.902  19.242  0.1022 -0.1589 -0.0284
 3205DPPC   C4B60156  18.502  18.206  18.993  0.0443  0.1298 -0.2150
 3206DPPC   NC360157  13.276  12.312  43.828  0.0082  0.2316  0.2115
 3206DPPC   PO460158  13.691  12.618  43.835  0.0834 -0.2328 -0.3213
 3206DPPC   GL160159  13.519  12.721  43.425  0.0069  0.0584 -0.1070
 3206DPPC   GL260160  13.337  13.050  43.366 -0.0890 -0.3125  0.0569
 3206DPPC   C1A60161  13.690  12.585  43.090  0.3080 -0.3297  0.1281
 3206DPPC   C2A60162  13.707  12.191  42.886  0.1413 -0.0666  0.4062
 3206DPPC   C3A60163  13.714  12.164  42.465  0.0340  0.1335  0.0866
 3206DPPC   C4A60164  13.365  11.945  42.184  0.2463 -0.1636  0.2200
 3206DPPC   C1B60165  13.299  13.029  43.040 -0.0252  0.1056  0.1021
 3206DPPC   C2B60166  13.629  13.117  42.737  0.1536 -0.1272 -0.3754
 3206DPPC   C3B60167  13.963  13.171  42.404 -0.0977  0.0236 -0.1514
 3206DPPC   C4B60168  14.102  13.571  42.253 -0.1677 -0.0185 -0.3125
 3207DPPC   NC360169  17.589  17.025  15.809 -0.2932  0.1128  0.0220
 3207DPPC   PO460170  17.556  17.410  15.970  0.1230  0.0334  0.2750
 3207DPPC   GL160171  17.407  17.480  16.418 -0.2851 -0.0393 -0.0189
 3207DPPC   GL260172  16.986  17.346  16.513 -0.2437 -0.2524  0.1388
 3207DPPC   C1A60173  17.567  17.271  16.752  0.1067  0.1741 -0.1057
 3207DPPC   C2A60174  17.460  17.303  17.100  0.0366 -0.3082  0.1351
 3207DPPC   C3A60175  17.599  17.155  17.591 -0.1000 -0.2866  0.1562
 3207DPPC   C4A60176  17.885  17.263  17.913  0.1116 -0.1717  0.4952
 3207DPPC   C1B60177  17.132  17.654  16.845  0.2301  0.2594 -0.0046
 3207DPPC   C2B60178  17.179  17.665  17.256  0.1058  0.1353 -0.1859
 3207DPPC   C3B60179  17.435  17.620  17.548  0.0286  0.1886  0.0790
 3207DPPC   C4B60180  17.592  17.771  17.901 -0.0957  0.1465  0.0775
 3208DPPC   NC360181  22.625   8.591  23.828  0.0068  0.0711  0.3012
 3208DPPC   PO460182  22.859   8.766  24.238 -0.1484 -0.3468 -0.1989
 3208DPPC   GL160183  23.089   8.438  24.050 -0.1984 -0.1833 -0.1844
 3208DPPC   GL260184  23.073   8.139  24.121  0.6155 -0.1294  0.0070
 3208DPPC   C1A60185  23.489   8.324  24.171 -0.0847 -0.1757 -0.1144
 3208DPPC   C2A60186  23.898   8.240  24.333  0.1829  0.0150 -0.0816
 3208DPPC   C3A60187  24.305   8.051  24.249  0.0991 -0.0303 -0.0986
 3208DPPC   C4A60188  24.706   8.039  23.990  0.0199  0.3963 -0.4530
 3208DPPC   C1B60189  23.310   7.808  23.961  0.0918 -0.2686  0.1595
 3208DPPC   C2B60190  23.618   7.916  23.645 -0.2570  0.2014  0.0906
 3208DPPC   C3B60191  23.495   7.735  23.309 -0.0526 -0.0550  0.1717
 3208DPPC   C4B60192  23.688   7.543  23.004 -0.1475  0.0949  0.5633
 3209DPPC   NC360193   6.789   4.451  33.703 -0.0174 -0.3821 -0.0067
 3209DPPC   PO460194   7.113   4.404  33.985  0.2085 -0.1139  0.1712
 3209DPPC   GL160195   7.549   4.610  33.877  0.3003 -0.0850 -0.1937
 3209DPPC   GL260196   7.563   4.869  33.930  0.0663  0.0219  0.1674
 3209DPPC   C1A60197   7.935   4.734  33.657 -0.1986  0.2987 -0.0774
 3209DPPC   C2A60198   8.290   4.924  33.683  0.1386 -0.3745 -0.2060
 3209DPPC   C3A60199   8.695   4.850  33.625 -0.0021  0.0181  0.1788
 3209DPPC   C4A60200   9.169   4.878  33.634  0.0210 -0.2210 -0.1855
 3209DPPC   C1B60201   7.756   5.251  33.911 -0.0741 -0.2077  0.1778
 3209DPPC   C2B60202   8.108   5.574  33.999  0.0638 -0.0095 -0.2153
 3209DPPC   C3B60203   8.574   5.739  33.968  0.2559 -0.3168  0.1867
 3209DPPC   C4B60204   8.759   6.081  33.736  0.0226 -0.1811  0.3042
 3210DPPC   NC360205  11.580  15.634  42.775 -0.0648 -0.2847 -0.0903
 3210DPPC   PO460206  11.939  15.829  42.656  0.0233  0.1155  0.0910
 3210DPPC   GL160207  11.951  15.834  42.224 -0.2923 -0.1698  0.1854
 3210DPPC   GL260208  11.697  15.707  42.175 -0.0669 -0.0637  0.5144
 3210DPPC   C1A60209  12.033  15.677  41.740  0.0029 -0.3841  0.3161
 3210DPPC   C2A60210  12.368  15.324  41.585 -0.0817  0.1239  0.0601
 3210DPPC   C3A60211  12.544  14.975  41.408 -0.0780  0.1815  0.3832
 3210DPPC   C4A60212  12.404  14.668  41.190  0.0360  0.0540  0.0168
 3210DPPC   C1B60213  11.687  15.335  41.906  0.1342 -0.3658 -0.0207
 3210DPPC   C2B60214  11.809  15.384  41.446 -0.0906  0.1915  0.4584
 3210DPPC   C3B60215  11.784  15.513  40.954  0.1085  0.2346 -0.2103
 3210DPPC   C4B60216  11.792  15.562  40.477  0.1603  0.0490  0.1962
 3211DPPC   NC360217  16.922  16.328  19.652  0.0747 -0.2614  0.0759
 3211DPPC   PO460218  17.339  16.136  19.564 -0.2296  0.0358 -0.1208
 3211DPPC   GL160219  17.634  16.323  19.172  0.1624  0.0732  0.1143
 3211DPPC   GL260220  17.703  16.663  19.083 -0.0910  0.0592 -0.0266
 3211DPPC   C1A60221  17.997  16.306  19.028 -0.0292  0.1031 -0.0145
 3211DPPC   C2A60222  18.052  16.546  18.708 -0.2739  0.2618  0.0227
 3211DPPC   C3A60223  18.351  16.623  18.364 -0.0233 -0.1426 -0.1904
 3211DPPC   C4A60224  18.639  16.922  18.173  0.3197  0.3314 -0.0340
 3211DPPC   C1B60225  17.396  17.080  19.047 -0.0012 -0.1311  0.2535
 3211DPPC   C2B60226  17.391  17.456  19.167  0.2330  0.0376  0.1467
 3211DPPC   C3B60227  17.460  17.866  18.830  0.5088  0.2024 -0.0887
 3211DPPC   C4B60228  17.274  18.004  18.458  0.1789 -0.0143  0.0771
 3212DPPC   NC360229  25.166   3.886  28.386  0.1854 -0.0894  0.1749
 3212DPPC   PO460230  25.156   3.858  27.931 -0.2385  0.2283 -0.0168
 3212DPPC   GL160231  24.821   4.221  28.154 -0.0371 -0.1930  0.0639
 3212DPPC   GL260232  24.732   4.333  27.841 -0.0184  0.0521 -0.0081
 3212DPPC   C1A60233  24.541   4.634  28.311  0.0916 -0.3888 -0.0188
 3212DPPC   C2A60234  24.114   4.853  28.371  0.1121  0.1414 -0.0272
 3212DPPC   C3A60235  23.863   5.132  28.632  0.1942  0.1017  0.2794
 3212DPPC   C4A60236  23.580   5.456  28.546 -0.0541 -0.3355  0.1450
 3212DPPC   C1B60237  24.511   3.910  27.860  0.0187  0.1526  0.2636
 3212DPPC   C2B60238  24.309   3.724  28.108 -0.5504 -0.1958 -0.2570
 3212DPPC   C3B60239  23.871   3.846  28.304 -0.0261  0.0214 -0.3031
 3212DPPC   C4B60240  23.511   3.877  28.576 -0.0078 -0.1794 -0.1563
 3213DPPC   NC360241  21.486   9.713  21.133  0.1430 -0.2570  0.1399
 3213DPPC   PO460242  21.748  10.005  20.786  0.1773  0.0530  0.3795
 3213DPPC   GL160243  21.688   9.594  20.619 -0.0163 -0.0150  0.1618
 3213DPPC   GL260244  21.731   9.381  20.824  0.0194  0.1621 -0.1021
 3213DPPC   C1A60245  21.581   9.437  20.214 -0.0786 -0.1498  0.0173
 3213DPPC   C2A60246  21.627   9.181  19.845  0.2773 -0.0400  0.1127
 3213DPPC   C3A60247  21.929   9.103  19.532 -0.3167 -0.1259 -0.0506
 3213DPPC   C4A60248  22.141   9.275  19.289  0.4399  0.0962  0.2216
 3213DPPC   C1B60249  21.933   9.158  20.512  0.0295  0.2069 -0.1587
 3213DPPC   C2B60250  21.978   8.887  20.105  0.1827  0.2231  0.0491
 3213DPPC   C3B60251  22.438   8.726  20.068  0.0760 -0.3146 -0.1000
 3213DPPC   C4B60252  22.564   8.419  19.740 -0.2217  0.1500  0.0771
 3214DPPC   NC360253  10.605  12.286  42.908  0.2845  0.1730  0.0632
 3214DPPC   PO460254  10.557  11.900  42.714  0.0376 -0.1481  0.2370
 3214DPPC   GL160255  10.942  11.966  42.534 -0.0390 -0.0703 -0.1240
 3214DPPC   GL260256  10.778  11.821  42.228  0.1938  0.0471  0.0431
 3214DPPC   C1A60257  11.293  12.008  42.293 -0.0509 -0.0999  0.1067
 3214DPPC   C2A60258  11.475  12.174  41.885 -0.3012  0.2243  0.0344
 3214DPPC   C3A60259  11.641  12.352  41.433 -0.3839  0.0719 -0.0350
 3214DPPC   C4A60260  11.722  12.259  40.979  0.5064 -0.1841 -0.1755
 3214DPPC   C1B60261  10.955  12.081  41.899 -0.2871 -0.1301  0.1530
 3214DPPC   C2B60262  11.039  12.160  41.490 -0.1201 -0.0641  0.2387
 3214DPPC   C3B60263  11.261  12.438  41.060  0.6520 -0.2628  0.1132
 3214DPPC   C4B60264  11.549  12.774  40.895  0.0920 -0.0136 -0.0314
 3215DPPC   NC360265  20.437  12.968  19.630 -0.0681  0.0986  0.2026
 3215DPPC   PO460266  20.845  13.174  19.443 -0.0288  0.0215  0.0688
 3215DPPC   GL160267  20.920  13.312  19.084  0.2998  0.1795 -0.2487
 3215DPPC   GL260268  20.762  13.573  19.130 -0.2663  0.3369  0.0960
 3215DPPC   C1A60269  21.194  13.437  18.877 -0.0730  0.2827  0.4207
 3215DPPC   C2A60270  21.070  13.531  18.430  0.1079 -0.2464 -0.0593
 3215DPPC   C3A60271  21.253  13.593  18.186  0.3248 -0.0190  0.1109
 3215DPPC   C4A60272  21.268  13.769  17.883  0.1218 -0.0213 -0.0157
 3215DPPC   C1B60273  20.598  13.547  18.691  0.1400  0.1501 -0.2167
 3215DPPC   C2B60274  20.467  13.485  18.212  0.1024 -0.0404 -0.1406
 3215DPPC   C3B60275  20.136  13.384  17.917 -0.0999 -0.1818  0.0917
 3215DPPC   C4B60276  19.851  13.315  17.705 -0.3611  0.5894 -0.2515
 3216DPPC   NC360277   4.026  11.122  33.714 -0.2554  0.1014  0.0274
 3216DPPC   PO460278   3.989  11.551  33.963 -0.0243 -0.0411 -0.1652
 3216DPPC   GL160279   4.373  11.377  34.083  0.0835 -0.0300  0.2739
 3216DPPC   GL260280   4.583  11.408  33.737  0.1747 -0.1892 -0.0598
 3216DPPC   C1A60281   4.779  11.421  34.184 -0.0290 -0.1718  0.0815
 3216DPPC   C2A60282   5.128  11.259  34.167  0.1531 -0.1306  0.0437
 3216DPPC   C3A60283   5.520  11.247  34.107 -0.1568  0.0686  0.1156
 3216DPPC   C4A60284   5.840  11.002  33.976 -0.1426 -0.0581 -0.1150
 3216DPPC   C1B60285   4.827  11.554  33.541 -0.2708 -0.1582 -0.2981
 3216DPPC   C2B60286   5.106  11.749  33.361  0.0685 -0.0991  0.0394
 3216DPPC   C3B60287   5.457  11.943  33.506 -0.1006 -0.0533 -0.2582
 3216DPPC   C4B60288   5.700  11.710  33.732 -0.1238 -0.0213  0.0101
 3217DPPC   NC360289   0.189  11.180  26.062  0.1918  0.1166 -0.1605
 3217DPPC   PO460290   0.228  11.491  26.435 -0.2651  0.4114  0.0577
 3217DPPC   GL160291  26.804  11.715  26.525 -0.3280  0.0834 -0.3297
 3217DPPC   GL260292  26.690  12.009  26.607 -0.0186  0.0091  0.3401
 3217DPPC   C1A60293  26.418  11.514  26.652 -0.0030  0.0660  0.1597
 3217DPPC   C2A60294  26.205  11.239  26.492  0.0439 -0.4792  0.1801
 3217DPPC   C3A60295  26.145  10.757  26.658  0.0725 -0.2725 -0.0548
 3217DPPC   C4A60296  25.857  10.492  26.887 -0.1427 -0.1602 -0.0153
 3217DPPC   C1B60297  26.349  11.952  26.923  0.1552  0.1486 -0.0193
 3217DPPC   C2B60298  26.049  11.626  27.109 -0.0237 -0.1684  0.1366
 3217DPPC   C3B60299  25.796  11.415  27.311  0.1372  0.1132 -0.1723
 3217DPPC   C4B60300  25.464  11.361  27.725 -0.1746  0.0080 -0.1393
 3218DPPC   NC360301  16.693  18.672  21.692  0.1841  0.1204 -0.2239
 3218DPPC   PO460302  16.617  19.080  21.725 -0.0084  0.1820 -0.0086
 3218DPPC   GL160303  16.681  19.531  21.706  0.1729  0.2675 -0.0604
 3218DPPC   GL260304  16.983  19.702  21.694  0.1596 -0.1210  0.2608
 3218DPPC   C1A60305  16.483  19.826  21.316  0.0407 -0.0832  0.2954
 3218DPPC   C2A60306  16.403  20.139  20.996 -0.1815 -0.2634 -0.1987
 3218DPPC   C3A60307  16.635  20.297  20.670  0.1924 -0.0811  0.3233
 3218DPPC   C4A60308  17.015  20.562  20.736  0.2739  0.0057  0.0001
 3218DPPC   C1B60309  16.860  20.107  21.549  0.0531  0.2963  0.0492
 3218DPPC   C2B60310  17.074  20.556  21.470  0.3295 -0.1205 -0.7146
 3218DPPC   C3B60311  17.048  20.924  21.430  0.0494 -0.0396  0.1541
 3218DPPC   C4B60312  16.723  21.197  21.337 -0.0838  0.0483  0.1159
 3219DPPC   NC360313  17.670  20.813  19.153  0.1373 -0.1018 -0.0310
 3219DPPC   PO460314  18.090  20.636  19.001 -0.0569 -0.0771 -0.1568
 3219DPPC   GL160315  18.073  20.237  19.255  0.0373 -0.0858  0.0348
 3219DPPC   GL260316  17.815  20.056  19.319 -0.0055 -0.1413 -0.0938
 3219DPPC   C1A60317  18.090  20.075  19.702 -0.2411 -0.0203 -0.1054
 3219DPPC   C2A60318  17.912  19.748  19.975 -0.2867 -0.2976  0.1243
 3219DPPC   C3A60319  17.754  19.407  20.216 -0.0547 -0.1096 -0.0269
 3219DPPC   C4A60320  17.181  19.282  20.179 -0.1470 -0.2644 -0.0580
 3219DPPC   C1B60321  17.581  19.815  19.537 -0.0634  0.1484 -0.2152
 3219DPPC   C2B60322  17.396  19.763  19.881 -0.0702 -0.1088 -0.2062
 3219DPPC   C3B60323  17.398  19.852  20.224  0.1639  0.4149  0.3135
 3219DPPC   C4B60324  17.170  19.671  20.567 -0.1499  0.2783  0.0077
 3220DPPC   NC360325  17.764  16.568  20.212  0.0513 -0.1146  0.0600
 3220DPPC   PO460326  18.142  16.255  20.097 -0.1766 -0.1223  0.1376
 3220DPPC   GL160327  18.402  16.463  19.683 -0.3367  0.2405  0.3434
 3220DPPC   GL260328  18.315  16.404  19.354 -0.5324 -0.0082 -0.1145
 3220DPPC   C1A60329  18.667  16.748  19.475  0.1889 -0.0995 -0.0973
 3220DPPC   C2A60330  18.626  17.051  19.222  0.0769  0.1493  0.2950
 3220DPPC   C3A60331  18.331  17.389  19.079  0.0786  0.2149  0.2273
 3220DPPC   C4A60332  18.357  17.684  18.794 -0.1967 -0.0614  0.2257
 3220DPPC   C1B60333  18.547  16.523  18.976  0.1546 -0.0753 -0.1428
 3220DPPC   C2B60334  18.767  16.744  18.678 -0.2316 -0.0759 -0.1994
 3220DPPC   C3B60335  18.952  17.176  18.501  0.0736  0.5287  0.3626
 3220DPPC   C4B60336  18.788  17.626  18.494  0.0997  0.1996 -0.1766
 3221DPPC   NC360337  20.961  12.693  19.559  0.0707 -0.1860  0.0862
 3221DPPC   PO460338  21.049  12.341  19.799 -0.2552  0.1874  0.1262
 3221DPPC   GL160339  21.366  12.414  19.412 -0.0675  0.1159 -0.1075
 3221DPPC   GL260340  21.653  12.594  19.473 -0.2455  0.1947 -0.3079
 3221DPPC   C1A60341  21.392  12.472  19.067 -0.2819  0.0820 -0.1406
 3221DPPC   C2A60342  21.826  12.519  18.971 -0.2890 -0.0725 -0.0067
 3221DPPC   C3A60343  22.145  12.497  18.710 -0.1527  0.2136 -0.2122
 3221DPPC   C4A60344  22.308  12.147  18.579  0.3384  0.1123  0.1174
 3221DPPC   C1B60345  21.984  12.902  19.487 -0.2269  0.1776 -0.1994
 3221DPPC   C2B60346  22.011  13.403  19.333 -0.0454 -0.1894  0.0823
 3221DPPC   C3B60347  21.880  13.845  19.332  0.1572 -0.1447  0.2548
 3221DPPC   C4B60348  22.180  14.254  19.252  0.0148 -0.0663 -0.0422
 3222DPPC   NC360349  19.737  10.870  15.118  0.2911  0.0635 -0.0455
 3222DPPC   PO460350  19.411  11.049  15.094  0.0883 -0.2204  0.0516
 3222DPPC   GL160351  19.151  11.262  15.296 -0.1714  0.2905 -0.0995
 3222DPPC   GL260352  19.356  11.448  15.548 -0.0404 -0.0001  0.0172
 3222DPPC   C1A60353  18.900  11.328  15.571  0.0159 -0.5461  0.2286
 3222DPPC   C2A60354  18.729  11.464  16.027  0.1631  0.4897 -0.2681
 3222DPPC   C3A60355  18.648  11.566  16.544  0.1459  0.0878 -0.0736
 3222DPPC   C4A60356  18.639  11.702  17.002 -0.1225 -0.1401 -0.2790
 3222DPPC   C1B60357  19.259  11.523  16.082  0.0256  0.0027 -0.0854
 3222DPPC   C2B60358  19.107  11.780  16.481  0.0800  0.3065 -0.0200
 3222DPPC   C3B60359  18.830  12.008  16.706 -0.1140  0.0360  0.1524
 3222DPPC   C4B60360  18.778  12.382  16.777 -0.0171 -0.1421  0.1679
 3223DPPC   NC360361  21.989  13.410  22.197  0.0757 -0.1380 -0.3807
 3223DPPC   PO460362  22.042  12.965  22.122  0.1180  0.1932  0.1470
 3223DPPC   GL160363  22.518  12.952  22.123 -0.1289  0.3447  0.1838
 3223DPPC   GL260364  22.547  12.638  22.089 -0.2125 -0.1985 -0.0048
 3223DPPC   C1A60365  22.785  13.091  22.432  0.1154 -0.0897 -0.0076
 3223DPPC   C2A60366  23.107  13.237  22.648 -0.2339  0.1231  0.7092
 3223DPPC   C3A60367  23.374  13.725  22.646 -0.1352  0.1425 -0.1598
 3223DPPC   C4A60368  23.819  13.909  22.770 -0.0383  0.3549  0.1312
 3223DPPC   C1B60369  22.875  12.538  21.850  0.2504  0.4287  0.1753
 3223DPPC   C2B60370  23.165  12.610  21.618 -0.3137 -0.0324  0.0952
 3223DPPC   C3B60371  23.535  12.747  21.425 -0.0267  0.3760 -0.1214
 3223DPPC   C4B60372  23.600  13.204  21.117 -0.1170 -0.1922  0.0482
 3224DPPC   NC360373  21.560  13.586  26.456 -0.1238 -0.0604  0.2305
 3224DPPC   PO460374  22.071  13.635  26.367 -0.1742 -0.3412  0.1538
 3224DPPC   GL160375  22.433  13.648  26.128 -0.2891 -0.3662  0.0192
 3224DPPC   GL260376  22.628  13.689  26.442  0.1474  0.0211  0.2811
 3224DPPC   C1A60377  22.755  13.873  25.996 -0.1189  0.4515  0.0378
 3224DPPC   C2A60378  23.090  14.008  25.947 -0.0855 -0.4329  0.0081
 3224DPPC   C3A60379  23.474  14.328  25.812 -0.0237 -0.4022  0.0507
 3224DPPC   C4A60380  23.692  14.770  25.911  0.1682  0.3936  0.3397
 3224DPPC   C1B60381  23.056  13.749  26.406 -0.2341  0.1079  0.1056
 3224DPPC   C2B60382  23.423  13.745  26.330  0.0562  0.3922 -0.3814
 3224DPPC   C3B60383  23.711  13.915  26.096 -0.0306  0.0305  0.1026
 3224DPPC   C4B60384  24.073  13.922  25.925  0.2072 -0.4697  0.0708
 3225DPPC   NC360385  19.472  20.888  20.084 -0.0945  0.0805  0.0547
 3225DPPC   PO460386  19.871  20.824  19.897  0.0838  0.3711  0.2219
 3225DPPC   GL160387  19.736  20.477  20.190 -0.0492 -0.0431 -0.1810
 3225DPPC   GL260388  19.765  20.184  20.071  0.2741  0.2408  0.1594
 3225DPPC   C1A60389  19.337  20.194  20.455  0.1229  0.2466  0.2327
 3225DPPC   C2A60390  18.978  20.140  20.688 -0.0928 -0.0197 -0.1660
 3225DPPC   C3A60391  18.852  19.965  21.091 -0.1138 -0.2976  0.2322
 3225DPPC   C4A60392  18.667  19.532  21.122 -0.0514 -0.1763 -0.4357
 3225DPPC   C1B60393  19.607  19.755  20.012 -0.3474 -0.1026  0.0508
 3225DPPC   C2B60394  19.475  19.353  19.817 -0.1263 -0.3274  0.0701
 3225DPPC   C3B60395  19.424  18.870  19.953  0.0394  0.0086  0.2413
 3225DPPC   C4B60396  19.145  18.684  19.886  0.0444  0.1296  0.0277
 3226DPPC   NC360397  17.769  17.803  21.748  0.0171  0.0969 -0.0691
 3226DPPC   PO460398  18.143  17.752  21.465  0.1392 -0.2357  0.0737
 3226DPPC   GL160399  18.430  17.894  21.446  0.1214  0.1718  0.1816
 3226DPPC   GL260400  18.462  18.109  21.644 -0.2842 -0.0604 -0.0819
 3226DPPC   C1A60401  18.545  18.219  21.113 -0.1987  0.0187  0.0295
 3226DPPC   C2A60402  18.736  18.426  20.886  0.1923 -0.2796 -0.2839
 3226DPPC   C3A60403  18.617  18.512  20.483 -0.1085  0.0791  0.1121
 3226DPPC   C4A60404  18.697  18.649  20.150 -0.0160 -0.2337  0.1092
 3226DPPC   C1B60405  18.796  18.349  21.651  0.0987 -0.0742 -0.0082
 3226DPPC   C2B60406  18.970  18.621  21.409  0.1863 -0.1879 -0.0316
 3226DPPC   C3B60407  18.843  19.031  21.098 -0.1594 -0.1160  0.1408
 3226DPPC   C4B60408  19.096  19.315  20.931 -0.2128 -0.1731  0.0679
 3227DPPC   NC360409   8.027   2.620  29.387 -0.0608  0.0815 -0.0030
 3227DPPC   PO460410   8.283   2.892  29.104  0.0121 -0.3766  0.1089
 3227DPPC   GL160411   8.425   3.256  29.199 -0.1821 -0.0317 -0.4110
 3227DPPC   GL260412   8.211   3.393  29.477 -0.4182  0.3384  0.0674
 3227DPPC   C1A60413   8.769   3.491  29.259  0.1164  0.2121 -0.1462
 3227DPPC   C2A60414   9.090   3.262  29.418 -0.3316  0.0260  0.3428
 3227DPPC   C3A60415   9.548   3.319  29.493 -0.0058  0.1060  0.1134
 3227DPPC   C4A60416   9.996   3.088  29.430 -0.3456  0.1201  0.1756
 3227DPPC   C1B60417   8.552   3.338  29.758 -0.0160 -0.0576 -0.1938
 3227DPPC   C2B60418   8.824   3.540  30.062 -0.1351 -0.0499 -0.0365
 3227DPPC   C3B60419   8.966   3.939  30.101 -0.4133 -0.1863  0.3307
 3227DPPC   C4B60420   9.075   4.334  30.076 -0.1249  0.0407  0.2218
 3228DPPC   NC360421  16.014   9.590  44.559  0.1400  0.0700  0.1367
 3228DPPC   PO460422  16.047   9.966  44.169  0.0718 -0.3548 -0.3828
 3228DPPC   GL160423  15.998  10.183  43.793 -0.1205  0.1688  0.4055
 3228DPPC   GL260424  15.931   9.983  43.619  0.0304  0.2806 -0.2244
 3228DPPC   C1A60425  15.965  10.513  43.451 -0.0825  0.1411 -0.3059
 3228DPPC   C2A60426  16.195  10.572  43.112  0.2881  0.1262 -0.3713
 3228DPPC   C3A60427  16.280  10.283  42.687 -0.1353  0.0675  0.1693
 3228DPPC   C4A60428  16.386  10.291  42.319  0.0696 -0.0013  0.0573
 3228DPPC   C1B60429  16.036   9.965  43.196  0.1350 -0.1574 -0.0776
 3228DPPC   C2B60430  16.173   9.824  42.831  0.1652 -0.1496 -0.3035
 3228DPPC   C3B60431  16.300   9.788  42.476  0.2980 -0.4131  0.2415
 3228DPPC   C4B60432  16.259   9.904  42.057  0.1211 -0.0396  0.1758
 3229DPPC   NC360433  21.891  12.805  21.662  0.0012  0.2696 -0.2487
 3229DPPC   PO460434  22.072  12.994  21.223 -0.0213  0.0565 -0.1035
 3229DPPC   GL160435  22.365  13.312  21.052  0.0241 -0.0934 -0.0281
 3229DPPC   GL260436  22.258  13.485  20.776 -0.0071  0.0321  0.1644
 3229DPPC   C1A60437  22.600  13.736  21.093 -0.1154  0.1390  0.0728
 3229DPPC   C2A60438  22.897  13.968  21.381  0.1806 -0.1057  0.0483
 3229DPPC   C3A60439  23.284  13.999  21.231 -0.3546 -0.1312  0.0838
 3229DPPC   C4A60440  23.608  13.680  21.284  0.4050 -0.3492  0.2820
 3229DPPC   C1B60441  22.671  13.496  20.594 -0.4450  0.1885 -0.0349
 3229DPPC   C2B60442  23.070  13.492  20.418 -0.2835 -0.0862 -0.3060
 3229DPPC   C3B60443  23.399  13.543  20.508  0.0393  0.1599 -0.2875
 3229DPPC   C4B60444  23.790  13.281  20.677  0.0214 -0.2237  0.0752
 3230DPPC   NC360445  12.515  13.379  20.961  0.5399  0.1106 -0.0110
 3230DPPC   PO460446  12.337  12.998  21.156 -0.0566  0.0288 -0.1892
 3230DPPC   GL160447  11.990  13.057  20.880 -0.3879  0.1546  0.1206
 3230DPPC   GL260448  12.121  13.326  20.575  0.2520 -0.1215  0.0437
 3230DPPC   C1A60449  11.826  12.806  20.528 -0.2345 -0.3858 -0.1653
 3230DPPC   C2A60450  11.745  12.863  20.008 -0.2230 -0.0562 -0.0451
 3230DPPC   C3A60451  11.728  12.655  19.515  0.2988  0.0663  0.0939
 3230DPPC   C4A60452  11.845  12.554  19.061  0.2253  0.2708 -0.0303
 3230DPPC   C1B60453  11.870  13.329  20.328 -0.2570 -0.1194  0.0438
 3230DPPC   C2B60454  11.475  13.281  19.990  0.1255 -0.1940 -0.0269
 3230DPPC   C3B60455  11.115  13.011  19.853  0.0669 -0.3053 -0.3615
 3230DPPC   C4B60456  10.877  12.793  19.514 -0.2211  0.1090 -0.1608
 3231DPPC   NC360457  21.309   1.474  32.229 -0.0288 -0.2747 -0.1152
 3231DPPC   PO460458  21.588   1.307  31.896  0.0055 -0.4192  0.0365
 3231DPPC   GL160459  21.349   1.687  31.731 -0.1325  0.1246  0.2503
 3231DPPC   GL260460  20.967   1.556  31.575 -0.0280  0.2392  0.0411
 3231DPPC   C1A60461  21.270   2.093  31.538 -0.0170  0.0514 -0.0778
 3231DPPC   C2A60462  21.033   2.311  31.115 -0.1335 -0.1290 -0.1421
 3231DPPC   C3A60463  20.605   2.444  31.096  0.1923  0.2922  0.0931
 3231DPPC   C4A60464  20.338   2.752  31.038 -0.2711  0.1059  0.3016
 3231DPPC   C1B60465  20.757   1.952  31.383 -0.1323  0.3170  0.0432
 3231DPPC   C2B60466  20.475   2.231  31.719 -0.4822 -0.1829 -0.2848
 3231DPPC   C3B60467  20.141   2.632  31.967 -0.4435  0.1068  0.0218
 3231DPPC   C4B60468  20.044   3.017  32.002  0.1293 -0.1868 -0.2301
 3232DPPC   NC360469  19.497   0.278  28.593 -0.5696  0.1322 -0.0287
 3232DPPC   PO460470  19.197   0.293  28.217  0.2711  0.2974 -0.1280
 3232DPPC   GL160471  19.038   0.704  28.010  0.3282  0.1092 -0.0291
 3232DPPC   GL260472  19.071   0.751  27.729  0.2470 -0.2833 -0.0310
 3232DPPC   C1A60473  19.188   1.089  28.174  0.3103  0.0484  0.2222
 3232DPPC   C2A60474  19.431   1.363  27.924 -0.2755 -0.1154 -0.5055
 3232DPPC   C3A60475  19.828   1.388  28.047  0.0491 -0.1365 -0.0033
 3232DPPC   C4A60476  20.122   1.326  27.861  0.3604  0.0040 -0.0616
 3232DPPC   C1B60477  19.107   1.193  27.594  0.1946  0.2432 -0.1261
 3232DPPC   C2B60478  18.942   1.396  27.910  0.0480 -0.1350  0.2730
 3232DPPC   C3B60479  18.842   1.674  28.189  0.0055  0.0914  0.0853
 3232DPPC   C4B60480  18.848   2.135  28.308 -0.0174 -0.3103  0.3586
 3233DPPC   NC360481  14.924  13.832  22.505 -0.1946 -0.0738 -0.1745
 3233DPPC   PO460482  15.124  13.663  22.908  0.2041 -0.2005  0.1721
 3233DPPC   GL160483  15.219  13.409  23.284  0.0924 -0.0114  0.3834
 3233DPPC   GL260484  15.300  13.771  23.462  0.0100 -0.1386 -0.0568
 3233DPPC   C1A60485  15.184  13.226  23.665 -0.1547 -0.3407 -0.0388
 3233DPPC   C2A60486  15.234  13.195  24.087  0.2308 -0.0554  0.0340
 3233DPPC   C3A60487  15.456  13.345  24.392 -0.0473  0.1636 -0.3930
 3233DPPC   C4A60488  15.893  13.430  24.307  0.0044 -0.0447  0.0571
 3233DPPC   C1B60489  15.402  13.604  23.872  0.0965  0.0125 -0.3300
 3233DPPC   C2B60490  15.657  13.842  24.141  0.1813  0.0317 -0.0480
 3233DPPC   C3B60491  15.899  14.055  24.431 -0.2844  0.0990  0.1189
 3233DPPC   C4B60492  16.006  14.527  24.401 -0.0219  0.1777 -0.0571
 3234DPPC   NC360493  12.546   5.109  41.196 -0.2757 -0.0272  0.2189
 3234DPPC   PO460494  12.654   4.927  40.783  0.0007  0.0511 -0.2036
 3234DPPC   GL160495  12.540   5.397  40.818 -0.4370  0.2255  0.1379
 3234DPPC   GL260496  12.706   5.662  40.932  0.1443 -0.1457 -0.1263
 3234DPPC   C1A60497  12.426   5.728  40.529 -0.1242 -0.1332 -0.1286
 3234DPPC   C2A60498  12.735   6.061  40.565 -0.1270  0.0823  0.5813
 3234DPPC   C3A60499  13.190   6.154  40.636  0.1023  0.0430 -0.2284
 3234DPPC   C4A60500  13.570   6.348  40.819 -0.1295 -0.2232 -0.0297
 3234DPPC   C1B60501  13.050   5.605  40.634  0.4591  0.1223  0.1802
 3234DPPC   C2B60502  13.255   5.707  40.307  0.1172 -0.1604  0.0963
 3234DPPC   C3B60503  13.419   6.020  40.218 -0.2543 -0.0549  0.0030
 3234DPPC   C4B60504  13.653   6.345  40.244  0.2055  0.3877 -0.1431
 3235DPPC   NC360505  15.833  20.499  40.874 -0.0738  0.2612  0.1838
 3235DPPC   PO460506  16.189  20.345  41.005  0.0569  0.4017  0.1591
 3235DPPC   GL160507  16.016  19.971  40.831 -0.1467 -0.2553  0.2468
 3235DPPC   GL260508  15.649  19.894  40.797  0.4108  0.0986  0.3575
 3235DPPC   C1A60509  16.035  19.670  40.449  0.2038 -0.0733 -0.1801
 3235DPPC   C2A60510  15.898  19.266  40.505  0.1795  0.0252  0.2102
 3235DPPC   C3A60511  15.800  18.906  40.175  0.0223  0.0779 -0.1375
 3235DPPC   C4A60512  15.839  18.898  39.719 -0.1440  0.0671  0.0942
 3235DPPC   C1B60513  15.590  19.648  40.356  0.1120 -0.0031  0.1366
 3235DPPC   C2B60514  15.810  19.766  39.935  0.0470 -0.0674  0.2231
 3235DPPC   C3B60515  15.715  19.493  39.539 -0.2605  0.1893 -0.1472
 3235DPPC   C4B60516  15.684  19.143  39.278 -0.4277  0.3427 -0.0634
 3236DPPC   NC360517  18.201  11.592  14.872 -0.0055 -0.2137  0.1310
 3236DPPC   PO460518  17.643  11.424  14.730 -0.0449  0.0156 -0.0342
 3236DPPC   GL160519  17.533  11.445  15.054 -0.0511  0.1580 -0.1310
 3236DPPC   GL260520  17.836  11.456  15.244 -0.2285 -0.0322  0.0362
 3236DPPC   C1A60521  17.387  11.560  15.476 -0.1842  0.1974 -0.1649
 3236DPPC   C2A60522  17.415  11.593  15.952 -0.0792  0.0573 -0.0033
 3236DPPC   C3A60523  17.266  11.753  16.419 -0.2188  0.0625 -0.1313
 3236DPPC   C4A60524  17.501  11.762  16.678 -0.0298  0.1386 -0.2522
 3236DPPC   C1B60525  17.858  11.885  15.527 -0.2698  0.0717  0.0935
 3236DPPC   C2B60526  18.053  12.154  15.859 -0.0004 -0.4846 -0.3003
 3236DPPC   C3B60527  18.175  12.308  16.288 -0.3231 -0.1881 -0.2486
 3236DPPC   C4B60528  18.206  12.388  16.780  0.0443 -0.1480 -0.1740
 3237DPPC   NC360529   6.986   9.427  39.669 -0.0291  0.1325 -0.0536
 3237DPPC   PO460530   6.978   9.010  39.478  0.0138  0.1789 -0.3689
 3237DPPC   GL160531   7.317   8.962  39.093 -0.1464  0.0982 -0.3642
 3237DPPC   GL260532   7.393   8.728  38.963  0.3923  0.2808 -0.0514
 3237DPPC   C1A60533   7.729   9.234  38.971  0.1842  0.0083  0.0680
 3237DPPC   C2A60534   8.106   9.466  38.854 -0.1317  0.0236  0.1990
 3237DPPC   C3A60535   8.296   9.873  38.823  0.0761 -0.2108 -0.0944
 3237DPPC   C4A60536   8.688  10.143  38.858  0.0814 -0.1254 -0.1343
 3237DPPC   C1B60537   7.583   8.888  38.604 -0.0782 -0.0529  0.0287
 3237DPPC   C2B60538   7.773   9.316  38.470 -0.2050  0.2974 -0.0123
 3237DPPC   C3B60539   7.886   9.745  38.355  0.0303 -0.0947  0.0651
 3237DPPC   C4B60540   7.571   9.902  38.056  0.2859  0.1548  0.3838
 3238DPPC   NC360541  21.330  14.438  22.584  0.2328 -0.2721 -0.1038
 3238DPPC   PO460542  21.200  14.599  22.906 -0.0418 -0.1248  0.1257
 3238DPPC   GL160543  21.594  14.582  23.023  0.2503 -0.0208 -0.1887
 3238DPPC   GL260544  21.858  14.326  22.947  0.1778  0.1635 -0.4165
 3238DPPC   C1A60545  21.872  14.875  23.151 -0.2091  0.0357 -0.2288
 3238DPPC   C2A60546  22.218  15.059  23.401 -0.2054  0.1812 -0.1361
 3238DPPC   C3A60547  22.618  14.915  23.585 -0.1759 -0.0288 -0.0210
 3238DPPC   C4A60548  22.839  14.526  23.702  0.0754 -0.0378  0.1259
 3238DPPC   C1B60549  22.254  14.514  22.912 -0.0275 -0.2679  0.1602
 3238DPPC   C2B60550  22.415  14.804  23.062  0.0263  0.0349 -0.1411
 3238DPPC   C3B60551  22.661  15.253  23.183  0.1212 -0.0878 -0.0187
 3238DPPC   C4B60552  22.793  15.619  23.422 -0.1077 -0.1622 -0.0378
 3239DPPC   NC360553  23.002  17.047  19.622 -0.1594 -0.0956  0.0169
 3239DPPC   PO460554  23.082  17.342  20.085 -0.0507  0.1437  0.0674
 3239DPPC   GL160555  22.875  17.013  20.231  0.0827 -0.2201  0.2828
 3239DPPC   GL260556  22.906  16.935  20.518 -0.2208 -0.0918  0.1337
 3239DPPC   C1A60557  22.462  16.842  20.224 -0.0762 -0.0280 -0.0878
 3239DPPC   C2A60558  22.001  16.682  20.282  0.1335  0.0031 -0.0753
 3239DPPC   C3A60559  21.549  16.445  20.185  0.3841  0.2107 -0.0167
 3239DPPC   C4A60560  21.140  16.284  20.134  0.0408  0.0730 -0.2140
 3239DPPC   C1B60561  22.453  16.608  20.659 -0.0014 -0.1359 -0.2159
 3239DPPC   C2B60562  22.169  16.292  20.568  0.1722 -0.1587 -0.0549
 3239DPPC   C3B60563  21.780  15.998  20.798  0.1427 -0.0763  0.2484
 3239DPPC   C4B60564  21.525  15.711  20.886  0.2662  0.0655 -0.2997
 3240DPPC   NC360565   3.918  10.767  34.567  0.0250  0.0600 -0.0221
 3240DPPC   PO460566   4.148  10.992  34.273  0.0979  0.2203  0.2364
 3240DPPC   GL160567   4.586  10.833  34.247  0.1139 -0.0881 -0.0801
 3240DPPC   GL260568   4.699  10.938  33.931 -0.1903 -0.2001 -0.0359
 3240DPPC   C1A60569   4.878  10.715  34.411  0.2772  0.0387 -0.0856
 3240DPPC   C2A60570   5.233  10.832  34.505 -0.3374 -0.1678 -0.2537
 3240DPPC   C3A60571   5.641  11.010  34.562 -0.1516  0.2070 -0.0066
 3240DPPC   C4A60572   6.068  11.155  34.619 -0.0313  0.4309  0.1045
 3240DPPC   C1B60573   5.036  11.130  33.671 -0.2510 -0.2425  0.0269
 3240DPPC   C2B60574   5.319  11.336  33.439 -0.0749 -0.2577 -0.0291
 3240DPPC   C3B60575   5.498  11.567  33.133 -0.1982 -0.2698  0.1501
 3240DPPC   C4B60576   5.487  11.539  32.695 -0.2752  0.1842  0.1526
 3241DPPC   NC360577  18.027  13.873  18.891 -0.0168  0.1214  0.1765
 3241DPPC   PO460578  18.346  14.203  19.117 -0.0886 -0.4614 -0.0820
 3241DPPC   GL160579  18.350  14.480  18.808 -0.4133  0.0740 -0.0824
 3241DPPC   GL260580  18.435  14.815  18.749  0.1956 -0.3621  0.2007
 3241DPPC   C1A60581  18.555  14.429  18.382 -0.1076  0.2368 -0.2520
 3241DPPC   C2A60582  18.527  14.688  18.013 -0.1644  0.0514 -0.0351
 3241DPPC   C3A60583  18.867  14.958  17.729  0.1354  0.0880  0.0438
 3241DPPC   C4A60584  19.306  14.990  17.628  0.3472 -0.3028  0.0573
 3241DPPC   C1B60585  18.733  14.939  18.412  0.2267  0.2020  0.3507
 3241DPPC   C2B60586  18.965  15.308  18.226 -0.1510  0.1534 -0.0978
 3241DPPC   C3B60587  19.168  15.400  17.918 -0.0730  0.1001  0.1552
 3241DPPC   C4B60588  19.519  15.554  17.598 -0.2561 -0.1478 -0.1136
 3242DPPC   NC360589  13.710  25.276  28.030  0.0842  0.0085 -0.3852
 3242DPPC   PO460590  13.956  25.134  28.408 -0.1512 -0.2135  0.1601
 3242DPPC   GL160591  13.915  24.661  28.626 -0.0284  0.2331 -0.1399
 3242DPPC   GL260592  13.791  24.707  28.912 -0.0877 -0.1387 -0.0181
 3242DPPC   C1A60593  14.139  24.267  28.720  0.4073 -0.0720  0.0322
 3242DPPC   C2A60594  14.188  23.904  28.654  0.0944  0.1119  0.0525
 3242DPPC   C3A60595  14.139  23.518  28.551  0.0080  0.0593  0.1505
 3242DPPC   C4A60596  13.740  23.248  28.556  0.0235 -0.1433 -0.3106
 3242DPPC   C1B60597  13.699  24.331  29.036  0.1163 -0.1006 -0.2484
 3242DPPC   C2B60598  13.626  24.086  28.703 -0.0397 -0.2795  0.3049
 3242DPPC   C3B60599  13.514  23.710  28.572  0.2955 -0.2162  0.2429
 3242DPPC   C4B60600  13.318  23.483  28.423  0.1360 -0.0056  0.2033
 3243DPPC   NC360601  17.140  15.667  19.334 -0.1580  0.1478  0.2638
 3243DPPC   PO460602  16.921  15.872  19.669  0.1263  0.3015  0.0602
 3243DPPC   GL160603  16.777  15.935  19.178  0.0486 -0.0434  0.0451
 3243DPPC   GL260604  17.102  16.183  19.102  0.0326  0.0917 -0.0624
 3243DPPC   C1A60605  16.752  16.116  18.779  0.0326  0.0377 -0.3867
 3243DPPC   C2A60606  17.012  16.240  18.367 -0.2196 -0.3593 -0.2008
 3243DPPC   C3A60607  17.200  16.444  17.979  0.0854  0.0220  0.2628
 3243DPPC   C4A60608  17.240  16.609  17.511  0.0101 -0.0869  0.2572
 3243DPPC   C1B60609  17.335  16.375  18.793 -0.0316  0.0492  0.0512
 3243DPPC   C2B60610  17.438  16.690  18.538  0.0616  0.5371  0.1994
 3243DPPC   C3B60611  17.330  17.137  18.558  0.0994  0.1798 -0.0447
 3243DPPC   C4B60612  17.039  17.368  18.781  0.0314  0.1388 -0.0296
 3244DPPC   NC360613  25.542  15.872  26.211 -0.3496 -0.1465 -0.3719
 3244DPPC   PO460614  25.731  15.525  26.369 -0.2683 -0.0552 -0.2700
 3244DPPC   GL160615  25.502  15.228  26.727  0.0372 -0.1840  0.0754
 3244DPPC   GL260616  25.539  15.267  27.051 -0.2030 -0.2821 -0.0443
 3244DPPC   C1A60617  25.214  14.993  26.819  0.0554 -0.1063 -0.0879
 3244DPPC   C2A60618  24.833  14.623  26.918  0.1306  0.0062 -0.1374
 3244DPPC   C3A60619  24.504  14.608  26.617  0.1734  0.1941 -0.1393
 3244DPPC   C4A60620  24.312  14.459  26.283 -0.0368 -0.1914  0.1157
 3244DPPC   C1B60621  25.552  14.957  27.306  0.3087  0.0993  0.0511
 3244DPPC   C2B60622  25.259  14.479  27.159 -0.2400 -0.3975  0.1124
 3244DPPC   C3B60623  24.867  14.187  27.265  0.1152 -0.0557 -0.1959
 3244DPPC   C4B60624  24.689  13.813  27.511 -0.2657 -0.0007 -0.1412
 3245DPPC   NC360625   7.828  17.537  38.849  0.3121  0.1299  0.2246
 3245DPPC   PO460626   7.334  17.274  38.817  0.3542 -0.0304 -0.0705
 3245DPPC   GL160627   7.384  17.594  38.504  0.5160 -0.0231 -0.1532
 3245DPPC   GL260628   7.464  17.407  38.251  0.0104  0.0869  0.0284
 3245DPPC   C1A60629   7.521  17.922  38.307 -0.0995 -0.0178  0.2411
 3245DPPC   C2A60630   7.527  18.311  38.098  0.2693 -0.3854  0.2789
 3245DPPC   C3A60631   7.705  18.303  37.724 -0.0283 -0.0961  0.0951
 3245DPPC   C4A60632   7.575  18.013  37.342  0.2100 -0.4697 -0.4564
 3245DPPC   C1B60633   7.822  17.172  38.255  0.0545 -0.0127 -0.0974
 3245DPPC   C2B60634   8.050  16.993  37.965  0.2206 -0.1863 -0.1988
 3245DPPC   C3B60635   8.462  16.819  37.766 -0.0113 -0.0042  0.0805
 3245DPPC   C4B60636   8.820  16.598  37.964  0.1359 -0.1100  0.0809
 3246DPPC   NC360637  17.011  19.767  17.241 -0.1548  0.3290  0.1058
 3246DPPC   PO460638  16.597  19.688  17.067  0.2362 -0.0436  0.1498
 3246DPPC   GL160639  16.650  19.539  17.455  0.2346  0.0721 -0.3007
 3246DPPC   GL260640  16.444  19.241  17.600  0.2964  0.1049 -0.4717
 3246DPPC   C1A60641  16.850  19.014  17.488  0.1752 -0.1527  0.0755
 3246DPPC   C2A60642  16.519  18.750  17.510  0.0770  0.1068 -0.1828
 3246DPPC   C3A60643  16.204  18.564  17.340  0.0191  0.0688  0.1992
 3246DPPC   C4A60644  15.904  18.407  17.450  0.3864  0.0281  0.2514
 3246DPPC   C1B60645  16.623  18.977  17.896 -0.1727 -0.1538 -0.1893
 3246DPPC   C2B60646  16.465  18.791  18.270 -0.0962  0.0332 -0.2840
 3246DPPC   C3B60647  16.467  18.382  18.388  0.2050  0.0113  0.0082
 3246DPPC   C4B60648  16.781  18.076  18.408  0.1289  0.2329  0.0977
 3247DPPC   NC360649  24.569   8.092  19.158  0.2265  0.1450 -0.0458
 3247DPPC   PO460650  24.605   8.510  19.304 -0.1691 -0.0940 -0.0196
 3247DPPC   GL160651  24.172   8.454  19.176 -0.2643 -0.2133 -0.2025
 3247DPPC   GL260652  24.103   8.168  19.321  0.0475  0.4181 -0.0645
 3247DPPC   C1A60653  23.723   8.647  19.261 -0.3405  0.3974 -0.0202
 3247DPPC   C2A60654  23.382   8.866  19.359 -0.1337  0.1160  0.0449
 3247DPPC   C3A60655  22.949   8.976  19.484  0.0992 -0.1759 -0.0713
 3247DPPC   C4A60656  22.683   9.339  19.347  0.0415  0.0050 -0.2108
 3247DPPC   C1B60657  23.601   8.227  19.597 -0.0484 -0.0016 -0.0696
 3247DPPC   C2B60658  23.433   8.287  19.936 -0.4537 -0.0631  0.1247
 3247DPPC   C3B60659  23.250   7.948  20.132  0.1427 -0.1623  0.0147
 3247DPPC   C4B60660  23.153   7.743  20.553 -0.1208  0.1199  0.2318
 3248DPPC   NC360661  21.798  12.061  21.380 -0.0503  0.1298  0.0097
 3248DPPC   PO460662  21.992  12.041  20.973 -0.0383 -0.0660  0.0009
 3248DPPC   GL160663  22.391  12.050  20.764  0.0532  0.0723 -0.1622
 3248DPPC   GL260664  22.332  12.176  20.508 -0.0322  0.1916 -0.0776
 3248DPPC   C1A60665  22.734  12.212  20.868 -0.1009 -0.0591 -0.2329
 3248DPPC   C2A60666  23.039  12.604  20.709  0.1119 -0.2854  0.1589
 3248DPPC   C3A60667  23.020  12.915  20.235 -0.0028 -0.1065  0.1428
 3248DPPC   C4A60668  23.119  13.036  19.797 -0.0192 -0.1281 -0.0680
 3248DPPC   C1B60669  22.614  12.455  20.441 -0.1149 -0.0077  0.1225
 3248DPPC   C2B60670  22.721  12.562  19.991  0.0606  0.0147  0.0692
 3248DPPC   C3B60671  23.057  12.476  19.674  0.2011 -0.0488  0.1540
 3248DPPC   C4B60672  23.329  12.107  19.610  0.0049 -0.5060  0.1062
 3249DPPC   NC360673  20.617  10.199  20.018  0.0021  0.0253  0.0055
 3249DPPC   PO460674  20.444   9.838  20.025  0.2418 -0.2235  0.0125
 3249DPPC   GL160675  20.693   9.631  19.570  0.0630 -0.0890  0.0146
 3249DPPC   GL260676  20.725   9.426  19.655  0.1563 -0.2247 -0.4791
 3249DPPC   C1A60677  21.016   9.818  19.314  0.4284  0.1813  0.1111
 3249DPPC   C2A60678  21.256  10.194  19.338  0.1470  0.0840 -0.1920
 3249DPPC   C3A60679  21.726  10.293  19.224  0.1892 -0.2381  0.0153
 3249DPPC   C4A60680  21.940  10.538  18.952  0.2680 -0.1251 -0.3124
 3249DPPC   C1B60681  20.663   9.020  19.452 -0.0163 -0.3015  0.0154
 3249DPPC   C2B60682  20.445   8.874  19.140 -0.0019 -0.1394  0.0229
 3249DPPC   C3B60683  20.146   8.661  18.971 -0.1085  0.3155  0.4029
 3249DPPC   C4B60684  20.032   8.232  18.860  0.2703 -0.0492 -0.3901
 3250DPPC   NC360685  11.644   1.476  35.990 -0.0882 -0.1231 -0.2514
 3250DPPC   PO460686  11.627   1.936  35.885  0.2750 -0.1642 -0.1913
 3250DPPC   GL160687  11.884   2.391  35.714  0.2487  0.2987 -0.1509
 3250DPPC   GL260688  12.183   2.281  35.476 -0.0347  0.3432 -0.3469
 3250DPPC   C1A60689  12.178   2.791  35.678 -0.3097 -0.0034 -0.1848
 3250DPPC   C2A60690  12.567   2.770  35.460  0.2413 -0.1595 -0.1052
 3250DPPC   C3A60691  12.862   2.755  35.158 -0.4568 -0.0765  0.1865
 3250DPPC   C4A60692  13.028   3.087  34.898 -0.1024 -0.0569  0.2359
 3250DPPC   C1B60693  11.930   2.290  35.049 -0.0825  0.1875  0.0366
 3250DPPC   C2B60694  11.730   2.615  34.814 -0.1085 -0.2550 -0.3445
 3250DPPC   C3B60695  11.662   2.873  34.537  0.1159 -0.1106 -0.1225
 3250DPPC   C4B60696  11.558   3.287  34.506  0.6588  0.0229  0.2614
 3251DPPC   NC360697  26.584  14.962  27.049 -0.4488 -0.0988 -0.0840
 3251DPPC   PO460698  26.891  14.664  27.337 -0.0481  0.3246  0.1804
 3251DPPC   GL160699  26.586  14.301  27.516  0.1340  0.1135  0.0728
 3251DPPC   GL260700  26.663  14.065  27.810 -0.1386 -0.3104  0.1096
 3251DPPC   C1A60701  26.164  14.301  27.622 -0.2261 -0.0035  0.3164
 3251DPPC   C2A60702  25.719  14.565  27.609  0.1890 -0.1053 -0.2402
 3251DPPC   C3A60703  25.312  14.506  27.619  0.0224 -0.2947 -0.1707
 3251DPPC   C4A60704  25.235  14.076  27.587  0.1381 -0.0220  0.1098
 3251DPPC   C1B60705  26.517  13.801  28.179 -0.4167 -0.1551  0.3143
 3251DPPC   C2B60706  26.100  13.586  28.333  0.1472  0.2820 -0.2069
 3251DPPC   C3B60707  25.721  13.554  28.121  0.1646 -0.1840 -0.1050
 3251DPPC   C4B60708  25.368  13.655  27.842  0.0979  0.2271 -0.1388
 3252DPPC   NC360709  26.522   6.849  33.889  0.1532 -0.0234  0.0571
 3252DPPC   PO460710  26.198   6.674  34.190 -0.0675 -0.0589 -0.2755
 3252DPPC   GL160711  25.991   6.826  33.889  0.1087  0.0775  0.2499
 3252DPPC   GL260712  25.722   6.598  33.722 -0.2724 -0.2040 -0.1154
 3252DPPC   C1A60713  25.811   7.206  33.618 -0.0359  0.1000  0.0897
 3252DPPC   C2A60714  25.880   7.325  33.216 -0.0330 -0.3518 -0.1625
 3252DPPC   C3A60715  25.952   7.554  32.954 -0.1884 -0.0413  0.1929
 3252DPPC   C4A60716  25.888   7.446  32.485 -0.2321  0.1113  0.1929
 3252DPPC   C1B60717  25.515   6.817  33.483 -0.3868 -0.0684 -0.2180
 3252DPPC   C2B60718  25.374   7.079  33.272 -0.0164  0.0055  0.4179
 3252DPPC   C3B60719  25.370   7.599  33.300  0.0978 -0.0923 -0.3259
 3252DPPC   C4B60720  25.544   7.741  33.648 -0.2304 -0.0052 -0.0673
 3253DPPC   NC360721  23.834   7.746  40.341 -0.3853  0.3961 -0.3245
 3253DPPC   PO460722  23.761   7.938  39.943 -0.0074  0.1055  0.0078
 3253DPPC   GL160723  23.358   8.168  39.677 -0.4598  0.1032 -0.4323
 3253DPPC   GL260724  23.153   7.962  39.746 -0.2150 -0.0377 -0.0099
 3253DPPC   C1A60725  23.262   8.575  39.573  0.3845 -0.3592 -0.0322
 3253DPPC   C2A60726  23.318   8.801  39.122 -0.4848  0.1402  0.2208
 3253DPPC   C3A60727  23.322   9.207  38.887 -0.1921  0.0398 -0.0616
 3253DPPC   C4A60728  23.055   9.351  38.576  0.2839  0.1044 -0.0046
 3253DPPC   C1B60729  22.889   8.227  39.677  0.2857  0.1019 -0.0903
 3253DPPC   C2B60730  22.541   8.481  39.435 -0.2860  0.0934  0.0810
 3253DPPC   C3B60731  22.476   8.180  39.241 -0.0365 -0.0248  0.1039
 3253DPPC   C4B60732  22.426   7.992  38.846  0.2918  0.1447 -0.2410
 3254DPPC   NC360733  14.244  16.312  20.928 -0.0300  0.0767 -0.3221
 3254DPPC   PO460734  14.042  16.282  20.644 -0.0826 -0.0716  0.0051
 3254DPPC   GL160735  13.722  16.618  20.493 -0.1625  0.2739 -0.2106
 3254DPPC   GL260736  13.502  16.843  20.590 -0.0385 -0.0297  0.1759
 3254DPPC   C1A60737  13.363  16.458  20.198  0.3644 -0.2437 -0.2732
 3254DPPC   C2A60738  13.055  16.409  19.845 -0.2506 -0.1392  0.3364
 3254DPPC   C3A60739  13.098  16.371  19.431  0.0885 -0.4056 -0.0557
 3254DPPC   C4A60740  13.246  16.295  18.971 -0.2353 -0.0680  0.1702
 3254DPPC   C1B60741  13.532  17.028  20.208 -0.1699 -0.2279  0.0840
 3254DPPC   C2B60742  13.363  17.234  19.812 -0.0060 -0.3815  0.1149
 3254DPPC   C3B60743  13.265  17.584  19.643  0.3133  0.1572  0.0653
 3254DPPC   C4B60744  13.311  17.974  19.740 -0.1902  0.3497 -0.2199
 3255DPPC   NC360745   5.941  12.175  22.989 -0.1406  0.1903  0.0707
 3255DPPC   PO460746   6.074  12.041  22.513  0.3477 -0.2539  0.0238
 3255DPPC   GL160747   6.430  12.003  22.648  0.1022  0.0597 -0.3268
 3255DPPC   GL260748   6.496  11.757  22.908  0.0825  0.3687  0.4029
 3255DPPC   C1A60749   6.700  12.210  22.976 -0.1461 -0.0428 -0.2577
 3255DPPC   C2A60750   6.872  12.153  23.326 -0.2272  0.1226  0.1544
 3255DPPC   C3A60751   7.201  12.318  23.480 -0.1183 -0.2917  0.3025
 3255DPPC   C4A60752   7.546  12.440  23.694 -0.2885 -0.1950  0.3113
 3255DPPC   C1B60753   6.978  11.737  22.986 -0.2255  0.0658  0.0132
 3255DPPC   C2B60754   7.328  11.607  22.845 -0.1536  0.0284  0.0247
 3255DPPC   C3B60755   7.393  11.499  22.467 -0.3771  0.0140 -0.2242
 3255DPPC   C4B60756   7.420  11.667  22.019  0.0210 -0.2275  0.0326
 3256DPPC   NC360757  15.813   8.482  15.644 -0.0371 -0.0437  0.0521
 3256DPPC   PO460758  16.148   8.656  15.816 -0.1216  0.1366  0.1687
 3256DPPC   GL160759  16.171   8.959  16.094 -0.0500 -0.1220 -0.1830
 3256DPPC   GL260760  16.380   9.176  15.939 -0.1537  0.1703 -0.0335
 3256DPPC   C1A60761  16.244   8.878  16.528 -0.0328 -0.1810 -0.2564
 3256DPPC   C2A60762  16.400   9.063  16.929  0.0933 -0.0591 -0.2777
 3256DPPC   C3A60763  16.578   8.878  17.353 -0.1884 -0.0505 -0.0402
 3256DPPC   C4A60764  16.466   9.007  17.766 -0.0510  0.1069 -0.2345
 3256DPPC   C1B60765  16.514   9.597  15.892 -0.1344  0.2606 -0.0005
 3256DPPC   C2B60766  16.578  10.025  16.062 -0.0922  0.4555 -0.0348
 3256DPPC   C3B60767  16.703  10.383  16.444  0.0150 -0.3917  0.1206
 3256DPPC   C4B60768  16.615  10.750  16.719 -0.2563  0.1400  0.3019
 3257DPPC   NC360769  21.070  14.802  21.782  0.2621  0.0679  0.4477
 3257DPPC   PO460770  21.375  14.582  22.093 -0.4491 -0.1125 -0.2036
 3257DPPC   GL160771  21.586  14.808  21.814  0.0276  0.1373  0.3291
 3257DPPC   GL260772  21.474  15.107  21.625 -0.1144  0.3730  0.2276
 3257DPPC   C1A60773  21.933  14.985  21.617  0.2800  0.0340  0.1345
 3257DPPC   C2A60774  22.414  14.857  21.574 -0.0634 -0.0460 -0.0531
 3257DPPC   C3A60775  22.771  14.841  21.313  0.2811 -0.1197  0.0859
 3257DPPC   C4A60776  22.759  14.827  20.883  0.1982  0.0116 -0.0624
 3257DPPC   C1B60777  21.619  15.518  21.385  0.2776 -0.1949  0.1517
 3257DPPC   C2B60778  21.898  15.899  21.470 -0.1667 -0.1898  0.1507
 3257DPPC   C3B60779  21.901  16.108  21.740 -0.0930  0.0917  0.0191
 3257DPPC   C4B60780  21.749  16.241  22.146 -0.0460  0.0572  0.0824
 3258DPPC   NC360781   5.196  18.205  36.495 -0.1572  0.1005 -0.1642
 3258DPPC   PO460782   5.249  18.160  36.081 -0.1785 -0.2198  0.2989
 3258DPPC   GL160783   5.408  17.880  35.745  0.0503 -0.1367 -0.0214
 3258DPPC   GL260784   5.269  17.635  35.868 -0.2282 -0.0071 -0.2373
 3258DPPC   C1A60785   5.676  17.782  35.532 -0.0368  0.0063  0.1830
 3258DPPC   C2A60786   6.051  17.676  35.434  0.0883 -0.2364 -0.2045
 3258DPPC   C3A60787   6.366  17.309  35.401  0.0554  0.1013 -0.1899
 3258DPPC   C4A60788   6.580  16.946  35.226  0.1237  0.1240  0.1013
 3258DPPC   C1B60789   5.503  17.295  35.622 -0.5102  0.0253  0.1427
 3258DPPC   C2B60790   5.816  17.208  35.377  0.0197  0.0922  0.2182
 3258DPPC   C3B60791   6.003  16.901  35.123 -0.0359 -0.2277 -0.0590
 3258DPPC   C4B60792   6.041  16.438  34.798  0.4415  0.0284  0.0678
 3259DPPC   NC360793  15.174  16.382  20.566 -0.2169 -0.0957 -0.1609
 3259DPPC   PO460794  15.300  16.045  20.246  0.2472 -0.0810  0.2593
 3259DPPC   GL160795  15.168  16.104  19.827  0.0055  0.1110 -0.2468
 3259DPPC   GL260796  15.211  15.987  19.564  0.3715  0.1878 -0.0147
 3259DPPC   C1A60797  15.000  16.477  19.530 -0.0869  0.0940 -0.2114
 3259DPPC   C2A60798  14.760  16.776  19.305 -0.1894 -0.1969  0.3453
 3259DPPC   C3A60799  14.433  16.819  19.097  0.0387  0.0797 -0.1944
 3259DPPC   C4A60800  14.403  17.205  18.845 -0.1340  0.2076  0.1850
 3259DPPC   C1B60801  15.046  15.977  19.170 -0.0105 -0.1539  0.0976
 3259DPPC   C2B60802  14.735  15.850  18.956  0.0748 -0.0046 -0.2695
 3259DPPC   C3B60803  14.536  15.494  18.706  0.1328  0.3485  0.1397
 3259DPPC   C4B60804  14.557  15.307  18.287  0.1103  0.3371 -0.3896
 3260DPPC   NC360805  18.411   7.584  15.836 -0.1244 -0.2210  0.3159
 3260DPPC   PO460806  18.043   7.339  15.981 -0.1202  0.0773 -0.1229
 3260DPPC   GL160807  17.850   7.521  16.298 -0.1431  0.1761 -0.0826
 3260DPPC   GL260808  17.771   7.505  16.551  0.1498  0.0661  0.0738
 3260DPPC   C1A60809  18.005   7.861  16.654 -0.1010 -0.1483  0.0871
 3260DPPC   C2A60810  17.817   8.259  16.708  0.0192  0.1062  0.1917
 3260DPPC   C3A60811  17.508   8.518  16.467  0.1067  0.2933 -0.1716
 3260DPPC   C4A60812  17.638   8.868  16.354  0.2167 -0.1990 -0.0113
 3260DPPC   C1B60813  17.803   7.395  16.981  0.0777  0.1987 -0.0972
 3260DPPC   C2B60814  17.789   7.520  17.421  0.1876  0.0625 -0.1117
 3260DPPC   C3B60815  18.039   7.814  17.637 -0.2033 -0.0446 -0.0222
 3260DPPC   C4B60816  18.316   8.004  17.808 -0.3132 -0.0886  0.1076
 3261DPPC   NC360817  21.791  15.852  15.889  0.0021 -0.2031 -0.0113
 3261DPPC   PO460818  21.837  15.810  16.350 -0.0095  0.0662  0.0620
 3261DPPC   GL160819  21.675  15.417  16.605 -0.1289 -0.2056 -0.0280
 3261DPPC   GL260820  21.314  15.293  16.477 -0.1983  0.1667 -0.1777
 3261DPPC   C1A60821  21.725  15.230  16.993  0.0668  0.0410 -0.2560
 3261DPPC   C2A60822  21.825  15.325  17.283  0.0400 -0.1624 -0.0308
 3261DPPC   C3A60823  21.532  15.377  17.649  0.0299  0.1471  0.1636
 3261DPPC   C4A60824  21.623  15.189  18.042 -0.0290 -0.0317  0.0438
 3261DPPC   C1B60825  21.269  15.072  16.822 -0.1718  0.1421 -0.1302
 3261DPPC   C2B60826  21.563  14.821  17.006  0.4782  0.1385  0.0346
 3261DPPC   C3B60827  21.860  14.592  17.022 -0.3150 -0.0022 -0.4583
 3261DPPC   C4B60828  22.081  14.880  17.211  0.0167 -0.0739 -0.0426
 3262DPPC   NC360829  25.367  12.411  19.292  0.4527 -0.3085  0.2463
 3262DPPC   PO460830  25.398  12.059  19.649  0.1233  0.1291 -0.1200
 3262DPPC   GL160831  25.033  11.954  19.646  0.1115  0.0247 -0.2260
 3262DPPC   GL260832  25.011  12.100  20.011 -0.2454 -0.1180 -0.0839
 3262DPPC   C1A60833  24.565  11.806  19.917  0.0693 -0.3001 -0.3050
 3262DPPC   C2A60834  24.274  11.913  20.188  0.0422  0.3068 -0.1495
 3262DPPC   C3A60835  24.043  12.211  20.292 -0.1800 -0.3227  0.0032
 3262DPPC   C4A60836  23.949  12.370  20.646  0.1704 -0.1533  0.0144
 3262DPPC   C1B60837  24.761  11.997  20.380  0.0823 -0.0999 -0.0724
 3262DPPC   C2B60838  24.466  12.153  20.589 -0.1527  0.0981  0.0072
 3262DPPC   C3B60839  24.306  12.237  20.938 -0.0081 -0.2353  0.0958
 3262DPPC   C4B60840  24.483  12.364  21.362 -0.0344  0.0399 -0.3395
 3263DPPC   NC360841  21.499   7.163  41.645  0.2206  0.1384  0.1758
 3263DPPC   PO460842  21.793   7.116  41.305  0.0341  0.0431  0.1058
 3263DPPC   GL160843  21.679   7.208  40.859  0.1580  0.4809 -0.0609
 3263DPPC   GL260844  21.588   6.906  40.669 -0.1061 -0.0866 -0.0784
 3263DPPC   C1A60845  21.642   7.373  40.445  0.1114  0.2768 -0.0821
 3263DPPC   C2A60846  21.387   7.613  40.151 -0.4410  0.2530 -0.0256
 3263DPPC   C3A60847  21.044   7.819  40.154 -0.0756  0.1340  0.0226
 3263DPPC   C4A60848  20.594   7.894  40.149 -0.0320  0.0946 -0.3171
 3263DPPC   C1B60849  21.240   7.101  40.676 -0.0036 -0.0012 -0.2393
 3263DPPC   C2B60850  20.926   7.339  40.348 -0.0274  0.0954  0.0073
 3263DPPC   C3B60851  20.671   7.437  39.999  0.1263  0.2027 -0.1095
 3263DPPC   C4B60852  20.661   7.438  39.498 -0.0263 -0.1485  0.1380
 3264DPPC   NC360853  26.909  13.888  25.892 -0.3194  0.2071 -0.2638
 3264DPPC   PO460854  26.569  14.099  25.642 -0.0205  0.1501 -0.0729
 3264DPPC   GL160855  26.139  14.256  25.715  0.2057 -0.1137  0.3493
 3264DPPC   GL260856  25.889  14.536  25.879  0.2932 -0.1491 -0.1430
 3264DPPC   C1A60857  25.783  14.026  25.757  0.2312 -0.2305 -0.0767
 3264DPPC   C2A60858  25.322  13.980  25.762  0.1116 -0.1599  0.0157
 3264DPPC   C3A60859  24.985  13.847  25.995 -0.2959  0.0558  0.0425
 3264DPPC   C4A60860  24.770  13.604  26.215  0.0170  0.0744  0.0033
 3264DPPC   C1B60861  25.458  14.460  26.007  0.3083  0.2158 -0.2072
 3264DPPC   C2B60862  24.961  14.363  25.842 -0.1218  0.0028  0.0153
 3264DPPC   C3B60863  24.605  14.403  25.746 -0.2412  0.0991 -0.0700
 3264DPPC   C4B60864  24.072  14.430  25.808  0.2209  0.0418 -0.1274
 3265DPPC   NC360865   5.762  13.205  22.765  0.2248 -0.1275  0.0897
 3265DPPC   PO460866   6.002  13.378  22.524 -0.0953 -0.0818 -0.0283
 3265DPPC   GL160867   6.321  13.268  22.891 -0.0237  0.3803 -0.3701
 3265DPPC   GL260868   6.218  13.015  23.019 -0.0995 -0.1385  0.0762
 3265DPPC   C1A60869   6.724  13.197  23.161 -0.0875 -0.2507  0.1014
 3265DPPC   C2A60870   6.951  13.222  23.553 -0.2396 -0.3705  0.1130
 3265DPPC   C3A60871   7.098  13.252  24.059  0.3612 -0.1248  0.1389
 3265DPPC   C4A60872   6.898  12.987  24.274  0.1700 -0.1774  0.0313
 3265DPPC   C1B60873   6.650  12.703  23.095  0.1390  0.3842  0.1006
 3265DPPC   C2B60874   7.046  12.743  23.327 -0.0687  0.0307  0.3523
 3265DPPC   C3B60875   7.281  12.931  23.702 -0.0383  0.1330 -0.0706
 3265DPPC   C4B60876   7.357  12.737  24.093  0.1297 -0.0048 -0.1622
 3266DPPC   NC360877  16.185   3.080  39.057  0.0358 -0.0750 -0.0017
 3266DPPC   PO460878  16.402   2.911  38.648  0.2367 -0.1000  0.0411
 3266DPPC   GL160879  16.690   3.267  38.467  0.0118 -0.3489 -0.1864
 3266DPPC   GL260880  17.013   3.208  38.547  0.0808 -0.2494  0.3144
 3266DPPC   C1A60881  16.612   3.729  38.231 -0.3235  0.2237  0.4161
 3266DPPC   C2A60882  16.544   4.110  38.020  0.3950 -0.3062  0.1446
 3266DPPC   C3A60883  16.684   4.635  38.080 -0.0432  0.0186 -0.1249
 3266DPPC   C4A60884  16.885   4.953  38.317  0.0928 -0.0974  0.1256
 3266DPPC   C1B60885  17.103   3.578  38.593  0.3142 -0.0868 -0.0754
 3266DPPC   C2B60886  16.915   3.989  38.541 -0.2441 -0.2174  0.3251
 3266DPPC   C3B60887  16.782   4.390  38.487 -0.0848 -0.0448  0.1854
 3266DPPC   C4B60888  16.529   4.695  38.755 -0.2130 -0.0624  0.1619
 3267DPPC   NC360889   3.364  13.069  26.635  0.3744  0.2713  0.0049
 3267DPPC   PO460890   3.623  12.952  27.014  0.1921  0.1796 -0.0133
 3267DPPC   GL160891   4.064  12.780  27.093 -0.0313 -0.1868 -0.1905
 3267DPPC   GL260892   4.287  12.902  27.417  0.0327 -0.0639  0.0292
 3267DPPC   C1A60893   4.417  12.582  26.945  0.3392 -0.0914 -0.0499
 3267DPPC   C2A60894   4.786  12.508  26.760  0.1111 -0.0679  0.1974
 3267DPPC   C3A60895   5.090  12.610  26.543  0.0212  0.3679 -0.0634
 3267DPPC   C4A60896   5.248  12.892  26.228  0.0645  0.2925  0.1615
 3267DPPC   C1B60897   4.547  12.719  27.745 -0.0507  0.0696 -0.4735
 3267DPPC   C2B60898   4.763  12.421  27.969  0.1410 -0.2525 -0.5021
 3267DPPC   C3B60899   5.032  12.131  28.145 -0.0164  0.1143 -0.0736
 3267DPPC   C4B60900   5.396  11.776  28.171 -0.0697 -0.2130  0.1118
 3268DPPC   NC360901  19.045  13.165  27.266  0.1205  0.0692  0.0061
 3268DPPC   PO460902  19.178  13.513  27.089  0.0100 -0.5020 -0.1216
 3268DPPC   GL160903  19.231  13.361  26.679 -0.2138 -0.0427 -0.0156
 3268DPPC   GL260904  18.844  13.460  26.669  0.1449  0.0507  0.2834
 3268DPPC   C1A60905  19.282  13.285  26.235  0.0418  0.3105 -0.1570
 3268DPPC   C2A60906  19.598  13.193  25.897  0.5046  0.0168  0.1017
 3268DPPC   C3A60907  19.605  13.256  25.495  0.0903 -0.1632  0.2388
 3268DPPC   C4A60908  19.230  13.206  25.254  0.1293 -0.1767  0.3033
 3268DPPC   C1B60909  18.464  13.428  26.336 -0.1597  0.0144  0.1983
 3268DPPC   C2B60910  18.086  13.294  26.104  0.0261 -0.1801 -0.0786
 3268DPPC   C3B60911  17.735  13.429  25.895 -0.2380  0.0208 -0.2391
 3268DPPC   C4B60912  17.288  13.640  25.667  0.0977  0.1561  0.2161
 3269DPPC   NC360913   8.216   6.314  22.227 -0.0444 -0.1328 -0.0636
 3269DPPC   PO460914   7.939   6.193  22.662 -0.1961  0.1085 -0.2054
 3269DPPC   GL160915   8.172   6.542  22.759  0.0394  0.1008 -0.1112
 3269DPPC   GL260916   8.104   6.789  22.678  0.2188  0.0449  0.3101
 3269DPPC   C1A60917   8.562   6.599  22.810 -0.0576  0.1116  0.1020
 3269DPPC   C2A60918   8.895   6.418  22.967  0.1081 -0.3077  0.0904
 3269DPPC   C3A60919   9.170   6.413  23.283  0.2361  0.1776  0.0223
 3269DPPC   C4A60920   9.524   6.680  23.592 -0.4300  0.3088  0.0109
 3269DPPC   C1B60921   8.262   7.043  22.978 -0.1061 -0.2844  0.0208
 3269DPPC   C2B60922   8.115   7.402  23.201  0.0271 -0.1128 -0.3231
 3269DPPC   C3B60923   7.907   7.737  23.211 -0.0483  0.0754  0.1236
 3269DPPC   C4B60924   7.569   7.928  23.291  0.1877  0.3553  0.1032
 3270DPPC   NC360925  22.156  14.521  42.017  0.1648 -0.0722  0.0810
 3270DPPC   PO460926  21.922  14.171  42.134 -0.3103 -0.2545  0.0522
 3270DPPC   GL160927  21.856  13.969  41.754  0.0391  0.2236 -0.1493
 3270DPPC   GL260928  21.972  13.946  41.471 -0.0321  0.0574 -0.3840
 3270DPPC   C1A60929  21.449  13.927  41.482 -0.1440 -0.0853 -0.0565
 3270DPPC   C2A60930  21.033  13.773  41.314  0.0317  0.2653 -0.1500
 3270DPPC   C3A60931  20.612  13.597  41.342  0.0047 -0.1274  0.2193
 3270DPPC   C4A60932  20.365  13.323  41.087  0.1397  0.0646 -0.5076
 3270DPPC   C1B60933  21.821  13.773  41.159  0.0827 -0.0870 -0.0400
 3270DPPC   C2B60934  21.635  13.477  40.906  0.0530  0.4064  0.0220
 3270DPPC   C3B60935  21.735  13.374  40.496  0.1669  0.1085 -0.1466
 3270DPPC   C4B60936  22.022  13.435  40.163  0.0997 -0.1525 -0.5174
 3271DPPC   NC360937  20.749  12.248  18.950 -0.3419  0.0163 -0.2917
 3271DPPC   PO460938  20.891  12.252  19.369  0.0539  0.1606  0.1279
 3271DPPC   GL160939  21.132  11.920  19.143 -0.1465 -0.0067  0.0313
 3271DPPC   GL260940  21.172  11.627  18.959  0.2334  0.0705  0.0063
 3271DPPC   C1A60941  21.393  12.069  18.815 -0.0397  0.2050  0.0127
 3271DPPC   C2A60942  21.764  12.128  18.595  0.2453  0.1576 -0.4195
 3271DPPC   C3A60943  21.799  12.504  18.266 -0.0940 -0.2006 -0.0459
 3271DPPC   C4A60944  21.533  12.800  17.990 -0.0823  0.3237 -0.0759
 3271DPPC   C1B60945  21.204  11.764  18.500 -0.3520 -0.2878  0.1590
 3271DPPC   C2B60946  21.462  11.860  18.148 -0.0811 -0.0276 -0.2392
 3271DPPC   C3B60947  21.717  12.177  17.898  0.2226  0.0991  0.0692
 3271DPPC   C4B60948  21.933  12.545  17.726  0.4365 -0.1264 -0.1064
 3272DPPC   NC360949  23.653   3.152  35.328 -0.0809 -0.1016 -0.2816
 3272DPPC   PO460950  23.719   3.595  35.232 -0.0647 -0.1063  0.0025
 3272DPPC   GL160951  23.663   3.895  35.048 -0.1630 -0.0301 -0.3561
 3272DPPC   GL260952  23.798   3.808  34.725  0.1083 -0.1352 -0.0584
 3272DPPC   C1A60953  23.592   4.290  34.756  0.1387 -0.2943  0.0061
 3272DPPC   C2A60954  23.183   4.558  34.695 -0.0061  0.0233  0.0234
 3272DPPC   C3A60955  22.912   4.934  34.537 -0.0559  0.1450 -0.1575
 3272DPPC   C4A60956  22.824   5.133  34.168  0.0939  0.1941  0.0726
 3272DPPC   C1B60957  23.577   3.987  34.345  0.5525  0.0400 -0.1392
 3272DPPC   C2B60958  23.436   4.399  34.265  0.0171  0.0970 -0.0270
 3272DPPC   C3B60959  23.561   4.800  34.124  0.0691  0.0681 -0.2614
 3272DPPC   C4B60960  23.241   5.064  33.899 -0.3984  0.0748 -0.2512
 3273DPPC   NC360961  12.996  24.218  23.260  0.2321  0.0821 -0.2417
 3273DPPC   PO460962  13.264  23.907  23.010 -0.2033  0.1065 -0.1841
 3273DPPC   GL160963  13.380  23.608  23.375  0.0428 -0.0055  0.1964
 3273DPPC   GL260964  13.752  23.635  23.336  0.4556 -0.1907 -0.0443
 3273DPPC   C1A60965  13.166  23.176  23.379 -0.3663 -0.1793  0.4334
 3273DPPC   C2A60966  13.026  22.702  23.552 -0.0192 -0.0454 -0.0030
 3273DPPC   C3A60967  13.122  22.415  23.764  0.1336  0.3680 -0.0583
 3273DPPC   C4A60968  13.450  22.075  24.004 -0.3296 -0.1172 -0.2350
 3273DPPC   C1B60969  13.750  23.232  23.502  0.0249 -0.3882 -0.0339
 3273DPPC   C2B60970  14.029  23.046  23.691  0.0577  0.1183  0.4838
 3273DPPC   C3B60971  13.916  22.700  23.961  0.1892 -0.1584  0.3149
 3273DPPC   C4B60972  13.947  22.284  24.127 -0.0512 -0.1912  0.0295
 3274DPPC   NC360973  19.745   3.682  19.799 -0.2377  0.1887 -0.2820
 3274DPPC   PO460974  19.317   3.339  19.970  0.2643  0.0886 -0.1281
 3274DPPC   GL160975  19.266   3.694  20.072 -0.1013  0.3007 -0.1256
 3274DPPC   GL260976  19.170   3.867  19.833  0.0171 -0.0404  0.0047
 3274DPPC   C1A60977  19.148   3.911  20.447  0.1162 -0.2591 -0.1176
 3274DPPC   C2A60978  19.240   3.813  20.845  0.1762  0.0183 -0.0045
 3274DPPC   C3A60979  19.150   4.166  21.201 -0.0679 -0.2367 -0.1014
 3274DPPC   C4A60980  18.956   4.254  21.632 -0.2029  0.0533 -0.0054
 3274DPPC   C1B60981  19.185   4.234  19.785 -0.0784 -0.1211  0.0429
 3274DPPC   C2B60982  19.345   4.600  20.039  0.1791 -0.0333  0.1889
 3274DPPC   C3B60983  19.423   4.764  20.436  0.1157  0.1466 -0.0108
 3274DPPC   C4B60984  19.170   5.108  20.474  0.2424 -0.0628  0.0608
 3275DPPC   NC360985   8.224   6.686  21.512  0.1937 -0.0250  0.0335
 3275DPPC   PO460986   7.846   6.570  21.841 -0.0163 -0.2467 -0.1345
 3275DPPC   GL160987   8.206   6.726  22.007  0.0792  0.0798 -0.1327
 3275DPPC   GL260988   8.163   7.026  22.153 -0.0587  0.1069  0.1898
 3275DPPC   C1A60989   8.701   6.718  22.236  0.0371  0.0133  0.0469
 3275DPPC   C2A60990   8.906   7.072  22.481 -0.0587 -0.2277  0.0164
 3275DPPC   C3A60991   9.291   7.192  22.647  0.1899  0.1033 -0.0473
 3275DPPC   C4A60992   9.430   7.394  22.910  0.4055  0.0617 -0.1055
 3275DPPC   C1B60993   8.447   7.183  22.370  0.2631  0.0057 -0.2407
 3275DPPC   C2B60994   8.615   7.371  22.792 -0.0803  0.1753  0.2855
 3275DPPC   C3B60995   8.874   7.389  23.101 -0.0395 -0.1246 -0.1311
 3275DPPC   C4B60996   9.266   7.547  23.373  0.0983 -0.0826  0.2956
 3276DPPC   NC360997  16.904  12.098  18.656 -0.0844  0.1260 -0.0999
 3276DPPC   PO460998  16.647  12.404  18.530 -0.1109 -0.1104  0.1153
 3276DPPC   GL160999  16.684  12.231  18.240 -0.1178  0.0006  0.0323
 3276DPPC   GL261000  16.834  11.882  18.230  0.1664  0.0658  0.0250
 3276DPPC   C1A61001  16.680  12.213  17.822  0.1980 -0.0178 -0.1934
 3276DPPC   C2A61002  16.424  12.341  17.481 -0.0706 -0.0197 -0.0915
 3276DPPC   C3A61003  16.125  12.592  17.598 -0.0713  0.1283  0.1388
 3276DPPC   C4A61004  15.843  12.774  17.870  0.1727  0.1479 -0.3852
 3276DPPC   C1B61005  16.953  11.707  17.761 -0.0195  0.0265 -0.1884
 3276DPPC   C2B61006  17.089  11.336  17.571 -0.0895 -0.0934 -0.0144
 3276DPPC   C3B61007  17.358  11.249  17.244 -0.1326 -0.1185 -0.2035
 3276DPPC   C4B61008  17.705  11.103  17.043 -0.3762  0.0735  0.3038
 3277DPPC   NC361009  17.935   2.750  38.761  0.1486  0.0535  0.1390
 3277DPPC   PO461010  17.699   2.567  38.368  0.0190 -0.1497 -0.2908
 3277DPPC   GL161011  17.349   2.816  38.261  0.0002 -0.2730 -0.1169
 3277DPPC   GL261012  17.444   2.862  37.830 -0.0878 -0.0038  0.0422
 3277DPPC   C1A61013  17.186   3.213  38.122  0.1736  0.0564 -0.2573
 3277DPPC   C2A61014  17.323   3.546  38.179 -0.0173 -0.1535  0.1218
 3277DPPC   C3A61015  17.473   3.729  37.928  0.0636  0.1432 -0.0888
 3277DPPC   C4A61016  17.468   3.874  37.543  0.1212  0.1637 -0.1825
 3277DPPC   C1B61017  17.433   3.225  37.572  0.1602  0.2021 -0.2347
 3277DPPC   C2B61018  17.611   3.410  37.218  0.0278  0.0831  0.0233
 3277DPPC   C3B61019  17.557   3.822  37.041 -0.0309 -0.2983 -0.0684
 3277DPPC   C4B61020  17.465   4.203  37.158 -0.0878  0.0471 -0.1671
 3278DPPC   NC361021  15.777  18.082  15.942  0.1658  0.1097 -0.0968
 3278DPPC   PO461022  15.395  17.841  16.139  0.2852 -0.1631  0.1301
 3278DPPC   GL161023  15.740  17.517  16.257  0.1513  0.1038 -0.0279
 3278DPPC   GL261024  15.533  17.263  16.356  0.0088 -0.1657 -0.1243
 3278DPPC   C1A61025  16.105  17.312  16.497  0.0441 -0.1008 -0.0406
 3278DPPC   C2A61026  16.183  17.218  16.825  0.1125 -0.1908  0.1994
 3278DPPC   C3A61027  16.297  17.173  17.245  0.1423  0.1588 -0.0664
 3278DPPC   C4A61028  16.347  16.876  17.514  0.3937 -0.0458 -0.1277
 3278DPPC   C1B61029  15.717  17.068  16.707 -0.2190  0.0411  0.0693
 3278DPPC   C2B61030  15.806  17.151  17.202  0.1505 -0.1824 -0.0813
 3278DPPC   C3B61031  15.760  17.533  17.302  0.2500 -0.2428 -0.1607
 3278DPPC   C4B61032  15.901  17.976  17.168 -0.0625 -0.1354  0.0957
 3279DPPC   NC361033  22.953  10.450  41.404  0.2718 -0.3270  0.2853
 3279DPPC   PO461034  23.294  10.769  41.142  0.2389 -0.0999  0.2178
 3279DPPC   GL161035  22.995  10.613  40.876  0.4137 -0.4189 -0.2137
 3279DPPC   GL261036  22.830  10.292  40.900  0.1043  0.0768  0.0336
 3279DPPC   C1A61037  22.886  10.622  40.453 -0.1545 -0.0035 -0.1577
 3279DPPC   C2A61038  22.636  10.768  40.182 -0.4137 -0.0050 -0.3019
 3279DPPC   C3A61039  22.272  10.734  40.018  0.1787  0.0679 -0.3104
 3279DPPC   C4A61040  21.890  10.604  39.824 -0.2167 -0.2334  0.0482
 3279DPPC   C1B61041  22.478  10.364  40.540  0.0342  0.5091 -0.0902
 3279DPPC   C2B61042  22.210  10.287  40.284 -0.0247  0.0194  0.4985
 3279DPPC   C3B61043  22.200  10.246  39.785  0.0035  0.2840 -0.0126
 3279DPPC   C4B61044  22.392  10.253  39.402  0.1577  0.0413 -0.3281
 3280DPPC   NC361045  22.700  21.542  30.854  0.0209  0.2023  0.2729
 3280DPPC   PO461046  22.346  21.735  30.583  0.2381 -0.1504  0.0534
 3280DPPC   GL161047  22.219  21.354  30.672 -0.0649 -0.1627  0.1131
 3280DPPC   GL261048  22.148  21.328  30.349  0.0543  0.2319  0.2882
 3280DPPC   C1A61049  21.889  21.140  30.865  0.1840  0.0115 -0.2290
 3280DPPC   C2A61050  21.727  20.861  31.152  0.3828 -0.1534 -0.0348
 3280DPPC   C3A61051  21.544  20.507  31.426 -0.0736 -0.1821  0.1980
 3280DPPC   C4A61052  21.319  20.356  31.758  0.2711  0.2071  0.0990
 3280DPPC   C1B61053  21.860  20.973  30.335 -0.1157 -0.2156  0.3326
 3280DPPC   C2B61054  21.672  20.618  30.493 -0.0525  0.0273 -0.1165
 3280DPPC   C3B61055  21.572  20.193  30.346 -0.1548 -0.1958  0.1235
 3280DPPC   C4B61056  21.605  19.887  30.171 -0.0035 -0.1054  0.0241
 3281DPPC   NC361057  20.161  15.783  27.863 -0.1148  0.0712  0.0913
 3281DPPC   PO461058  20.338  15.805  27.428 -0.1450 -0.2176 -0.0833
 3281DPPC   GL161059  20.426  15.853  26.936  0.0863  0.1241 -0.2209
 3281DPPC   GL261060  20.677  15.998  26.919  0.1413  0.1779 -0.0300
 3281DPPC   C1A61061  20.447  16.186  26.495  0.2349  0.0173 -0.0832
 3281DPPC   C2A61062  20.100  16.332  26.157  0.3624  0.1368  0.1521
 3281DPPC   C3A61063  20.108  16.282  25.691  0.1772  0.0705  0.1474
 3281DPPC   C4A61064  19.846  16.558  25.312  0.0164  0.1451 -0.0240
 3281DPPC   C1B61065  20.973  16.238  26.648 -0.1652 -0.2187  0.0380
 3281DPPC   C2B61066  21.114  16.655  26.444  0.0659 -0.1708 -0.3823
 3281DPPC   C3B61067  21.154  16.714  26.052 -0.0951 -0.0187 -0.1020
 3281DPPC   C4B61068  21.276  16.776  25.678 -0.0827  0.0966  0.0085
 3282DPPC   NC361069   3.809  16.923  34.244  0.1292  0.0914  0.2151
 3282DPPC   PO461070   4.143  17.157  34.038 -0.0762  0.4576  0.0819
 3282DPPC   GL161071   4.594  17.109  33.798 -0.3038  0.1579 -0.0122
 3282DPPC   GL261072   4.648  17.517  33.628 -0.0096  0.0756 -0.2266
 3282DPPC   C1A61073   4.957  17.033  33.552  0.0073 -0.0611  0.0516
 3282DPPC   C2A61074   5.218  16.843  33.286  0.0909  0.1808  0.0085
 3282DPPC   C3A61075   5.578  16.635  33.010  0.1951 -0.0616 -0.1913
 3282DPPC   C4A61076   5.929  16.465  32.819 -0.3055  0.0165  0.0267
 3282DPPC   C1B61077   5.051  17.562  33.523  0.0296 -0.0730  0.0063
 3282DPPC   C2B61078   5.403  17.340  33.429 -0.2857 -0.1625 -0.1635
 3282DPPC   C3B61079   5.759  17.009  33.306 -0.0520  0.0146  0.2254
 3282DPPC   C4B61080   6.128  16.769  33.145  0.0743  0.1704  0.4936
 3283DPPC   NC361081  12.410   2.020  36.601  0.1292 -0.2331 -0.0923
 3283DPPC   PO461082  12.626   2.016  36.165  0.0306 -0.0578 -0.3404
 3283DPPC   GL161083  12.645   2.365  35.894  0.0246 -0.0193  0.2116
 3283DPPC   GL261084  12.968   2.526  35.765  0.0179  0.0183 -0.0347
 3283DPPC   C1A61085  12.483   2.923  35.978 -0.2135 -0.0738 -0.1100
 3283DPPC   C2A61086  12.697   3.257  36.087  0.2291 -0.0323  0.2010
 3283DPPC   C3A61087  12.797   3.633  36.237 -0.2027  0.1285 -0.0539
 3283DPPC   C4A61088  13.011   3.996  36.230 -0.0218  0.0390  0.2781
 3283DPPC   C1B61089  13.052   2.921  35.766 -0.1657  0.0042 -0.4421
 3283DPPC   C2B61090  13.175   3.287  35.568  0.2138 -0.2033  0.4739
 3283DPPC   C3B61091  13.298   3.431  35.307 -0.0586 -0.1411  0.6083
 3283DPPC   C4B61092  13.150   3.635  34.814 -0.1819 -0.0876  0.1894
 3284DPPC   NC361093   0.086  14.335  35.020  0.1519  0.2366  0.4187
 3284DPPC   PO461094  26.818  14.565  35.241 -0.2875 -0.3752  0.0430
 3284DPPC   GL161095  26.456  14.191  35.220 -0.0701 -0.1370  0.1468
 3284DPPC   GL261096  26.338  14.180  35.472  0.3176 -0.4099  0.4128
 3284DPPC   C1A61097  26.196  14.070  34.810 -0.0760 -0.3657  0.1443
 3284DPPC   C2A61098  25.710  13.889  34.771  0.3504 -0.1301 -0.2814
 3284DPPC   C3A61099  25.328  13.677  34.877 -0.0039  0.0276 -0.0471
 3284DPPC   C4A61100  25.135  13.591  35.177  0.0238  0.0526 -0.1318
 3284DPPC   C1B61101  25.974  13.928  35.278 -0.1047 -0.1856  0.3666
 3284DPPC   C2B61102  25.886  13.500  35.062  0.1719  0.1813  0.1999
 3284DPPC   C3B61103  25.806  13.079  34.902 -0.2281 -0.1072  0.0767
 3284DPPC   C4B61104  26.052  12.587  34.917  0.0471  0.1340 -0.0333
 3285DPPC   NC361105  21.139  13.636  24.972  0.0775 -0.0338 -0.0361
 3285DPPC   PO461106  21.201  13.871  25.348  0.0742 -0.4843 -0.0670
 3285DPPC   GL161107  21.372  14.329  25.330  0.0371  0.0884 -0.1495
 3285DPPC   GL261108  21.201  14.559  25.105  0.1197 -0.0669  0.1324
 3285DPPC   C1A61109  21.522  14.651  25.665  0.0261  0.0545 -0.1796
 3285DPPC   C2A61110  21.223  14.968  25.785 -0.0815 -0.0205 -0.1211
 3285DPPC   C3A61111  20.907  15.231  25.845  0.3086  0.1130 -0.0890
 3285DPPC   C4A61112  20.636  15.483  25.605  0.0190 -0.0093  0.2179
 3285DPPC   C1B61113  21.390  14.933  25.060  0.2561 -0.0433  0.0732
 3285DPPC   C2B61114  21.633  15.324  24.807  0.0192  0.2041  0.4937
 3285DPPC   C3B61115  22.044  15.562  24.605  0.1006  0.3450  0.1023
 3285DPPC   C4B61116  22.281  15.886  24.753  0.0775 -0.1333 -0.2339
 3286DPPC   NC361117  23.208   9.272  27.890  0.1885 -0.1622  0.2067
 3286DPPC   PO461118  23.125   9.590  27.532 -0.2800 -0.1361  0.0088
 3286DPPC   GL161119  23.498   9.700  27.332 -0.0256 -0.1853 -0.0904
 3286DPPC   GL261120  23.356   9.916  27.014  0.1943  0.0672  0.1812
 3286DPPC   C1A61121  23.813   9.573  27.090 -0.1958 -0.1054  0.2054
 3286DPPC   C2A61122  24.179   9.284  26.823 -0.0507  0.0820  0.1722
 3286DPPC   C3A61123  24.617   9.531  26.708 -0.0987  0.1662  0.0748
 3286DPPC   C4A61124  24.992   9.835  26.842 -0.2864 -0.0693 -0.4047
 3286DPPC   C1B61125  23.688  10.141  27.248 -0.0340 -0.1587 -0.4747
 3286DPPC   C2B61126  24.119  10.210  27.301  0.0547 -0.0209  0.2003
 3286DPPC   C3B61127  24.403   9.977  27.542  0.0104 -0.1898  0.0036
 3286DPPC   C4B61128  24.591   9.624  27.628  0.0915 -0.1301 -0.1636
 3287DPPC   NC361129  13.856  13.315  15.921 -0.0230  0.2211  0.3710
 3287DPPC   PO461130  14.219  13.534  15.691  0.0051 -0.1349 -0.3344
 3287DPPC   GL161131  14.363  13.361  16.072 -0.0187 -0.1346 -0.1433
 3287DPPC   GL261132  14.588  13.116  16.096  0.0522  0.2884 -0.0176
 3287DPPC   C1A61133  14.604  13.688  16.394 -0.0825  0.0486 -0.0853
 3287DPPC   C2A61134  14.940  13.853  16.658  0.2502  0.2429  0.0055
 3287DPPC   C3A61135  15.296  13.603  16.943 -0.0662 -0.0116 -0.2827
 3287DPPC   C4A61136  15.316  13.423  17.241  0.0591 -0.1096 -0.0507
 3287DPPC   C1B61137  14.935  13.367  16.168 -0.2491  0.0156  0.2107
 3287DPPC   C2B61138  15.341  13.327  16.404  0.0600  0.1508  0.1678
 3287DPPC   C3B61139  15.735  13.006  16.430 -0.1915 -0.2156 -0.1490
 3287DPPC   C4B61140  16.083  12.971  16.704  0.1024  0.0862  0.3731
 3288DPPC   NC361141  20.941   0.422  30.547  0.0423 -0.3031 -0.1116
 3288DPPC   PO461142  20.579   0.776  30.281  0.0879  0.1296  0.0466
 3288DPPC   GL161143  20.250   1.041  30.013  0.2504  0.2293 -0.0315
 3288DPPC   GL261144  20.431   1.222  29.877 -0.1875 -0.2685  0.2050
 3288DPPC   C1A61145  19.981   1.347  29.801  0.1906  0.1786  0.0849
 3288DPPC   C2A61146  20.011   1.746  29.704  0.1110 -0.2545  0.2685
 3288DPPC   C3A61147  20.238   2.201  29.826 -0.4916  0.0232 -0.0436
 3288DPPC   C4A61148  20.141   2.628  30.016 -0.1760 -0.5272 -0.2880
 3288DPPC   C1B61149  20.484   1.655  29.747 -0.0868 -0.0470 -0.0730
 3288DPPC   C2B61150  20.734   2.053  29.742  0.0441  0.1105  0.0613
 3288DPPC   C3B61151  21.099   2.171  29.707  0.1720  0.0910  0.2601
 3288DPPC   C4B61152  21.161   2.623  29.451  0.2278 -0.1476  0.1712
 3289DPPC   NC361153  14.214  10.622  25.511 -0.0204 -0.0833 -0.0824
 3289DPPC   PO461154  14.082  11.008  25.277 -0.0278 -0.1733  0.1107
 3289DPPC   GL161155  14.348  11.365  25.200  0.2027  0.0431 -0.1037
 3289DPPC   GL261156  14.679  11.314  25.189  0.1679 -0.3610  0.3792
 3289DPPC   C1A61157  14.365  11.760  25.448 -0.0528 -0.0578  0.3399
 3289DPPC   C2A61158  14.751  12.011  25.679 -0.3610  0.4547  0.0162
 3289DPPC   C3A61159  15.137  11.906  25.438  0.1931 -0.4636  0.1172
 3289DPPC   C4A61160  15.445  11.775  25.243  0.2026  0.4238  0.0389
 3289DPPC   C1B61161  14.813  11.541  25.457 -0.1394 -0.1946 -0.2268
 3289DPPC   C2B61162  14.620  11.531  25.855  0.0664  0.1008 -0.2872
 3289DPPC   C3B61163  14.876  11.580  26.236 -0.1733 -0.3589 -0.2316
 3289DPPC   C4B61164  14.862  11.769  26.667  0.0520 -0.0283  0.1657
 3290DPPC   NC361165  14.990   8.287  15.909 -0.0281 -0.1902 -0.0470
 3290DPPC   PO461166  15.012   7.916  15.958 -0.1073 -0.1260 -0.0794
 3290DPPC   GL161167  15.267   8.087  16.297 -0.3024  0.1147 -0.0237
 3290DPPC   GL261168  15.563   8.218  16.464  0.1204 -0.0577 -0.1531
 3290DPPC   C1A61169  15.076   8.048  16.700 -0.3120 -0.1871  0.3414
 3290DPPC   C2A61170  14.997   8.222  17.027 -0.3864  0.2471  0.2090
 3290DPPC   C3A61171  14.960   8.537  17.029  0.0726 -0.1993 -0.3016
 3290DPPC   C4A61172  14.586   8.650  16.953 -0.0722  0.1044 -0.1009
 3290DPPC   C1B61173  15.329   8.478  16.665  0.2238  0.1072  0.0459
 3290DPPC   C2B61174  15.394   8.800  16.948  0.0669  0.1090  0.3505
 3290DPPC   C3B61175  15.772   8.940  17.184  0.1576 -0.1578 -0.0159
 3290DPPC   C4B61176  15.816   8.997  17.635 -0.1530  0.1562 -0.1486
 3291DPPC   NC361177  16.052   1.287  36.201 -0.1146 -0.0011  0.0361
 3291DPPC   PO461178  16.159   1.650  36.586  0.0108  0.1922 -0.0050
 3291DPPC   GL161179  16.100   1.931  36.273 -0.2353 -0.2757 -0.1297
 3291DPPC   GL261180  15.927   1.745  36.122  0.0513 -0.1911 -0.1050
 3291DPPC   C1A61181  16.105   2.369  36.247 -0.3596 -0.1011 -0.3357
 3291DPPC   C2A61182  16.077   2.738  35.918 -0.1157  0.2259 -0.1002
 3291DPPC   C3A61183  15.896   3.107  35.799  0.1064 -0.0075 -0.1496
 3291DPPC   C4A61184  15.800   3.231  35.373  0.0974  0.0094  0.2518
 3291DPPC   C1B61185  15.874   2.087  35.865 -0.1465  0.0317  0.1660
 3291DPPC   C2B61186  16.086   2.300  35.500 -0.1423  0.0385 -0.0409
 3291DPPC   C3B61187  16.272   2.342  35.067  0.1925  0.0771 -0.0513
 3291DPPC   C4B61188  16.089   2.556  34.649 -0.1946 -0.0208 -0.0286
 3292DPPC   NC361189  20.903   9.322  20.505 -0.0920  0.4405 -0.0893
 3292DPPC   PO461190  20.768   9.903  20.419 -0.1644  0.0921 -0.2997
 3292DPPC   GL161191  20.987   9.557  20.058  0.1577  0.2074 -0.3997
 3292DPPC   GL261192  21.061   9.195  20.049 -0.1136  0.3519 -0.0796
 3292DPPC   C1A61193  21.255   9.511  19.728  0.2394 -0.3604  0.1277
 3292DPPC   C2A61194  21.475   9.348  19.363 -0.1717 -0.0528 -0.2594
 3292DPPC   C3A61195  21.731   9.329  18.988  0.0208  0.3356  0.2568
 3292DPPC   C4A61196  21.992   9.053  18.796  0.3621  0.0297 -0.0962
 3292DPPC   C1B61197  21.147   9.000  19.607 -0.1115  0.1811  0.1196
 3292DPPC   C2B61198  21.024   9.218  19.179 -0.1785  0.2748 -0.1890
 3292DPPC   C3B61199  21.001   9.607  18.868 -0.0785 -0.1170 -0.0007
 3292DPPC   C4B61200  21.413   9.845  18.977 -0.2549 -0.1975 -0.0968
 3293DPPC   NC361201  14.329  15.811  26.044  0.4202  0.2624 -0.2314
 3293DPPC   PO461202  14.681  15.722  26.035  0.0628 -0.1591 -0.2122
 3293DPPC   GL161203  15.102  15.601  25.719 -0.1026 -0.0650 -0.0181
 3293DPPC   GL261204  15.374  15.506  25.887  0.0059 -0.1947  0.0192
 3293DPPC   C1A61205  15.367  15.372  25.392 -0.3842  0.1773 -0.1761
 3293DPPC   C2A61206  15.782  15.206  25.526  0.1842  0.3106 -0.0018
 3293DPPC   C3A61207  15.931  14.839  25.390 -0.1212  0.0688 -0.1590
 3293DPPC   C4A61208  15.842  14.766  24.838 -0.6638 -0.0639  0.4266
 3293DPPC   C1B61209  15.389  15.093  25.928  0.1587 -0.3166 -0.1198
 3293DPPC   C2B61210  15.442  14.798  25.690 -0.0741  0.1780  0.0809
 3293DPPC   C3B61211  15.269  14.385  25.572 -0.0657 -0.0618  0.1486
 3293DPPC   C4B61212  15.025  14.094  25.582 -0.0798  0.0628  0.0001
 3294DPPC   NC361213  14.907  14.014  23.156 -0.2891 -0.0187  0.0383
 3294DPPC   PO461214  14.709  13.804  23.420  0.1469  0.2172 -0.0026
 3294DPPC   GL161215  14.882  13.735  23.803  0.0136 -0.2001 -0.1836
 3294DPPC   GL261216  14.734  13.451  23.872  0.0684 -0.2472  0.0348
 3294DPPC   C1A61217  15.025  13.891  24.073 -0.2504 -0.0634 -0.0817
 3294DPPC   C2A61218  15.313  13.887  24.495 -0.2687  0.2614  0.0201
 3294DPPC   C3A61219  15.548  13.649  24.715 -0.2756  0.0487 -0.0061
 3294DPPC   C4A61220  15.831  13.282  24.886  0.1965  0.2339 -0.2196
 3294DPPC   C1B61221  14.735  13.150  24.227  0.2349  0.2414 -0.0208
 3294DPPC   C2B61222  14.710  12.899  24.544 -0.1933  0.1522  0.3055
 3294DPPC   C3B61223  14.894  12.474  24.643 -0.4456 -0.0507 -0.0087
 3294DPPC   C4B61224  14.744  11.977  24.591  0.1644 -0.0792  0.1532
 3295DPPC   NC361225   8.351  15.777  18.802 -0.1216 -0.1608 -0.1571
 3295DPPC   PO461226   8.796  15.900  18.599 -0.2647  0.0040  0.1891
 3295DPPC   GL161227   9.052  15.992  19.016 -0.2426 -0.0568 -0.0602
 3295DPPC   GL261228   9.168  16.257  18.993  0.1252 -0.2645 -0.2437
 3295DPPC   C1A61229   9.247  15.951  19.435 -0.0434  0.0331 -0.0295
 3295DPPC   C2A61230   9.342  15.799  19.948 -0.0959  0.1105 -0.0925
 3295DPPC   C3A61231   9.394  15.585  20.358 -0.1187 -0.0918 -0.1422
 3295DPPC   C4A61232   9.808  15.329  20.435  0.0839 -0.1057 -0.1915
 3295DPPC   C1B61233   9.347  16.420  19.455  0.2443  0.1960 -0.0457
 3295DPPC   C2B61234   9.660  16.258  19.747  0.2115 -0.1354 -0.1499
 3295DPPC   C3B61235  10.025  16.186  19.987 -0.1212  0.2185 -0.1107
 3295DPPC   C4B61236  10.387  16.143  20.262  0.1882  0.0145  0.0668
 3296DPPC   NC361237  12.810   0.777  31.209 -0.0111  0.0633 -0.0184
 3296DPPC   PO461238  12.578   0.668  30.842  0.1317 -0.0191  0.0766
 3296DPPC   GL161239  12.398   1.142  30.904 -0.0740 -0.1765 -0.0934
 3296DPPC   GL261240  12.413   1.317  30.617 -0.0373 -0.1341 -0.0896
 3296DPPC   C1A61241  12.521   1.519  31.142  0.1324  0.1053 -0.1260
 3296DPPC   C2A61242  12.481   1.917  31.152  0.0539 -0.0887  0.1399
 3296DPPC   C3A61243  12.488   2.339  30.966  0.1473 -0.3299 -0.1974
 3296DPPC   C4A61244  12.565   2.729  30.692  0.3590 -0.0817  0.1283
 3296DPPC   C1B61245  12.660   1.615  30.685  0.1477 -0.4441  0.0488
 3296DPPC   C2B61246  12.897   1.872  30.919  0.2117 -0.1960  0.3030
 3296DPPC   C3B61247  13.160   2.264  31.023 -0.0068  0.0852  0.0488
 3296DPPC   C4B61248  13.292   2.667  31.028  0.1766  0.2377  0.1149
 3297DPPC   NC361249  15.435  21.067  17.815 -0.1188  0.3068 -0.0413
 3297DPPC   PO461250  15.764  21.295  18.231 -0.1402  0.2428 -0.0170
 3297DPPC   GL161251  15.536  20.851  18.317 -0.0403  0.1154 -0.1026
 3297DPPC   GL261252  15.188  20.849  18.502 -0.0998  0.0525  0.1563
 3297DPPC   C1A61253  15.499  20.452  18.696 -0.0281 -0.3224  0.2943
 3297DPPC   C2A61254  15.301  20.159  18.962  0.2953  0.1065 -0.2011
 3297DPPC   C3A61255  15.310  19.731  19.181  0.0770 -0.0903  0.0956
 3297DPPC   C4A61256  15.067  19.351  19.466  0.0009  0.1056  0.3676
 3297DPPC   C1B61257  14.972  20.593  18.661  0.2185  0.2833  0.0390
 3297DPPC   C2B61258  14.815  20.215  18.928  0.3867 -0.0171 -0.0599
 3297DPPC   C3B61259  14.664  19.778  19.083 -0.0842  0.0258 -0.0593
 3297DPPC   C4B61260  14.463  19.634  18.868  0.3536  0.2984 -0.0850
 3298DPPC   NC361261  23.289   9.946  26.555  0.3235  0.1863  0.4328
 3298DPPC   PO461262  23.484  10.033  26.201  0.1974 -0.0059  0.0715
 3298DPPC   GL161263  23.869  10.170  26.301  0.0616 -0.0005  0.1065
 3298DPPC   GL261264  23.954  10.163  25.975  0.3496  0.0936 -0.0167
 3298DPPC   C1A61265  24.188   9.953  26.424  0.0562  0.2738  0.0241
 3298DPPC   C2A61266  24.473   9.729  26.147  0.0639  0.2394 -0.0599
 3298DPPC   C3A61267  24.650   9.296  26.153 -0.1787 -0.2091  0.0264
 3298DPPC   C4A61268  24.746   8.849  26.093  0.0057  0.2047 -0.1285
 3298DPPC   C1B61269  24.330  10.323  26.116  0.1172  0.0204 -0.0120
 3298DPPC   C2B61270  24.755  10.373  26.164 -0.4068  0.0484  0.0381
 3298DPPC   C3B61271  25.215  10.550  26.020 -0.1976 -0.1184  0.3267
 3298DPPC   C4B61272  25.597  10.582  25.981 -0.0192 -0.3489  0.1487
 3299DPPC   NC361273   0.693  13.402  29.259  0.2911  0.2249  0.1456
 3299DPPC   PO461274   0.548  13.446  29.622  0.1109  0.1580 -0.2499
 3299DPPC   GL161275   0.220  13.750  29.605  0.1861 -0.1124  0.2945
 3299DPPC   GL261276   0.002  13.864  29.238 -0.0969 -0.2906  0.0961
 3299DPPC   C1A61277  26.853  13.503  29.511  0.2826 -0.0563  0.0122
 3299DPPC   C2A61278  26.500  13.306  29.607  0.7209  0.2012  0.1882
 3299DPPC   C3A61279  26.144  13.380  29.802 -0.0009  0.3887 -0.0337
 3299DPPC   C4A61280  25.749  13.496  29.646 -0.1840  0.1482  0.0353
 3299DPPC   C1B61281  26.619  13.800  29.171  0.0626 -0.1646 -0.0909
 3299DPPC   C2B61282  26.170  13.678  29.254  0.0260 -0.1656  0.0536
 3299DPPC   C3B61283  25.750  13.697  29.096  0.2408 -0.0644  0.0035
 3299DPPC   C4B61284  25.588  13.278  29.193  0.1583  0.4427  0.4875
 3300DPPC   NC361285  16.314  10.322  24.459  0.2766  0.0430  0.4364
 3300DPPC   PO461286  15.921  10.498  24.522  0.4218  0.2471 -0.0935
 3300DPPC   GL161287  16.037  10.505  25.013 -0.0596  0.1143  0.1248
 3300DPPC   GL261288  15.681  10.362  25.143 -0.0777 -0.0366 -0.1797
 3300DPPC   C1A61289  16.162  10.851  25.113 -0.1069 -0.0980 -0.0160
 3300DPPC   C2A61290  15.797  11.083  25.410 -0.3262  0.2101 -0.1255
 3300DPPC   C3A61291  15.514  11.316  25.598  0.0306  0.3470 -0.1211
 3300DPPC   C4A61292  15.153  11.494  25.823  0.0765  0.1425 -0.0675
 3300DPPC   C1B61293  15.546  10.844  25.045 -0.2547  0.0381 -0.0138
 3300DPPC   C2B61294  15.541  11.328  25.006  0.1045  0.0907 -0.3044
 3300DPPC   C3B61295  15.127  11.500  24.931 -0.2825 -0.1933  0.0497
 3300DPPC   C4B61296  14.802  11.804  25.051  0.1108  0.2635  0.0366
 3301DPPC   NC361297  14.511  12.851  44.270  0.3902  0.0433  0.0747
 3301DPPC   PO461298  14.738  13.300  44.093  0.3704 -0.2964 -0.0569
 3301DPPC   GL161299  14.590  13.235  43.714  0.1468  0.2378 -0.0219
 3301DPPC   GL261300  14.591  13.525  43.583  0.0681  0.0815  0.2868
 3301DPPC   C1A61301  14.432  13.068  43.404  0.1515 -0.2973 -0.1380
 3301DPPC   C2A61302  14.508  12.813  43.064  0.1764 -0.0329  0.0730
 3301DPPC   C3A61303  14.758  12.936  42.771  0.1084  0.3065 -0.1406
 3301DPPC   C4A61304  15.053  12.958  42.585 -0.2775 -0.0920  0.2865
 3301DPPC   C1B61305  14.744  13.332  43.115 -0.0144 -0.0672 -0.2966
 3301DPPC   C2B61306  14.800  13.445  42.722  0.4212 -0.2075  0.1345
 3301DPPC   C3B61307  14.989  13.886  42.691  0.3185  0.0200  0.0387
 3301DPPC   C4B61308  15.344  14.190  42.717 -0.0209 -0.1201  0.4547
 3302DPPC   NC361309  13.506  19.001  17.684  0.1035 -0.0407  0.0836
 3302DPPC   PO461310  13.055  19.002  17.626 -0.1170  0.0023  0.0070
 3302DPPC   GL161311  13.132  18.696  17.976 -0.3147  0.1810  0.3124
 3302DPPC   GL261312  12.850  18.628  18.164 -0.0889  0.2020  0.4112
 3302DPPC   C1A61313  13.369  18.455  18.297 -0.1511 -0.2853 -0.1770
 3302DPPC   C2A61314  13.574  18.155  18.511 -0.3723 -0.6037  0.0540
 3302DPPC   C3A61315  13.774  17.778  18.651  0.1395 -0.0861  0.0250
 3302DPPC   C4A61316  14.113  17.587  18.893 -0.1389  0.0053  0.0446
 3302DPPC   C1B61317  12.979  18.644  18.592  0.2005  0.1975  0.0351
 3302DPPC   C2B61318  13.102  18.480  19.024  0.1880 -0.0372  0.2094
 3302DPPC   C3B61319  12.852  18.294  19.281 -0.1970 -0.2688 -0.1720
 3302DPPC   C4B61320  12.585  17.936  19.147  0.0192  0.1994 -0.2552
 3303DPPC   NC361321  25.779  14.894  22.901 -0.3705 -0.2807 -0.2663
 3303DPPC   PO461322  25.435  14.717  22.960  0.5037  0.2486  0.1414
 3303DPPC   GL161323  25.043  14.636  23.108  0.2947  0.0727  0.0172
 3303DPPC   GL261324  24.945  14.359  23.082 -0.4061 -0.1159 -0.1174
 3303DPPC   C1A61325  24.546  14.831  23.013 -0.3046 -0.0641  0.1141
 3303DPPC   C2A61326  24.088  14.870  22.988  0.1593 -0.0866  0.0102
 3303DPPC   C3A61327  23.747  14.967  22.931  0.0094  0.0422  0.1037
 3303DPPC   C4A61328  23.345  14.844  22.763 -0.0265 -0.1718  0.1104
 3303DPPC   C1B61329  24.468  14.291  22.939 -0.2474 -0.1519 -0.0068
 3303DPPC   C2B61330  24.107  14.131  23.037 -0.1424  0.1062 -0.1277
 3303DPPC   C3B61331  23.991  13.733  23.342  0.0326 -0.0805  0.0223
 3303DPPC   C4B61332  24.165  13.178  23.352  0.1108 -0.1942  0.2171
 3304DPPC   NC361333  24.890   4.607  23.869  0.0524 -0.1509 -0.0883
 3304DPPC   PO461334  24.559   4.815  23.674 -0.0568 -0.0158  0.3252
 3304DPPC   GL161335  24.271   5.011  23.840  0.3272  0.2681  0.1094
 3304DPPC   GL261336  24.366   4.988  24.204 -0.2571  0.3823  0.0204
 3304DPPC   C1A61337  24.071   5.407  24.158 -0.0212  0.2120  0.1712
 3304DPPC   C2A61338  23.699   5.451  24.345 -0.1034  0.0554 -0.0412
 3304DPPC   C3A61339  23.699   5.802  24.658  0.0454  0.1761 -0.0623
 3304DPPC   C4A61340  23.411   6.034  24.818 -0.0732 -0.2202 -0.1747
 3304DPPC   C1B61341  24.600   5.315  24.232  0.1903  0.2419  0.2715
 3304DPPC   C2B61342  24.632   5.707  24.473 -0.0852 -0.4153  0.3010
 3304DPPC   C3B61343  24.831   6.188  24.576  0.0721  0.0545  0.1521
 3304DPPC   C4B61344  24.837   6.548  24.886  0.3998  0.0385 -0.0162
 3305DPPC   NC361345  16.859  20.449  18.299  0.0408 -0.2756  0.1388
 3305DPPC   PO461346  17.118  20.344  17.950  0.1025  0.1146 -0.2494
 3305DPPC   GL161347  16.810  19.972  18.151 -0.2200 -0.0190 -0.2406
 3305DPPC   GL261348  16.641  20.051  18.415  0.2446  0.1665 -0.0225
 3305DPPC   C1A61349  16.665  19.560  18.400  0.1031 -0.0332  0.2576
 3305DPPC   C2A61350  16.669  19.531  18.901  0.0205  0.3021  0.0617
 3305DPPC   C3A61351  16.508  19.459  19.313 -0.0429  0.1495  0.0205
 3305DPPC   C4A61352  16.600  19.499  19.656 -0.0547 -0.2069 -0.2721
 3305DPPC   C1B61353  16.731  20.085  18.881 -0.1278 -0.2330  0.0929
 3305DPPC   C2B61354  16.817  19.886  19.243  0.0470  0.0130  0.2737
 3305DPPC   C3B61355  17.057  20.014  19.456  0.2122 -0.0340 -0.0411
 3305DPPC   C4B61356  17.314  20.319  19.444  0.2354 -0.0543  0.0965
 3306DPPC   NC361357  21.217   7.803  42.256 -0.4212  0.1450 -0.2757
 3306DPPC   PO461358  21.131   7.508  41.921  0.0176  0.0082 -0.2342
 3306DPPC   GL161359  21.145   7.490  41.428  0.3073 -0.3836 -0.2145
 3306DPPC   GL261360  21.396   7.555  41.310  0.1780  0.1453 -0.2914
 3306DPPC   C1A61361  20.883   7.281  41.166 -0.0702  0.5042 -0.1922
 3306DPPC   C2A61362  20.753   7.486  40.786 -0.0218 -0.4383 -0.4231
 3306DPPC   C3A61363  20.667   7.887  40.614  0.2005  0.3670  0.1990
 3306DPPC   C4A61364  20.530   8.319  40.496  0.1706  0.2116  0.1968
 3306DPPC   C1B61365  21.280   7.505  40.967 -0.5314 -0.0476  0.1564
 3306DPPC   C2B61366  21.239   7.661  40.596  0.3272 -0.1701  0.0666
 3306DPPC   C3B61367  21.498   8.023  40.420 -0.1231 -0.2758  0.1174
 3306DPPC   C4B61368  21.698   8.447  40.419 -0.1223 -0.0585 -0.2038
 3307DPPC   NC361369  17.618  12.804  23.162 -0.4477 -0.0861 -0.0474
 3307DPPC   PO461370  17.975  13.002  23.242  0.1220  0.1564 -0.5157
 3307DPPC   GL161371  17.897  13.323  23.570  0.1233 -0.2326 -0.0904
 3307DPPC   GL261372  17.640  13.453  23.588 -0.0503 -0.0128  0.1947
 3307DPPC   C1A61373  18.174  13.505  23.873 -0.0640  0.1626  0.1257
 3307DPPC   C2A61374  18.192  13.624  24.296  0.1037 -0.1631 -0.0498
 3307DPPC   C3A61375  18.395  13.954  24.598 -0.0039 -0.2436  0.2429
 3307DPPC   C4A61376  18.608  14.279  24.883  0.0338  0.2759 -0.1812
 3307DPPC   C1B61377  17.395  13.660  23.973 -0.1543  0.2529  0.0204
 3307DPPC   C2B61378  17.285  14.060  24.253  0.0942  0.0780  0.3963
 3307DPPC   C3B61379  17.333  14.227  24.642  0.0031  0.2054 -0.0186
 3307DPPC   C4B61380  17.292  14.525  24.907 -0.0998  0.0524  0.2660
 3308DPPC   NC361381   2.965  14.612  31.456 -0.1604  0.2456  0.0364
 3308DPPC   PO461382   3.188  14.761  31.198  0.1316  0.0817  0.0206
 3308DPPC   GL161383   3.751  14.640  31.256 -0.2044  0.1610  0.2850
 3308DPPC   GL261384   3.863  14.906  31.169  0.0000  0.0898 -0.1160
 3308DPPC   C1A61385   4.262  14.517  31.205  0.0804  0.2174  0.1891
 3308DPPC   C2A61386   4.721  14.423  31.135  0.4857 -0.1160 -0.0464
 3308DPPC   C3A61387   5.122  14.340  31.248 -0.0626  0.0439  0.0618
 3308DPPC   C4A61388   5.313  13.949  31.451 -0.0018  0.1528  0.1165
 3308DPPC   C1B61389   4.256  15.020  31.020  0.0689  0.0195 -0.0096
 3308DPPC   C2B61390   4.644  14.897  31.262 -0.1081  0.1181 -0.0851
 3308DPPC   C3B61391   5.075  14.900  31.324 -0.3569 -0.1014  0.2285
 3308DPPC   C4B61392   5.464  14.793  31.417  0.0260  0.0355 -0.1922
 3309DPPC   NC361393  18.468   2.858  37.953  0.0976  0.0628 -0.5151
 3309DPPC   PO461394  18.032   2.637  38.027 -0.1921  0.3209 -0.3588
 3309DPPC   GL161395  17.973   2.829  37.678 -0.1846 -0.1449  0.2769
 3309DPPC   GL261396  18.130   3.161  37.660  0.1360  0.2250  0.1588
 3309DPPC   C1A61397  17.776   2.879  37.372 -0.0838  0.2157  0.3408
 3309DPPC   C2A61398  17.509   2.913  36.984 -0.0683  0.1860 -0.1029
 3309DPPC   C3A61399  17.282   2.926  36.560  0.0482 -0.2057  0.1131
 3309DPPC   C4A61400  16.868   2.959  36.425 -0.1690 -0.2875  0.2109
 3309DPPC   C1B61401  18.154   3.443  37.314  0.2175 -0.0759 -0.1042
 3309DPPC   C2B61402  18.176   3.644  37.051  0.2446  0.0202 -0.3066
 3309DPPC   C3B61403  17.936   3.752  36.767  0.2767  0.2534 -0.0108
 3309DPPC   C4B61404  17.635   4.157  36.704 -0.0949 -0.2845  0.1639
 3310DPPC   NC361405   9.860   7.975  18.595  0.1372  0.0533 -0.3184
 3310DPPC   PO461406   9.893   7.973  19.035 -0.0897  0.5254  0.0279
 3310DPPC   GL161407  10.250   7.936  19.175  0.2888  0.1424 -0.1100
 3310DPPC   GL261408  10.325   8.167  19.108  0.4275 -0.1766 -0.0753
 3310DPPC   C1A61409  10.314   7.875  19.568 -0.1721 -0.2488  0.0253
 3310DPPC   C2A61410  10.180   7.915  19.904 -0.0434  0.3807 -0.1760
 3310DPPC   C3A61411  10.216   8.013  20.247 -0.0387  0.3127 -0.1521
 3310DPPC   C4A61412  10.286   8.215  20.541 -0.0883 -0.0223 -0.0475
 3310DPPC   C1B61413  10.677   8.137  19.404 -0.2291  0.1588 -0.1096
 3310DPPC   C2B61414  10.829   7.949  19.786 -0.2278  0.1303 -0.2594
 3310DPPC   C3B61415  11.208   7.870  19.941 -0.0597  0.1561  0.3019
 3310DPPC   C4B61416  11.602   7.960  20.165 -0.1232 -0.0609 -0.2956
 3311DPPC   NC361417  18.427  24.943  29.775 -0.1358  0.1936 -0.2627
 3311DPPC   PO461418  17.995  24.681  29.608  0.2466 -0.3038 -0.2447
 3311DPPC   GL161419  17.923  24.209  29.436 -0.0206 -0.1182 -0.3113
 3311DPPC   GL261420  17.725  23.994  29.099 -0.1452  0.1389  0.0308
 3311DPPC   C1A61421  18.172  23.787  29.358 -0.0036  0.0959  0.2019
 3311DPPC   C2A61422  18.536  23.403  29.360  0.0953 -0.0659 -0.1809
 3311DPPC   C3A61423  18.810  23.272  29.650  0.1992  0.1936  0.2008
 3311DPPC   C4A61424  18.957  22.906  29.778 -0.0666  0.0324  0.1137
 3311DPPC   C1B61425  17.639  23.719  29.333  0.1663  0.2006  0.2017
 3311DPPC   C2B61426  17.926  23.371  29.563  0.1194  0.0507  0.0070
 3311DPPC   C3B61427  18.131  22.981  29.567  0.2385 -0.1434 -0.1988
 3311DPPC   C4B61428  18.556  22.856  29.588  0.1449  0.1723  0.4131
 3312DPPC   NC361429   7.068  21.781  36.412 -0.2255  0.3503  0.0549
 3312DPPC   PO461430   7.420  21.578  36.081  0.0188  0.0135 -0.1354
 3312DPPC   GL161431   7.277  21.215  35.868  0.4903 -0.2939  0.1688
 3312DPPC   GL261432   7.012  20.994  35.766 -0.1379 -0.0437  0.3248
 3312DPPC   C1A61433   7.553  20.957  35.559 -0.2259 -0.0108 -0.0093
 3312DPPC   C2A61434   7.970  20.878  35.298 -0.1835 -0.2267  0.2124
 3312DPPC   C3A61435   8.203  20.522  35.110  0.5330  0.0654  0.2470
 3312DPPC   C4A61436   8.561  20.516  34.685 -0.1654 -0.1010 -0.0382
 3312DPPC   C1B61437   7.286  20.578  35.529  0.1627 -0.0110  0.1351
 3312DPPC   C2B61438   7.774  20.427  35.547  0.0695  0.0101  0.1485
 3312DPPC   C3B61439   7.870  19.982  35.302  0.2582  0.2181 -0.0183
 3312DPPC   C4B61440   7.603  19.672  35.188  0.2865  0.1846 -0.1389
 3313DPPC   NC361441  18.701  10.239  19.636 -0.3139 -0.0389 -0.0821
 3313DPPC   PO461442  18.360  10.295  19.325 -0.1240 -0.2136  0.1843
 3313DPPC   GL161443  18.474  10.103  18.965 -0.0204 -0.1879  0.1883
 3313DPPC   GL261444  18.217   9.885  18.922 -0.2394 -0.1322  0.2900
 3313DPPC   C1A61445  18.674   9.758  18.777  0.0019 -0.0475  0.0608
 3313DPPC   C2A61446  18.837   9.405  18.464 -0.3199 -0.1806 -0.1234
 3313DPPC   C3A61447  18.695   9.313  18.000 -0.3663 -0.0087  0.1881
 3313DPPC   C4A61448  18.800   9.379  17.577  0.1883 -0.4516 -0.2235
 3313DPPC   C1B61449  18.136   9.997  18.540  0.0940  0.0338  0.0123
 3313DPPC   C2B61450  17.865   9.642  18.265 -0.2259  0.2261  0.0542
 3313DPPC   C3B61451  17.690   9.582  17.820  0.2942 -0.0707  0.2601
 3313DPPC   C4B61452  17.256   9.650  17.634 -0.2302  0.0650 -0.0957
 3314DPPC   NC361453  24.897  17.337  38.635 -0.0091 -0.2734  0.2544
 3314DPPC   PO461454  24.484  17.220  38.717  0.0354 -0.3304  0.1391
 3314DPPC   GL161455  24.121  17.244  38.506  0.1460 -0.0102 -0.0893
 3314DPPC   GL261456  24.170  17.428  38.369  0.2147 -0.3132 -0.0596
 3314DPPC   C1A61457  23.668  17.269  38.423 -0.0277  0.1235 -0.1694
 3314DPPC   C2A61458  23.323  17.523  38.241 -0.1086 -0.1630 -0.0278
 3314DPPC   C3A61459  23.185  17.684  37.813 -0.1425 -0.0231 -0.2711
 3314DPPC   C4A61460  23.080  17.645  37.292  0.1311 -0.0233  0.1534
 3314DPPC   C1B61461  23.931  17.264  38.021 -0.1381  0.3196  0.1300
 3314DPPC   C2B61462  23.588  17.202  37.842 -0.3285  0.0118 -0.0280
 3314DPPC   C3B61463  23.492  17.329  37.577 -0.1916  0.1331  0.0210
 3314DPPC   C4B61464  23.551  17.446  37.161  0.2215  0.7066  0.2025
 3315DPPC   NC361465  17.772  23.620  22.278  0.3101  0.0776  0.0375
 3315DPPC   PO461466  18.184  23.317  22.250 -0.1278 -0.0932  0.0986
 3315DPPC   GL161467  18.076  22.960  22.366  0.0789  0.1499 -0.1808
 3315DPPC   GL261468  18.186  22.601  22.278  0.0971 -0.0339 -0.0472
 3315DPPC   C1A61469  17.711  22.788  22.385 -0.0835 -0.2098 -0.4889
 3315DPPC   C2A61470  17.434  22.717  22.685 -0.0769 -0.1589 -0.1161
 3315DPPC   C3A61471  17.162  22.569  22.850 -0.1512 -0.1713 -0.0657
 3315DPPC   C4A61472  17.008  22.402  23.187 -0.0301 -0.2482  0.0979
 3315DPPC   C1B61473  18.360  22.295  22.302 -0.0908  0.1676  0.0668
 3315DPPC   C2B61474  18.234  21.867  22.465  0.3168 -0.0143  0.2319
 3315DPPC   C3B61475  18.044  21.499  22.649  0.2262 -0.0337 -0.0104
 3315DPPC   C4B61476  17.861  21.379  23.002 -0.1598  0.1431  0.0965
 3316DPPC   NC361477  22.772   2.187  24.887 -0.2846  0.0354  0.0491
 3316DPPC   PO461478  23.204   2.427  24.616  0.0828 -0.2333 -0.1647
 3316DPPC   GL161479  22.925   2.661  24.867  0.0331  0.1140  0.1185
 3316DPPC   GL261480  23.039   2.726  25.193  0.1533 -0.0051  0.3216
 3316DPPC   C1A61481  22.638   2.981  25.019 -0.2032  0.1613  0.0911
 3316DPPC   C2A61482  22.350   3.070  25.376 -0.1376  0.0353  0.0165
 3316DPPC   C3A61483  21.870   3.266  25.351 -0.2779  0.1471  0.2807
 3316DPPC   C4A61484  21.704   3.696  25.164 -0.2788 -0.0089  0.1504
 3316DPPC   C1B61485  22.973   3.048  25.535 -0.0610  0.0185  0.0889
 3316DPPC   C2B61486  22.771   3.485  25.442  0.3738  0.0443  0.2159
 3316DPPC   C3B61487  22.934   3.797  25.245  0.0605 -0.2083 -0.1274
 3316DPPC   C4B61488  22.840   4.224  24.942 -0.3008 -0.1766 -0.2853
 3317DPPC   NC361489  20.392  14.930  23.310  0.2014  0.1102 -0.2138
 3317DPPC   PO461490  20.326  15.156  23.742  0.2772  0.1581 -0.2542
 3317DPPC   GL161491  20.535  15.417  23.996  0.0535 -0.2306  0.2655
 3317DPPC   GL261492  20.803  15.712  23.854  0.3236  0.1189  0.2425
 3317DPPC   C1A61493  20.390  15.722  24.436 -0.1669  0.1259  0.2825
 3317DPPC   C2A61494  20.582  16.051  24.796  0.2680 -0.3928  0.2518
 3317DPPC   C3A61495  20.979  16.196  24.924  0.0110  0.0249  0.1347
 3317DPPC   C4A61496  21.342  16.328  24.930 -0.1107  0.1074 -0.1591
 3317DPPC   C1B61497  20.963  15.737  24.295  0.0790 -0.0150 -0.2135
 3317DPPC   C2B61498  21.178  15.900  24.560  0.0151  0.0291 -0.0370
 3317DPPC   C3B61499  21.550  15.847  24.852  0.0099  0.2200 -0.2194
 3317DPPC   C4B61500  21.984  15.935  25.207  0.1629  0.3417  0.3341
 3318DPPC   NC361501  20.302   5.546  17.255 -0.0058  0.0387 -0.3011
 3318DPPC   PO461502  19.972   5.732  17.373  0.1801 -0.1507 -0.0332
 3318DPPC   GL161503  19.824   6.055  17.604 -0.0556 -0.1042 -0.0021
 3318DPPC   GL261504  20.081   6.163  17.795 -0.0066  0.0049  0.0076
 3318DPPC   C1A61505  19.730   6.496  17.777  0.0815  0.1785  0.0639
 3318DPPC   C2A61506  19.585   6.826  17.788 -0.2446 -0.1472 -0.3348
 3318DPPC   C3A61507  19.521   7.265  17.874  0.3523 -0.0810  0.2214
 3318DPPC   C4A61508  19.712   7.358  18.297  0.0884  0.2601 -0.0019
 3318DPPC   C1B61509  19.935   6.319  18.182 -0.2363  0.4119  0.2950
 3318DPPC   C2B61510  19.956   6.223  18.496  0.1601 -0.1922  0.2651
 3318DPPC   C3B61511  19.951   5.869  18.681 -0.1023  0.0182  0.1095
 3318DPPC   C4B61512  20.233   5.496  18.560 -0.0223  0.1985  0.0942
 3319DPPC   NC361513  16.220  18.331  21.222 -0.0159  0.0226 -0.1341
 3319DPPC   PO461514  15.898  18.405  21.452 -0.2447  0.2667  0.1431
 3319DPPC   GL161515  15.856  18.766  21.180  0.1630  0.1164  0.0686
 3319DPPC   GL261516  15.785  19.015  21.440 -0.0474 -0.2432 -0.2314
 3319DPPC   C1A61517  15.729  19.236  20.968  0.0383 -0.0524  0.1867
 3319DPPC   C2A61518  15.669  19.511  20.674  0.1179  0.1587 -0.2330
 3319DPPC   C3A61519  15.290  19.750  20.411 -0.0947 -0.0146  0.4227
 3319DPPC   C4A61520  15.034  19.890  19.994 -0.2244 -0.2871 -0.0198
 3319DPPC   C1B61521  15.543  19.385  21.402 -0.0243  0.0466 -0.1292
 3319DPPC   C2B61522  15.405  19.746  21.109 -0.0477  0.0977 -0.0074
 3319DPPC   C3B61523  15.516  19.969  20.741 -0.1226 -0.1992 -0.2154
 3319DPPC   C4B61524  15.312  20.341  20.630  0.2565  0.5054  0.0069
 3320DPPC   NC361525  15.443   2.455  38.509  0.1089  0.2402  0.0761
 3320DPPC   PO461526  15.111   2.688  38.267  0.0919  0.0170 -0.2152
 3320DPPC   GL161527  14.779   3.018  38.216  0.1904 -0.3101 -0.1204
 3320DPPC   GL261528  14.900   2.903  37.831 -0.1954  0.2805  0.1667
 3320DPPC   C1A61529  14.504   3.337  38.355  0.0382  0.0878 -0.1586
 3320DPPC   C2A61530  14.185   3.672  38.496  0.1298  0.3508  0.0719
 3320DPPC   C3A61531  13.864   3.844  38.246 -0.2876  0.1630 -0.1339
 3320DPPC   C4A61532  13.509   3.985  38.056 -0.0993 -0.1308  0.0154
 3320DPPC   C1B61533  15.028   3.322  37.771 -0.0054  0.0038 -0.1778
 3320DPPC   C2B61534  14.742   3.631  37.598  0.3295 -0.0233  0.0032
 3320DPPC   C3B61535  14.381   3.843  37.550 -0.1155  0.1521  0.0852
 3320DPPC   C4B61536  14.309   4.231  37.371  0.0765 -0.1740 -0.1223
 3321DPPC   NC361537  21.242  21.413  22.439  0.0024  0.1917  0.0535
 3321DPPC   PO461538  20.932  21.405  22.097 -0.0317 -0.0184 -0.0936
 3321DPPC   GL161539  20.437  21.443  22.019  0.3542 -0.5597 -0.0811
 3321DPPC   GL261540  20.188  21.459  21.742  0.0311 -0.1726 -0.1177
 3321DPPC   C1A61541  20.237  21.357  22.399 -0.0607  0.2652 -0.0722
 3321DPPC   C2A61542  20.263  21.571  22.768 -0.2765 -0.0388  0.0037
 3321DPPC   C3A61543  19.880  21.801  22.937 -0.0755  0.0673  0.0727
 3321DPPC   C4A61544  19.558  22.209  22.914 -0.1437  0.4296  0.0476
 3321DPPC   C1B61545  19.864  21.585  21.638  0.0359 -0.0915  0.1934
 3321DPPC   C2B61546  19.512  21.531  21.860 -0.1780 -0.0871 -0.0626
 3321DPPC   C3B61547  19.272  21.458  22.145  0.0620 -0.1452  0.0783
 3321DPPC   C4B61548  19.023  21.383  22.437  0.0063 -0.1365 -0.0544
 3322DPPC   NC361549   8.093  22.674  25.577  0.0611  0.0058  0.4373
 3322DPPC   PO461550   7.731  22.556  25.673 -0.0990  0.0572 -0.1399
 3322DPPC   GL161551   8.008  22.373  25.999 -0.0526 -0.1766  0.0191
 3322DPPC   GL261552   8.345  22.400  25.944 -0.2385 -0.1600  0.3515
 3322DPPC   C1A61553   7.954  22.027  26.293 -0.5093 -0.1016  0.1663
 3322DPPC   C2A61554   8.030  21.731  26.550 -0.1156 -0.1397 -0.1906
 3322DPPC   C3A61555   8.231  21.376  26.734  0.1684 -0.0525 -0.0711
 3322DPPC   C4A61556   8.609  21.287  26.792 -0.0888 -0.0370  0.0100
 3322DPPC   C1B61557   8.440  22.169  26.266 -0.2147  0.1486 -0.0501
 3322DPPC   C2B61558   8.545  21.818  26.622 -0.2282 -0.1391  0.0477
 3322DPPC   C3B61559   9.017  21.554  26.669  0.0573 -0.0043  0.1019
 3322DPPC   C4B61560   9.211  21.158  26.740 -0.1032  0.2673 -0.0731
 3323DPPC   NC361561  20.889   6.512  16.403 -0.2639 -0.2904  0.0351
 3323DPPC   PO461562  20.503   6.483  16.812  0.4305 -0.2159 -0.2193
 3323DPPC   GL161563  20.305   6.524  17.203  0.3651  0.1280  0.2123
 3323DPPC   GL261564  20.449   6.465  17.512 -0.0312 -0.1463 -0.1273
 3323DPPC   C1A61565  20.098   6.780  17.408  0.0231  0.1064  0.1424
 3323DPPC   C2A61566  20.106   7.203  17.737  0.1391 -0.0013  0.1673
 3323DPPC   C3A61567  19.965   7.484  17.909 -0.2735  0.0450 -0.2733
 3323DPPC   C4A61568  19.767   7.788  17.798 -0.0049  0.0532  0.1647
 3323DPPC   C1B61569  20.186   6.658  17.906 -0.1925 -0.1250  0.0243
 3323DPPC   C2B61570  19.856   6.798  18.255 -0.1080 -0.0565  0.1326
 3323DPPC   C3B61571  20.023   6.957  18.594 -0.2347 -0.1965  0.0201
 3323DPPC   C4B61572  20.104   6.902  19.041 -0.1204 -0.1109  0.2719
 3324DPPC   NC361573  20.375  15.610  23.569  0.3895 -0.3055  0.0710
 3324DPPC   PO461574  20.044  15.688  23.859  0.0077 -0.1124  0.0137
 3324DPPC   GL161575  20.308  15.903  24.006 -0.0505 -0.1884 -0.1476
 3324DPPC   GL261576  20.180  16.131  24.276 -0.1140 -0.0928 -0.0590
 3324DPPC   C1A61577  20.662  16.139  24.176 -0.1586  0.1705 -0.1461
 3324DPPC   C2A61578  21.012  16.248  24.114 -0.2063 -0.0459  0.1207
 3324DPPC   C3A61579  21.376  16.527  23.915  0.0038  0.2520  0.2066
 3324DPPC   C4A61580  21.478  16.806  24.165 -0.2504 -0.4424 -0.0696
 3324DPPC   C1B61581  20.147  16.386  24.586  0.0683  0.0832 -0.1228
 3324DPPC   C2B61582  20.147  16.261  25.006  0.0752 -0.0054 -0.0850
 3324DPPC   C3B61583  20.407  16.440  25.339 -0.0677 -0.1037  0.0735
 3324DPPC   C4B61584  20.788  16.757  25.453 -0.1551 -0.3899  0.0101
 3325DPPC   NC361585   0.294   9.654  34.187 -0.0745 -0.4131  0.1255
 3325DPPC   PO461586   0.547   9.861  33.821 -0.2726  0.0768  0.2487
 3325DPPC   GL161587   0.079   9.936  33.775  0.2825  0.1850 -0.1590
 3325DPPC   GL261588  27.044   9.688  33.548 -0.0544 -0.2525  0.4067
 3325DPPC   C1A61589  26.734  10.201  33.811  0.0980  0.1781  0.1302
 3325DPPC   C2A61590  26.396  10.189  33.541  0.2267 -0.4019  0.3395
 3325DPPC   C3A61591  26.018  10.349  33.225 -0.3428 -0.0069  0.1034
 3325DPPC   C4A61592  25.718  10.623  33.276  0.0727 -0.1576 -0.1809
 3325DPPC   C1B61593  26.896  10.083  33.372  0.3162  0.3327  0.1354
 3325DPPC   C2B61594  26.989  10.401  33.180  0.2674  0.1220 -0.0389
 3325DPPC   C3B61595  26.914  10.756  33.185 -0.1465 -0.0461 -0.0667
 3325DPPC   C4B61596  26.673  11.095  33.338  0.0026  0.0856 -0.2707
 3326DPPC   NC361597  20.071  15.937  22.118 -0.1857  0.0176  0.1906
 3326DPPC   PO461598  20.293  15.640  22.309  0.2701  0.1692 -0.0099
 3326DPPC   GL161599  20.775  15.791  22.145 -0.4709  0.1865 -0.0858
 3326DPPC   GL261600  21.045  15.575  22.255 -0.3087  0.0810 -0.1326
 3326DPPC   C1A61601  21.055  16.093  22.217 -0.1674 -0.0988 -0.1524
 3326DPPC   C2A61602  21.412  16.089  22.508 -0.0709  0.1241 -0.0670
 3326DPPC   C3A61603  21.674  16.350  22.653 -0.0879  0.1434 -0.2778
 3326DPPC   C4A61604  21.914  16.754  22.757  0.0874 -0.1223 -0.1689
 3326DPPC   C1B61605  21.438  15.848  22.078 -0.1408  0.1358 -0.2071
 3326DPPC   C2B61606  21.445  15.998  21.688  0.1298  0.3463  0.0251
 3326DPPC   C3B61607  21.464  16.125  21.262 -0.1746 -0.0818 -0.1408
 3326DPPC   C4B61608  21.404  16.340  21.037  0.2224 -0.1905 -0.0614
 3327DPPC   NC361609  12.805   2.325  38.205  0.2784  0.1150 -0.2939
 3327DPPC   PO461610  13.313   2.473  38.114 -0.0621  0.0199 -0.0575
 3327DPPC   GL161611  13.427   2.784  37.927 -0.2195  0.3260  0.2722
 3327DPPC   GL261612  13.665   3.102  38.008 -0.1218 -0.0473 -0.0547
 3327DPPC   C1A61613  13.323   3.048  37.686 -0.1539  0.1538  0.0357
 3327DPPC   C2A61614  13.419   3.503  37.420 -0.1451 -0.2800 -0.2918
 3327DPPC   C3A61615  13.483   3.784  37.087 -0.1394  0.0791 -0.2163
 3327DPPC   C4A61616  13.696   3.948  36.710 -0.2908 -0.0238  0.1866
 3327DPPC   C1B61617  13.793   3.543  37.790 -0.1146 -0.0679  0.1490
 3327DPPC   C2B61618  13.862   3.935  37.703 -0.0175 -0.2351 -0.0561
 3327DPPC   C3B61619  13.597   4.270  37.628 -0.0379 -0.0299 -0.1499
 3327DPPC   C4B61620  13.234   4.300  37.344  0.0883 -0.1006  0.2597
 3328DPPC   NC361621  14.016  11.597  20.437 -0.2641  0.0572  0.2851
 3328DPPC   PO461622  14.080  11.239  20.248  0.2622 -0.0633  0.4515
 3328DPPC   GL161623  13.802  11.017  20.065  0.1682 -0.0064  0.0351
 3328DPPC   GL261624  13.693  10.744  20.202 -0.0490  0.0755  0.0235
 3328DPPC   C1A61625  13.381  10.957  19.778  0.1228  0.3368 -0.0584
 3328DPPC   C2A61626  13.378  10.766  19.380  0.0314  0.0255  0.2253
 3328DPPC   C3A61627  13.211  10.718  19.106  0.0241  0.1133 -0.0627
 3328DPPC   C4A61628  13.239  10.602  18.722  0.1801  0.2649  0.1312
 3328DPPC   C1B61629  13.233  10.676  20.178  0.1436  0.0190  0.2101
 3328DPPC   C2B61630  13.023  10.347  19.884 -0.1004 -0.2022  0.1413
 3328DPPC   C3B61631  12.717  10.340  19.560 -0.0071  0.0349 -0.4107
 3328DPPC   C4B61632  12.783  10.325  19.171 -0.4766 -0.1826 -0.3012
 3329DPPC   NC361633  12.899  13.047  21.031  0.1181 -0.0290  0.3341
 3329DPPC   PO461634  12.920  13.310  20.729  0.2046 -0.1855  0.0961
 3329DPPC   GL161635  12.670  13.316  20.301  0.3081  0.1791  0.0028
 3329DPPC   GL261636  12.828  13.302  19.934 -0.1166  0.2579 -0.2382
 3329DPPC   C1A61637  12.380  13.519  20.150  0.1276 -0.2579 -0.2588
 3329DPPC   C2A61638  11.941  13.712  19.938  0.2020  0.3983  0.0508
 3329DPPC   C3A61639  11.843  13.921  19.609  0.0751 -0.0874  0.2504
 3329DPPC   C4A61640  11.668  14.126  19.282 -0.0226  0.0227 -0.2497
 3329DPPC   C1B61641  12.705  13.201  19.498  0.0942 -0.0605 -0.3092
 3329DPPC   C2B61642  12.537  13.071  19.087 -0.1643  0.1933  0.0817
 3329DPPC   C3B61643  12.327  12.883  18.821  0.2326  0.0787  0.5211
 3329DPPC   C4B61644  11.927  12.858  18.638  0.0126  0.0840 -0.2496
 3330DPPC   NC361645  22.619  16.845  40.134  0.1318  0.1208  0.0517
 3330DPPC   PO461646  23.013  16.773  40.008  0.0795 -0.1433 -0.3358
 3330DPPC   GL161647  22.804  16.637  39.621 -0.0633  0.1838 -0.2049
 3330DPPC   GL261648  22.609  16.392  39.617  0.2348 -0.2780  0.0870
 3330DPPC   C1A61649  22.845  16.547  39.217  0.5251 -0.0888 -0.4696
 3330DPPC   C2A61650  22.571  16.670  38.840  0.0469 -0.2882  0.1389
 3330DPPC   C3A61651  22.404  16.416  38.459  0.1361 -0.0079  0.0605
 3330DPPC   C4A61652  22.561  16.302  38.153 -0.4061 -0.0577  0.0872
 3330DPPC   C1B61653  22.600  16.022  39.435 -0.1148  0.0282 -0.0239
 3330DPPC   C2B61654  22.354  15.640  39.217  0.1444  0.3629 -0.0520
 3330DPPC   C3B61655  22.116  15.717  38.939 -0.2848 -0.1311 -0.2384
 3330DPPC   C4B61656  21.709  15.441  38.690  0.1710 -0.0248 -0.1819
 3331DPPC   NC361657   0.719   8.060  30.512  0.1435  0.1905 -0.4189
 3331DPPC   PO461658   0.246   7.923  30.776  0.3075  0.2323 -0.0549
 3331DPPC   GL161659  26.955   8.222  30.489  0.0764 -0.0863 -0.0714
 3331DPPC   GL261660  26.821   7.958  30.439  0.2410 -0.0364 -0.2993
 3331DPPC   C1A61661  26.566   8.541  30.463  0.2288 -0.3576 -0.0094
 3331DPPC   C2A61662  26.124   8.574  30.501  0.0068 -0.0320 -0.5828
 3331DPPC   C3A61663  25.787   8.815  30.577 -0.4303  0.0092 -0.0426
 3331DPPC   C4A61664  25.358   8.967  30.811  0.1116 -0.0838  0.1180
 3331DPPC   C1B61665  26.319   8.055  30.389  0.0668  0.1607  0.0326
 3331DPPC   C2B61666  25.886   8.179  30.406  0.1503 -0.0335  0.0058
 3331DPPC   C3B61667  25.540   8.330  30.390 -0.2587  0.0970  0.0681
 3331DPPC   C4B61668  25.346   8.694  30.373 -0.3212  0.0943 -0.2932
 3332DPPC   NC361669  25.615  17.023  36.857 -0.1537 -0.0043  0.2830
 3332DPPC   PO461670  25.797  16.668  36.858  0.1889 -0.0468  0.0335
 3332DPPC   GL161671  25.343  16.556  36.778 -0.2908  0.0717  0.1072
 3332DPPC   GL261672  25.303  16.236  36.974  0.1823 -0.0754 -0.3631
 3332DPPC   C1A61673  24.980  16.735  36.612 -0.1398 -0.0482  0.0274
 3332DPPC   C2A61674  24.658  16.764  36.404  0.1397 -0.1192  0.0064
 3332DPPC   C3A61675  24.295  16.662  36.192  0.0114 -0.1640  0.0012
 3332DPPC   C4A61676  23.932  16.726  35.871  0.2671 -0.2269 -0.2674
 3332DPPC   C1B61677  24.864  16.068  36.974  0.2577  0.1419  0.1239
 3332DPPC   C2B61678  24.600  15.856  36.747 -0.0510  0.1172 -0.2084
 3332DPPC   C3B61679  24.666  15.719  36.303 -0.2613  0.2467 -0.0009
 3332DPPC   C4B61680  24.955  15.968  36.034  0.1202  0.1314 -0.0195
 3333DPPC   NC361681  17.725  16.261  23.799 -0.3446 -0.1743  0.0511
 3333DPPC   PO461682  18.195  16.381  23.982  0.1404 -0.1292  0.0984
 3333DPPC   GL161683  18.478  16.112  24.223  0.0289 -0.0259 -0.2167
 3333DPPC   GL261684  18.370  15.853  24.153  0.1739  0.2995  0.2865
 3333DPPC   C1A61685  18.766  15.827  24.484 -0.1314  0.0361 -0.1595
 3333DPPC   C2A61686  18.896  15.578  24.740 -0.2575 -0.1123 -0.1782
 3333DPPC   C3A61687  19.141  15.258  24.868  0.2376 -0.2884  0.2893
 3333DPPC   C4A61688  19.181  14.998  25.086 -0.0295  0.3030 -0.1303
 3333DPPC   C1B61689  18.297  15.744  24.570 -0.0554 -0.0958 -0.1652
 3333DPPC   C2B61690  18.470  15.403  24.869 -0.1429  0.0864 -0.0572
 3333DPPC   C3B61691  18.769  15.462  25.251  0.2215 -0.0084  0.4247
 3333DPPC   C4B61692  18.537  15.754  25.572  0.1153 -0.1023  0.0215
 3334DPPC   NC361693   0.475  11.005  34.756  0.1575  0.1683  0.0800
 3334DPPC   PO461694   0.155  10.780  34.861 -0.1562 -0.1002  0.0947
 3334DPPC   GL161695  26.749  10.800  34.971 -0.2644  0.3344 -0.0749
 3334DPPC   GL261696  26.749  10.540  34.706 -0.0813  0.2220  0.3132
 3334DPPC   C1A61697  26.497  11.122  34.881 -0.2856  0.1384 -0.1340
 3334DPPC   C2A61698  26.132  11.220  34.790 -0.0487 -0.2349  0.3166
 3334DPPC   C3A61699  25.866  11.256  34.471  0.1422 -0.1638  0.0187
 3334DPPC   C4A61700  25.591  11.544  34.441 -0.0842  0.0234  0.0145
 3334DPPC   C1B61701  26.411  10.684  34.574 -0.0674 -0.2789  0.1295
 3334DPPC   C2B61702  26.055  10.822  34.437 -0.0147  0.2735  0.0168
 3334DPPC   C3B61703  25.790  10.777  34.190  0.1355  0.3411  0.0700
 3334DPPC   C4B61704  25.448  11.149  34.146 -0.1648  0.1438  0.2307
 3335DPPC   NC361705  20.400   1.036  34.322 -0.1087  0.2767  0.3692
 3335DPPC   PO461706  19.954   1.220  34.505  0.0478  0.3636  0.2633
 3335DPPC   GL161707  20.036   1.487  34.350  0.1585 -0.1075 -0.0063
 3335DPPC   GL261708  19.934   1.744  34.515  0.0083 -0.1063  0.0191
 3335DPPC   C1A61709  20.186   1.842  34.128 -0.0356 -0.5164  0.0492
 3335DPPC   C2A61710  20.077   2.355  34.014  0.0019 -0.2544 -0.2809
 3335DPPC   C3A61711  19.857   2.745  34.011 -0.2190  0.0736 -0.0809
 3335DPPC   C4A61712  19.726   3.076  34.076 -0.0190 -0.0863 -0.0829
 3335DPPC   C1B61713  19.712   2.047  34.413  0.0252 -0.0375  0.0201
 3335DPPC   C2B61714  19.532   2.091  34.071 -0.4532 -0.0464 -0.0389
 3335DPPC   C3B61715  19.514   2.366  33.698 -0.1368 -0.3097  0.2004
 3335DPPC   C4B61716  19.518   2.816  33.645  0.1156  0.1559 -0.1396
 3336DPPC   NC361717  19.112  13.716  23.091  0.0398  0.0270  0.0799
 3336DPPC   PO461718  19.240  13.666  23.539 -0.2489 -0.0579  0.0255
 3336DPPC   GL161719  19.018  13.956  23.876  0.3224 -0.0757 -0.0631
 3336DPPC   GL261720  18.877  14.255  23.770 -0.2235 -0.1538 -0.0650
 3336DPPC   C1A61721  18.793  14.127  24.242 -0.1275  0.1683 -0.0611
 3336DPPC   C2A61722  19.018  14.253  24.591  0.1482  0.2843 -0.1918
 3336DPPC   C3A61723  19.185  14.461  25.005 -0.3429  0.2386  0.0950
 3336DPPC   C4A61724  19.315  14.211  25.435 -0.1899 -0.0675 -0.0086
 3336DPPC   C1B61725  18.696  14.587  23.921 -0.1262  0.0202 -0.2251
 3336DPPC   C2B61726  18.403  14.784  24.137 -0.1736 -0.4858 -0.2412
 3336DPPC   C3B61727  17.909  14.870  24.073 -0.2298  0.0774  0.1015
 3336DPPC   C4B61728  17.535  14.740  23.992 -0.0291 -0.1481  0.1717
 3337DPPC   NC361729  25.942  12.887  19.593 -0.1787 -0.0467 -0.3005
 3337DPPC   PO461730  25.915  12.701  19.956 -0.0231 -0.2044 -0.0626
 3337DPPC   GL161731  25.441  12.767  20.270  0.1852  0.3186 -0.2837
 3337DPPC   GL261732  25.202  12.603  20.102 -0.5638 -0.1000 -0.2226
 3337DPPC   C1A61733  25.052  12.909  20.518  0.0518  0.1819 -0.3864
 3337DPPC   C2A61734  24.648  12.789  20.726 -0.0199  0.6259 -0.1234
 3337DPPC   C3A61735  24.303  12.793  21.002 -0.2278  0.0790 -0.0607
 3337DPPC   C4A61736  23.839  12.785  20.981 -0.0985  0.1153  0.3536
 3337DPPC   C1B61737  24.977  12.608  19.734  0.0781  0.0606 -0.1729
 3337DPPC   C2B61738  24.606  12.333  19.685 -0.0563 -0.0015 -0.1449
 3337DPPC   C3B61739  24.312  12.261  19.886  0.3069  0.1800 -0.1384
 3337DPPC   C4B61740  23.756  12.175  19.813 -0.0066  0.1869  0.0084
 3338DPPC   NC361741   4.983  20.366  29.369 -0.1061  0.0776  0.0563
 3338DPPC   PO461742   4.977  20.447  29.769  0.2545  0.0752 -0.1476
 3338DPPC   GL161743   5.055  19.980  29.809 -0.1977  0.2164  0.2838
 3338DPPC   GL261744   5.014  19.898  29.531  0.2136  0.2393  0.2212
 3338DPPC   C1A61745   5.445  19.819  29.769 -0.3432 -0.0773 -0.2715
 3338DPPC   C2A61746   5.880  20.077  29.886 -0.0877 -0.0792  0.1337
 3338DPPC   C3A61747   5.906  20.293  30.260 -0.0036  0.0323  0.2115
 3338DPPC   C4A61748   5.562  20.324  30.470 -0.1590 -0.3135 -0.0121
 3338DPPC   C1B61749   5.152  19.417  29.574  0.1553  0.0703  0.0941
 3338DPPC   C2B61750   5.430  19.189  29.760  0.0006 -0.2759  0.1117
 3338DPPC   C3B61751   5.794  19.051  29.646  0.0155 -0.3524 -0.3514
 3338DPPC   C4B61752   5.944  18.723  29.936  0.1583  0.1369 -0.3044
 3339DPPC   NC361753  24.899  16.186  39.054  0.0684  0.0593 -0.1577
 3339DPPC   PO461754  24.571  16.534  38.964  0.1254  0.2308  0.0873
 3339DPPC   GL161755  24.294  16.245  38.899 -0.0310  0.1812 -0.0162
 3339DPPC   GL261756  24.120  16.358  38.584  0.1909  0.0297  0.1040
 3339DPPC   C1A61757  24.376  15.892  38.724  0.0181 -0.0865  0.3180
 3339DPPC   C2A61758  24.350  15.554  38.856 -0.3873  0.1379 -0.2029
 3339DPPC   C3A61759  23.925  15.387  38.702  0.0206  0.2147 -0.2620
 3339DPPC   C4A61760  23.653  15.075  38.455 -0.1954  0.2038  0.2042
 3339DPPC   C1B61761  23.665  16.326  38.757 -0.0055  0.1809 -0.0073
 3339DPPC   C2B61762  23.548  16.354  38.355 -0.2059 -0.2071 -0.2785
 3339DPPC   C3B61763  23.398  15.980  38.220 -0.0675  0.2403 -0.3335
 3339DPPC   C4B61764  23.519  15.618  38.480 -0.1880  0.0740 -0.1141
 3340DPPC   NC361765   5.709   7.954  35.727  0.0135 -0.0497 -0.0975
 3340DPPC   PO461766   5.728   8.330  35.971  0.0430  0.1031 -0.5853
 3340DPPC   GL161767   6.143   8.277  35.779 -0.0483  0.2011 -0.2145
 3340DPPC   GL261768   6.288   8.023  35.613  0.1814  0.0391  0.2049
 3340DPPC   C1A61769   6.553   8.456  35.825 -0.1339 -0.3102 -0.2335
 3340DPPC   C2A61770   7.018   8.496  35.898 -0.2425  0.0328 -0.2039
 3340DPPC   C3A61771   7.126   8.922  35.941  0.5217  0.2049 -0.3083
 3340DPPC   C4A61772   6.995   9.278  35.980  0.1461  0.1624 -0.0757
 3340DPPC   C1B61773   6.751   8.011  35.639  0.0637  0.0331 -0.1212
 3340DPPC   C2B61774   7.198   8.099  35.696 -0.0698 -0.1597 -0.1464
 3340DPPC   C3B61775   7.584   8.259  35.597 -0.0409 -0.3263 -0.0050
 3340DPPC   C4B61776   7.745   8.495  35.526 -0.0362 -0.4612  0.0227
 3341DPPC   NC361777  25.328  11.570  19.619 -0.0352 -0.0307  0.2136
 3341DPPC   PO461778  25.215  11.352  19.225 -0.2120 -0.1194 -0.3153
 3341DPPC   GL161779  24.945  11.163  19.459 -0.4437 -0.0932 -0.5577
 3341DPPC   GL261780  24.719  11.314  19.643  0.1458  0.1825 -0.1063
 3341DPPC   C1A61781  24.514  10.928  19.478  0.1858 -0.0562 -0.0362
 3341DPPC   C2A61782  24.116  10.808  19.714 -0.0008  0.5179  0.1373
 3341DPPC   C3A61783  23.871  11.002  19.935 -0.0503  0.0308 -0.0371
 3341DPPC   C4A61784  23.474  11.259  20.111 -0.3576 -0.1187  0.1591
 3341DPPC   C1B61785  24.337  11.257  19.880  0.0713  0.0740 -0.0920
 3341DPPC   C2B61786  24.267  11.420  20.305  0.1386 -0.0749 -0.1968
 3341DPPC   C3B61787  23.812  11.381  20.471 -0.0529 -0.0149 -0.0047
 3341DPPC   C4B61788  23.342  11.298  20.568 -0.4072  0.2082  0.0651
 3342DPPC   NC361789  19.510   9.874  19.349  0.2138  0.0337 -0.1500
 3342DPPC   PO461790  19.047   9.934  19.247  0.0678 -0.1461 -0.0818
 3342DPPC   GL161791  19.211   9.877  18.896 -0.2376 -0.3098 -0.4300
 3342DPPC   GL261792  19.171   9.548  18.917 -0.0895  0.0868  0.2346
 3342DPPC   C1A61793  19.165   9.980  18.497  0.1063 -0.2337  0.0328
 3342DPPC   C2A61794  18.823   9.884  18.131  0.1162 -0.4747  0.1012
 3342DPPC   C3A61795  18.567   9.820  17.701  0.0804  0.0384  0.3545
 3342DPPC   C4A61796  18.219   9.698  17.460 -0.2689 -0.0735 -0.0043
 3342DPPC   C1B61797  19.252   9.202  18.655  0.0979  0.0095  0.3578
 3342DPPC   C2B61798  19.267   8.882  18.419  0.1316  0.1512 -0.2565
 3342DPPC   C3B61799  19.297   8.654  18.060 -0.1804  0.3601 -0.0790
 3342DPPC   C4B61800  19.408   8.270  17.891 -0.2467  0.0964 -0.1181
 3343DPPC   NC361801  24.252  16.129  23.668  0.2645 -0.1596 -0.0603
 3343DPPC   PO461802  24.259  16.437  23.367 -0.2184  0.2170 -0.0868
 3343DPPC   GL161803  23.924  16.309  23.219 -0.0476 -0.0663  0.2270
 3343DPPC   GL261804  23.879  15.992  23.215  0.2956  0.2893 -0.2270
 3343DPPC   C1A61805  23.493  16.347  23.284 -0.0659  0.0215 -0.1483
 3343DPPC   C2A61806  23.057  16.114  23.501 -0.2014  0.0966  0.1231
 3343DPPC   C3A61807  23.092  15.895  23.962 -0.0559  0.2684 -0.0098
 3343DPPC   C4A61808  23.384  15.535  23.997  0.3873 -0.0258 -0.3446
 3343DPPC   C1B61809  23.857  15.636  23.576 -0.0190  0.1797 -0.2974
 3343DPPC   C2B61810  23.796  15.292  23.903 -0.1385 -0.1993 -0.0244
 3343DPPC   C3B61811  23.527  14.885  24.091 -0.4873 -0.0035 -0.3884
 3343DPPC   C4B61812  23.204  14.580  24.078 -0.1766 -0.2566 -0.0165
 3344DPPC   NC361813  19.483  11.990  19.136  0.0902 -0.0975  0.0250
 3344DPPC   PO461814  19.080  12.017  19.261 -0.0647 -0.2678 -0.1984
 3344DPPC   GL161815  19.075  11.815  18.873 -0.1264  0.3508 -0.1546
 3344DPPC   GL261816  19.112  11.394  18.788  0.1818 -0.0120 -0.3272
 3344DPPC   C1A61817  19.099  11.762  18.468 -0.1989 -0.0970  0.0063
 3344DPPC   C2A61818  19.133  12.118  18.142  0.3979 -0.0781  0.1780
 3344DPPC   C3A61819  19.376  12.216  17.797  0.1322  0.1712 -0.1071
 3344DPPC   C4A61820  19.488  12.545  17.544  0.0603  0.1634 -0.1961
 3344DPPC   C1B61821  19.060  11.357  18.235  0.3914 -0.1674  0.0719
 3344DPPC   C2B61822  18.931  11.764  17.933  0.0348 -0.0369  0.2646
 3344DPPC   C3B61823  19.325  11.728  17.804  0.4432  0.2356 -0.0406
 3344DPPC   C4B61824  19.579  11.895  18.179 -0.2206  0.0537 -0.4702
 3345DPPC   NC361825  11.572  12.410  17.007  0.0925  0.0955 -0.1280
 3345DPPC   PO461826  11.408  12.022  17.098  0.2225  0.1558  0.0742
 3345DPPC   GL161827  11.659  12.220  17.443  0.1922 -0.2099  0.2556
 3345DPPC   GL261828  11.529  12.326  17.627 -0.0124 -0.0478 -0.1869
 3345DPPC   C1A61829  12.030  12.373  17.589 -0.1847 -0.2088 -0.0917
 3345DPPC   C2A61830  12.305  12.328  17.725 -0.1806 -0.2619 -0.1435
 3345DPPC   C3A61831  12.623  12.087  17.929 -0.1323 -0.0510 -0.0429
 3345DPPC   C4A61832  12.822  12.106  18.297  0.1524  0.0284 -0.1374
 3345DPPC   C1B61833  11.236  12.195  17.998  0.2607  0.0730  0.0096
 3345DPPC   C2B61834  11.117  11.817  18.245 -0.2779 -0.1327  0.0023
 3345DPPC   C3B61835  11.159  11.794  18.609  0.1847  0.0962 -0.1970
 3345DPPC   C4B61836  11.546  11.855  18.864 -0.1122 -0.0252 -0.1822
 3346DPPC   NC361837  16.443  15.986  19.667  0.1853 -0.2921 -0.0247
 3346DPPC   PO461838  16.474  16.417  19.805 -0.2639  0.4508  0.1164
 3346DPPC   GL161839  16.384  16.806  19.580  0.0134  0.3391 -0.0293
 3346DPPC   GL261840  16.664  16.828  19.486  0.0321 -0.0401  0.0303
 3346DPPC   C1A61841  16.106  17.171  19.379  0.3950  0.1366  0.1412
 3346DPPC   C2A61842  15.803  17.205  19.070 -0.1071  0.1071  0.2345
 3346DPPC   C3A61843  15.525  17.631  18.875 -0.1646 -0.2619 -0.1363
 3346DPPC   C4A61844  15.135  17.574  18.617 -0.0868 -0.0164 -0.1774
 3346DPPC   C1B61845  16.524  16.760  18.994  0.1597  0.1756 -0.0179
 3346DPPC   C2B61846  16.277  16.736  18.579  0.1991 -0.0290 -0.0445
 3346DPPC   C3B61847  15.882  16.395  18.513  0.2765 -0.2253 -0.1321
 3346DPPC   C4B61848  15.458  16.427  18.745 -0.1773  0.2659  0.1814
 3347DPPC   NC361849  24.836  16.983  24.937  0.0568  0.1059 -0.1367
 3347DPPC   PO461850  24.495  16.825  24.801  0.3208 -0.2085  0.0041
 3347DPPC   GL161851  24.169  16.679  25.053  0.0182 -0.0863 -0.1442
 3347DPPC   GL261852  24.029  16.890  25.206  0.0809  0.0803  0.0919
 3347DPPC   C1A61853  23.957  16.343  25.081 -0.1120  0.2166  0.0165
 3347DPPC   C2A61854  23.444  16.218  25.137  0.0583 -0.0090  0.2310
 3347DPPC   C3A61855  23.023  16.076  25.083  0.1630 -0.4007 -0.3643
 3347DPPC   C4A61856  22.615  15.943  25.144 -0.0638  0.1836 -0.0677
 3347DPPC   C1B61857  23.600  16.727  24.990  0.2735 -0.1545  0.4111
 3347DPPC   C2B61858  23.399  16.418  24.703 -0.1166 -0.1280  0.1346
 3347DPPC   C3B61859  23.276  16.196  24.407  0.0901  0.1060 -0.2093
 3347DPPC   C4B61860  23.649  16.028  24.191  0.3247  0.2014  0.1068
 3348DPPC   NC361861  17.105  16.001  23.764  0.0497  0.1458 -0.0100
 3348DPPC   PO461862  17.488  15.859  23.736 -0.2244 -0.3229  0.3487
 3348DPPC   GL161863  17.527  15.692  24.119 -0.3932  0.0330 -0.2845
 3348DPPC   GL261864  17.376  15.346  24.123 -0.2133 -0.0048  0.0791
 3348DPPC   C1A61865  17.821  15.514  24.455  0.2638  0.2790 -0.0932
 3348DPPC   C2A61866  17.932  15.412  24.862 -0.0409  0.0945  0.0983
 3348DPPC   C3A61867  18.193  15.163  25.141 -0.0399 -0.3447  0.1351
 3348DPPC   C4A61868  18.506  15.027  25.365 -0.0382  0.1560 -0.1574
 3348DPPC   C1B61869  17.538  15.071  24.474  0.0737 -0.2946 -0.1023
 3348DPPC   C2B61870  17.710  14.645  24.512  0.0839  0.2417 -0.3010
 3348DPPC   C3B61871  17.797  14.442  24.904 -0.1100  0.1328 -0.4984
 3348DPPC   C4B61872  18.130  14.238  24.936  0.1191 -0.3371 -0.0270
 3349DPPC   NC361873  20.985  14.746  27.325 -0.0514  0.2109 -0.3956
 3349DPPC   PO461874  21.313  14.789  27.140  0.2044  0.0141 -0.0273
 3349DPPC   GL161875  21.763  15.003  26.984  0.1832  0.0037  0.0472
 3349DPPC   GL261876  21.833  15.236  27.052  0.1842  0.3281  0.0741
 3349DPPC   C1A61877  22.267  15.013  27.155 -0.1600 -0.0570  0.2175
 3349DPPC   C2A61878  22.683  15.003  27.090 -0.3378  0.3677  0.2468
 3349DPPC   C3A61879  23.128  15.127  27.014 -0.3884  0.1212  0.2825
 3349DPPC   C4A61880  23.207  15.607  27.094  0.0097  0.0765  0.1649
 3349DPPC   C1B61881  22.185  15.569  26.933 -0.2997  0.1687  0.1715
 3349DPPC   C2B61882  22.396  15.565  26.691  0.1036  0.2164  0.0389
 3349DPPC   C3B61883  22.451  15.430  26.129 -0.0066 -0.2603  0.1861
 3349DPPC   C4B61884  22.446  15.594  25.714 -0.0384  0.4311  0.0666
 3350DPPC   NC361885   8.121   4.802  23.211  0.1040 -0.0290  0.2547
 3350DPPC   PO461886   8.378   4.593  23.422  0.2453  0.4790 -0.0854
 3350DPPC   GL161887   8.704   4.637  23.660 -0.1572 -0.0831  0.1092
 3350DPPC   GL261888   8.985   4.760  23.438  0.1602 -0.2554 -0.2412
 3350DPPC   C1A61889   9.046   4.725  24.087 -0.0319  0.0818 -0.2435
 3350DPPC   C2A61890   9.428   4.843  24.287  0.1515 -0.0169  0.1319
 3350DPPC   C3A61891   9.728   4.963  24.570  0.1040  0.0823  0.1847
 3350DPPC   C4A61892   9.964   4.755  24.955  0.0262  0.0869 -0.0840
 3350DPPC   C1B61893   9.358   4.815  23.701 -0.0565  0.1043 -0.0323
 3350DPPC   C2B61894   9.431   5.261  23.818 -0.1238 -0.2985 -0.2104
 3350DPPC   C3B61895   9.511   5.760  23.843 -0.0036 -0.1156 -0.0556
 3350DPPC   C4B61896   9.934   5.757  23.944  0.2509  0.1414 -0.4800
 3351DPPC   NC361897  23.040  18.464  20.588  0.0073 -0.2701  0.0665
 3351DPPC   PO461898  22.636  18.301  20.255 -0.2620  0.4257  0.0702
 3351DPPC   GL161899  22.342  17.936  20.328  0.2065  0.0229 -0.2885
 3351DPPC   GL261900  22.073  17.927  20.084 -0.1619 -0.0554 -0.0758
 3351DPPC   C1A61901  21.901  17.836  20.557 -0.4446 -0.0477  0.0414
 3351DPPC   C2A61902  21.638  17.548  20.640  0.6575  0.1996  0.2932
 3351DPPC   C3A61903  21.265  17.357  20.597 -0.3473 -0.1705  0.1968
 3351DPPC   C4A61904  20.867  17.185  20.829 -0.0528  0.0357 -0.2308
 3351DPPC   C1B61905  21.789  17.594  20.027 -0.2456 -0.0498  0.0717
 3351DPPC   C2B61906  21.473  17.450  20.157 -0.2406  0.2839 -0.3131
 3351DPPC   C3B61907  21.492  16.970  20.147 -0.1062  0.2406 -0.0700
 3351DPPC   C4B61908  21.231  16.678  19.895 -0.2158  0.0441 -0.0279
 3352DPPC   NC361909  13.346  24.721  34.140 -0.0333 -0.0508 -0.1767
 3352DPPC   PO461910  13.249  24.774  33.641  0.1922 -0.1643  0.1078
 3352DPPC   GL161911  13.250  24.397  33.302  0.0153 -0.2446 -0.0252
 3352DPPC   GL261912  13.202  24.128  33.042 -0.1378  0.1495 -0.2459
 3352DPPC   C1A61913  13.604  23.925  33.277  0.3546 -0.1882 -0.2038
 3352DPPC   C2A61914  13.369  23.480  33.381 -0.0975 -0.1562 -0.1021
 3352DPPC   C3A61915  13.294  23.152  33.060 -0.2376 -0.2152 -0.0994
 3352DPPC   C4A61916  13.317  22.970  32.651  0.1143 -0.2293 -0.0746
 3352DPPC   C1B61917  13.417  23.675  32.849 -0.0901 -0.2831 -0.1287
 3352DPPC   C2B61918  13.725  23.380  32.620  0.0146 -0.1519 -0.0705
 3352DPPC   C3B61919  14.071  23.101  32.705 -0.2624  0.0228 -0.2271
 3352DPPC   C4B61920  13.983  22.623  32.494 -0.0177  0.0672  0.1309
 3353DPPC   NC361921  19.504  10.920  43.317 -0.1869 -0.3873 -0.0775
 3353DPPC   PO461922  18.972  10.888  43.242 -0.2787  0.1032 -0.2434
 3353DPPC   GL161923  19.028  11.165  42.900  0.0301 -0.1917  0.0714
 3353DPPC   GL261924  18.819  11.503  42.935  0.1181  0.3858 -0.1397
 3353DPPC   C1A61925  19.053  11.213  42.469  0.1659 -0.0042  0.0104
 3353DPPC   C2A61926  19.134  11.319  42.100 -0.2396 -0.0535 -0.1439
 3353DPPC   C3A61927  19.347  11.583  41.771  0.2198 -0.4670  0.2140
 3353DPPC   C4A61928  19.526  11.603  41.364 -0.1390  0.0037  0.0813
 3353DPPC   C1B61929  18.775  11.740  42.664  0.1415 -0.0158  0.4379
 3353DPPC   C2B61930  18.990  11.815  42.319 -0.0465  0.0492 -0.1543
 3353DPPC   C3B61931  19.053  11.944  41.944 -0.0919  0.0755 -0.0979
 3353DPPC   C4B61932  19.073  11.904  41.444  0.1513  0.0232  0.1038
 3354DPPC   NC361933  13.983  15.788  20.613 -0.4900 -0.0690 -0.2912
 3354DPPC   PO461934  14.367  15.808  20.575 -0.1237  0.0480 -0.3690
 3354DPPC   GL161935  14.238  15.971  20.118 -0.1310  0.1610  0.3282
 3354DPPC   GL261936  13.905  15.710  20.104 -0.3863 -0.1587  0.0761
 3354DPPC   C1A61937  14.229  16.217  19.699  0.1095 -0.3001 -0.5188
 3354DPPC   C2A61938  14.051  16.528  19.494 -0.0418  0.2537  0.0079
 3354DPPC   C3A61939  14.008  16.505  19.094 -0.0553 -0.2181  0.2243
 3354DPPC   C4A61940  13.663  16.437  18.631  0.1368  0.2255  0.1457
 3354DPPC   C1B61941  13.809  15.921  19.752  0.1681  0.1677 -0.3371
 3354DPPC   C2B61942  13.918  16.005  19.367  0.3435  0.2421 -0.1733
 3354DPPC   C3B61943  13.638  16.048  19.023 -0.0232  0.0071 -0.1539
 3354DPPC   C4B61944  13.423  15.990  18.634 -0.2448  0.2752 -0.2435
 3355DPPC   NC361945  17.916  14.378  19.066  0.0144  0.0906 -0.3249
 3355DPPC   PO461946  17.598  13.983  19.136 -0.0217 -0.1281 -0.0298
 3355DPPC   GL161947  17.519  14.129  18.642  0.1410  0.5065 -0.0725
 3355DPPC   GL261948  17.793  14.478  18.604 -0.0765 -0.0269 -0.0180
 3355DPPC   C1A61949  17.488  14.037  18.206 -0.2722  0.2879  0.2450
 3355DPPC   C2A61950  17.482  14.292  17.818  0.2365 -0.0959  0.2016
 3355DPPC   C3A61951  17.912  14.186  17.569  0.1059 -0.0120 -0.0185
 3355DPPC   C4A61952  18.137  13.893  17.230 -0.1271 -0.0874  0.0967
 3355DPPC   C1B61953  17.632  14.630  18.284  0.1297  0.1511 -0.0543
 3355DPPC   C2B61954  17.423  14.917  17.955 -0.0825 -0.0290  0.2134
 3355DPPC   C3B61955  17.608  15.021  17.603  0.2165 -0.2117 -0.2560
 3355DPPC   C4B61956  17.851  14.673  17.379 -0.1213 -0.1023  0.3061
 3356DPPC   NC361957  11.947  14.739  16.847 -0.1460  0.0098 -0.0477
 3356DPPC   PO461958  12.173  14.590  16.513  0.2222  0.0505  0.5022
 3356DPPC   GL161959  12.425  14.431  16.860  0.5044 -0.0282  0.1958
 3356DPPC   GL261960  12.660  14.522  16.801 -0.2323 -0.2062 -0.2616
 3356DPPC   C1A61961  12.471  14.566  17.328  0.0740  0.2358  0.1030
 3356DPPC   C2A61962  12.406  14.559  17.709 -0.0247 -0.0191  0.0811
 3356DPPC   C3A61963  12.567  14.516  18.077 -0.5593  0.4026 -0.3514
 3356DPPC   C4A61964  12.856  14.390  18.454  0.5987 -0.0799  0.3252
 3356DPPC   C1B61965  12.945  14.574  17.179  0.1608 -0.0968 -0.0187
 3356DPPC   C2B61966  12.916  14.501  17.699 -0.0253 -0.0353  0.2350
 3356DPPC   C3B61967  13.213  14.380  18.015 -0.2233 -0.0681  0.2419
 3356DPPC   C4B61968  13.358  14.261  18.426  0.5067 -0.2513  0.0933
 3357DPPC   NC361969  26.292  14.002  37.674 -0.2977  0.0310 -0.0978
 3357DPPC   PO461970  26.230  13.605  37.880  0.1122 -0.1161  0.0131
 3357DPPC   GL161971  25.937  13.298  37.812 -0.0494 -0.0394  0.0272
 3357DPPC   GL261972  25.903  13.197  37.532  0.3349  0.1280 -0.2092
 3357DPPC   C1A61973  25.568  13.112  37.845  0.1631  0.0510 -0.1496
 3357DPPC   C2A61974  25.167  13.129  37.702  0.0329 -0.1032  0.0741
 3357DPPC   C3A61975  24.781  13.007  37.407  0.1225  0.1101  0.3343
 3357DPPC   C4A61976  24.495  13.083  37.278 -0.1192 -0.0712  0.3018
 3357DPPC   C1B61977  25.523  13.004  37.304 -0.0259 -0.0444  0.0230
 3357DPPC   C2B61978  25.058  12.789  37.084 -0.0661 -0.1998 -0.3634
 3357DPPC   C3B61979  24.636  12.887  36.875 -0.3281 -0.0399  0.1415
 3357DPPC   C4B61980  24.427  13.342  36.726 -0.2457  0.0454  0.0908
 3358DPPC   NC361981   3.958  12.450  35.613  0.0613  0.1513 -0.4685
 3358DPPC   PO461982   3.972  12.953  35.652 -0.1898 -0.1437 -0.3465
 3358DPPC   GL161983   4.292  12.716  35.396 -0.1250 -0.0772 -0.1754
 3358DPPC   GL261984   4.423  12.512  35.470  0.2843  0.0445 -0.2380
 3358DPPC   C1A61985   4.557  12.886  35.158 -0.1078 -0.0184 -0.0545
 3358DPPC   C2A61986   4.968  12.904  34.924  0.2933  0.1511 -0.0509
 3358DPPC   C3A61987   5.295  12.716  34.705  0.0378  0.0787  0.1615
 3358DPPC   C4A61988   5.491  12.476  34.420  0.1869  0.0095  0.0255
 3358DPPC   C1B61989   4.781  12.565  35.719 -0.0840  0.0187  0.1255
 3358DPPC   C2B61990   5.246  12.579  35.676  0.1685  0.0905 -0.0723
 3358DPPC   C3B61991   5.681  12.584  35.669  0.0347  0.3403  0.0672
 3358DPPC   C4B61992   6.118  12.334  35.500 -0.2367 -0.0916 -0.1568
 3359DPPC   NC361993  18.292   9.732  14.997 -0.1026  0.0681  0.0230
 3359DPPC   PO461994  18.447   9.744  15.378  0.2374 -0.0441 -0.1859
 3359DPPC   GL161995  18.555   9.820  15.746 -0.1483  0.2548  0.1126
 3359DPPC   GL261996  18.832  10.027  15.730 -0.0973 -0.0134  0.1534
 3359DPPC   C1A61997  18.387  10.184  15.917  0.0883  0.1716 -0.1241
 3359DPPC   C2A61998  18.119  10.240  16.298 -0.1311 -0.1736  0.1882
 3359DPPC   C3A61999  18.102  10.322  16.771 -0.1359  0.1099  0.2033
 3359DPPC   C4A62000  17.796  10.330  17.086  0.1332  0.0083 -0.2231
 3359DPPC   C1B62001  18.992   9.640  15.913  0.0950  0.1724 -0.0941
 3359DPPC   C2B62002  18.732   9.427  16.191 -0.1874  0.1448 -0.0762
 3359DPPC   C3B62003  18.341   9.387  16.077  0.0519  0.0844 -0.0113
 3359DPPC   C4B62004  17.962   9.256  16.245 -0.2321 -0.4696  0.2390
 3360DPPC   NC362005  17.636   9.124  15.386  0.2100 -0.2124 -0.1587
 3360DPPC   PO462006  17.378   9.422  15.171 -0.2315 -0.0742  0.3076
 3360DPPC   GL162007  17.328   9.628  15.595 -0.0917  0.0471 -0.0182
 3360DPPC   GL262008  17.576   9.462  15.783 -0.1074  0.0638  0.2109
 3360DPPC   C1A62009  17.297   9.758  16.017 -0.3428 -0.1653  0.0312
 3360DPPC   C2A62010  16.947   9.648  16.193 -0.1452 -0.3413 -0.0041
 3360DPPC   C3A62011  16.750   9.868  16.606  0.1453  0.0878  0.1166
 3360DPPC   C4A62012  16.753   9.769  16.973 -0.0531  0.1703  0.2416
 3360DPPC   C1B62013  17.609   9.959  15.729  0.3012  0.0010 -0.1924
 3360DPPC   C2B62014  17.716  10.277  15.870 -0.0428 -0.2340  0.1273
 3360DPPC   C3B62015  17.660  10.524  16.181 -0.0589  0.1364  0.0700
 3360DPPC   C4B62016  17.681  10.763  16.605  0.1193 -0.0996  0.0203
 3361DPPC   NC362017  14.119   2.053  21.371 -0.1377 -0.0657 -0.1543
 3361DPPC   PO462018  14.561   2.265  21.409  0.0071 -0.1956  0.2173
 3361DPPC   GL162019  14.692   2.508  21.758  0.0392 -0.1461 -0.0597
 3361DPPC   GL262020  15.023   2.510  21.688  0.0754  0.2346  0.0661
 3361DPPC   C1A62021  14.555   2.892  21.878 -0.2744 -0.0016 -0.4614
 3361DPPC   C2A62022  14.410   3.106  22.164  0.0944 -0.1490  0.2632
 3361DPPC   C3A62023  14.194   3.343  22.505  0.0205  0.2077 -0.0684
 3361DPPC   C4A62024  14.059   3.744  22.634 -0.2918 -0.1993 -0.0396
 3361DPPC   C1B62025  15.050   2.886  21.859 -0.0416 -0.0438 -0.0705
 3361DPPC   C2B62026  15.057   3.321  22.053  0.1407  0.1417 -0.1632
 3361DPPC   C3B62027  15.017   3.773  22.160  0.1407 -0.2229 -0.1802
 3361DPPC   C4B62028  15.045   4.180  22.300 -0.5714 -0.2809 -0.1367
 3362DPPC   NC362029  22.448  21.815  34.124  0.1919  0.4982 -0.2113
 3362DPPC   PO462030  22.058  21.738  34.280  0.4427 -0.0204 -0.1789
 3362DPPC   GL162031  21.721  21.461  34.288  0.2198  0.1357 -0.0636
 3362DPPC   GL262032  21.403  21.618  34.227  0.2452  0.2803  0.3255
 3362DPPC   C1A62033  21.402  21.062  34.201 -0.1217  0.2864  0.0744
 3362DPPC   C2A62034  21.216  20.876  33.950  0.1754  0.1786 -0.3145
 3362DPPC   C3A62035  21.110  20.491  33.987  0.2564  0.2997  0.0551
 3362DPPC   C4A62036  21.407  20.196  34.004 -0.0067 -0.4009 -0.6535
 3362DPPC   C1B62037  21.439  21.442  33.831  0.3865 -0.1372 -0.2319
 3362DPPC   C2B62038  21.460  21.052  33.595  0.1676 -0.2109  0.1449
 3362DPPC   C3B62039  21.610  20.601  33.756 -0.1890  0.2185  0.0095
 3362DPPC   C4B62040  21.733  20.192  33.648 -0.1748  0.1745  0.2771
 3363DPPC   NC362041  14.437  22.868  38.282 -0.0712 -0.0828 -0.0869
 3363DPPC   PO462042  14.864  23.067  38.139 -0.0063 -0.2948 -0.3412
 3363DPPC   GL162043  14.940  22.831  37.901 -0.1298 -0.1217  0.0419
 3363DPPC   GL262044  15.206  22.981  37.553 -0.9486  0.1754 -0.0854
 3363DPPC   C1A62045  14.896  22.476  37.671 -0.1718 -0.1455 -0.2988
 3363DPPC   C2A62046  14.699  22.149  37.576 -0.1723  0.0855  0.1385
 3363DPPC   C3A62047  14.692  21.733  37.312  0.2217  0.1035 -0.1250
 3363DPPC   C4A62048  14.642  21.482  36.857  0.1711  0.0024 -0.1816
 3363DPPC   C1B62049  15.352  22.548  37.519 -0.0377  0.1760  0.1103
 3363DPPC   C2B62050  15.503  22.120  37.364  0.0158 -0.0181  0.1806
 3363DPPC   C3B62051  15.607  21.805  37.162  0.0456 -0.0832 -0.0611
 3363DPPC   C4B62052  15.821  21.479  37.010 -0.0022 -0.0482 -0.3904
 3364DPPC   NC362053   9.539  22.315  22.677 -0.0654  0.0836  0.0008
 3364DPPC   PO462054   9.778  22.487  22.271  0.1853 -0.1022  0.3115
 3364DPPC   GL162055  10.074  22.313  22.417 -0.2529 -0.1716 -0.1561
 3364DPPC   GL262056  10.227  22.504  22.693 -0.2284  0.0157  0.0387
 3364DPPC   C1A62057  10.173  22.017  22.759 -0.3560 -0.1661  0.0400
 3364DPPC   C2A62058  10.301  21.939  23.149  0.3356 -0.0358  0.1119
 3364DPPC   C3A62059  10.541  21.613  23.284 -0.5768 -0.0308  0.0766
 3364DPPC   C4A62060  10.724  21.387  23.597 -0.0379  0.1668  0.3614
 3364DPPC   C1B62061  10.469  22.354  23.048  0.1155  0.0072 -0.0121
 3364DPPC   C2B62062  10.910  22.090  23.208  0.3170 -0.4004 -0.0015
 3364DPPC   C3B62063  11.412  22.013  23.334  0.0121  0.0614 -0.0753
 3364DPPC   C4B62064  11.604  21.746  23.676  0.3598  0.1314 -0.0433
 3365DPPC   NC362065  18.656  18.337  23.234  0.4637 -0.1508  0.5157
 3365DPPC   PO462066  18.722  17.990  23.456 -0.4153  0.2011 -0.1496
 3365DPPC   GL162067  19.095  18.321  23.623  0.0466  0.0034 -0.2561
 3365DPPC   GL262068  19.284  18.328  23.978 -0.1191  0.5081  0.2410
 3365DPPC   C1A62069  19.593  18.572  23.601  0.0310  0.0171  0.0120
 3365DPPC   C2A62070  20.063  18.582  23.572  0.1407 -0.1240 -0.0353
 3365DPPC   C3A62071  20.265  18.924  23.454  0.0155  0.0825  0.2304
 3365DPPC   C4A62072  20.444  19.234  23.197  0.0515  0.0332  0.0595
 3365DPPC   C1B62073  19.660  18.602  24.130 -0.1547  0.0742 -0.2005
 3365DPPC   C2B62074  19.749  19.091  24.263  0.4967 -0.0413  0.1997
 3365DPPC   C3B62075  19.868  19.472  24.222 -0.0266  0.0571 -0.1379
 3365DPPC   C4B62076  19.974  19.824  23.857  0.0995 -0.1683  0.0251
 3366DPPC   NC362077  16.362  19.443  24.260 -0.1327  0.1505 -0.2427
 3366DPPC   PO462078  16.730  19.767  24.348 -0.6700  0.1868  0.2806
 3366DPPC   GL162079  16.954  20.106  24.149  0.2191  0.0576 -0.0439
 3366DPPC   GL262080  17.158  20.219  24.309 -0.1285 -0.2097 -0.1045
 3366DPPC   C1A62081  16.787  20.480  24.157  0.0924 -0.0575 -0.0793
 3366DPPC   C2A62082  16.786  20.880  23.972  0.3005 -0.0460 -0.0201
 3366DPPC   C3A62083  16.890  21.246  23.700  0.3286 -0.0604  0.1437
 3366DPPC   C4A62084  17.138  21.566  23.599 -0.2347 -0.2310 -0.0150
 3366DPPC   C1B62085  17.516  20.487  24.181  0.1041  0.0096  0.1702
 3366DPPC   C2B62086  17.919  20.667  24.350 -0.0040 -0.0022 -0.1786
 3366DPPC   C3B62087  18.273  20.661  24.581 -0.0379  0.0459 -0.0153
 3366DPPC   C4B62088  18.686  20.645  24.473 -0.3463 -0.0552 -0.0815
 3367DPPC   NC362089  21.536  11.089  21.442  0.1908  0.1380  0.2098
 3367DPPC   PO462090  21.944  11.191  21.440  0.1672 -0.1712  0.0082
 3367DPPC   GL162091  22.325  11.308  21.380  0.0600  0.1400 -0.0129
 3367DPPC   GL262092  22.495  11.077  21.089  0.1529  0.0995  0.1959
 3367DPPC   C1A62093  22.673  11.678  21.364  0.0792  0.2128 -0.0625
 3367DPPC   C2A62094  22.991  11.874  21.172 -0.1509  0.1033 -0.1348
 3367DPPC   C3A62095  23.253  12.011  20.820 -0.1798 -0.3496 -0.1246
 3367DPPC   C4A62096  23.478  12.336  20.625  0.0597 -0.0939  0.0579
 3367DPPC   C1B62097  22.846  11.307  20.870  0.0633 -0.1215  0.2117
 3367DPPC   C2B62098  23.201  11.326  21.051  0.0862  0.1401 -0.1598
 3367DPPC   C3B62099  23.594  11.189  21.315  0.1967 -0.7117 -0.0145
 3367DPPC   C4B62100  24.044  11.004  21.216  0.1420 -0.0964  0.4092
 3368DPPC   NC362101  15.229  22.588  19.822 -0.2242 -0.0370  0.0524
 3368DPPC   PO462102  15.683  22.328  19.803  0.2601 -0.2766  0.2003
 3368DPPC   GL162103  15.513  22.239  20.079  0.2404 -0.0959  0.1187
 3368DPPC   GL262104  15.660  22.241  20.363  0.2546 -0.2681 -0.2642
 3368DPPC   C1A62105  15.211  21.912  20.230  0.2255  0.2069  0.0654
 3368DPPC   C2A62106  15.316  21.486  20.370  0.0006 -0.3674  0.1075
 3368DPPC   C3A62107  15.548  21.066  20.411 -0.1218  0.2381 -0.1224
 3368DPPC   C4A62108  15.636  20.684  20.763 -0.3473 -0.0056 -0.1757
 3368DPPC   C1B62109  15.685  21.926  20.630  0.2318  0.0944 -0.4128
 3368DPPC   C2B62110  15.549  21.736  20.966 -0.3250  0.0588 -0.1550
 3368DPPC   C3B62111  15.417  21.400  21.242  0.2346 -0.3457 -0.1223
 3368DPPC   C4B62112  15.377  21.187  21.659  0.0138  0.1557 -0.0736
 3369DPPC   NC362113  19.549   9.419  15.056 -0.0521 -0.0282  0.0992
 3369DPPC   PO462114  19.626   9.213  15.387  0.0972 -0.0514  0.0565
 3369DPPC   GL162115  19.421   9.515  15.615 -0.0757  0.2868  0.0138
 3369DPPC   GL262116  19.105   9.703  15.455 -0.0495  0.1938  0.0680
 3369DPPC   C1A62117  19.572   9.759  16.054 -0.1973 -0.0846 -0.3853
 3369DPPC   C2A62118  19.452  10.036  16.357  0.1781  0.2446  0.0160
 3369DPPC   C3A62119  19.293  10.061  16.781  0.2095  0.1264  0.2199
 3369DPPC   C4A62120  19.443  10.559  17.029 -0.0070 -0.0056  0.0488
 3369DPPC   C1B62121  19.338  10.003  15.739 -0.2383 -0.4901 -0.0113
 3369DPPC   C2B62122  19.577  10.283  15.947 -0.1415  0.2941 -0.1468
 3369DPPC   C3B62123  19.827  10.389  16.220  0.0262  0.1365  0.0508
 3369DPPC   C4B62124  19.659  10.807  16.414 -0.1554 -0.0852  0.0722
 3370DPPC   NC362125   7.238   8.292  22.394 -0.1580  0.0929 -0.1365
 3370DPPC   PO462126   6.912   8.353  22.147  0.2471  0.2024 -0.3426
 3370DPPC   GL162127   6.964   8.685  22.439 -0.1548  0.0180  0.0076
 3370DPPC   GL262128   7.226   8.878  22.544 -0.2703  0.1642  0.0194
 3370DPPC   C1A62129   6.899   8.810  22.886  0.0524 -0.0088  0.2752
 3370DPPC   C2A62130   6.979   8.767  23.301 -0.1399  0.2072  0.0808
 3370DPPC   C3A62131   7.380   8.815  23.447  0.0797  0.0883  0.0574
 3370DPPC   C4A62132   7.754   9.000  23.432 -0.2159 -0.1071 -0.0724
 3370DPPC   C1B62133   7.469   8.930  22.819 -0.0035 -0.1289 -0.0520
 3370DPPC   C2B62134   7.783   9.190  22.996  0.2780 -0.2570  0.0716
 3370DPPC   C3B62135   8.141   9.543  22.790  0.0097  0.1776  0.2355
 3370DPPC   C4B62136   8.341   9.889  22.596  0.1918  0.0343 -0.1425
 3371DPPC   NC362137   8.571  16.247  40.777 -0.2253 -0.0550 -0.0631
 3371DPPC   PO462138   8.236  16.228  40.536 -0.1682 -0.0498 -0.0749
 3371DPPC   GL162139   8.480  15.968  40.293 -0.2400  0.0527  0.1223
 3371DPPC   GL262140   8.833  16.134  40.373 -0.0863 -0.1482 -0.4058
 3371DPPC   C1A62141   8.466  15.714  39.980 -0.2218  0.1862  0.0860
 3371DPPC   C2A62142   8.589  15.412  39.740 -0.2903 -0.2038  0.0460
 3371DPPC   C3A62143   8.706  15.382  39.334 -0.0579 -0.2128  0.1992
 3371DPPC   C4A62144   8.939  15.474  38.874  0.2102 -0.1635 -0.1120
 3371DPPC   C1B62145   8.827  16.097  39.905  0.1053 -0.0670 -0.1521
 3371DPPC   C2B62146   8.706  15.930  39.510 -0.3788  0.3141  0.0867
 3371DPPC   C3B62147   8.813  15.969  39.088  0.2375  0.1742  0.0424
 3371DPPC   C4B62148   8.828  16.065  38.585  0.1084 -0.1408  0.0094
 3372DPPC   NC362149   4.101  16.112  26.227  0.2737 -0.0651 -0.0781
 3372DPPC   PO462150   4.374  16.303  25.912 -0.0914 -0.1681  0.0599
 3372DPPC   GL162151   4.770  16.449  25.925 -0.1900 -0.0876 -0.3180
 3372DPPC   GL262152   4.850  16.461  26.318  0.3606 -0.0565 -0.0507
 3372DPPC   C1A62153   5.144  16.577  25.651  0.1427 -0.3230  0.1200
 3372DPPC   C2A62154   5.529  16.444  25.740  0.1733 -0.1861  0.0975
 3372DPPC   C3A62155   5.888  16.351  25.676  0.2548  0.0469  0.2325
 3372DPPC   C4A62156   6.247  16.072  25.491 -0.1865 -0.1830  0.1393
 3372DPPC   C1B62157   5.286  16.457  26.145 -0.0727  0.2396 -0.3083
 3372DPPC   C2B62158   5.822  16.558  26.144  0.1946 -0.0251  0.1838
 3372DPPC   C3B62159   6.272  16.591  26.196  0.2620  0.0816 -0.0241
 3372DPPC   C4B62160   6.620  16.404  26.435  0.0653  0.2380 -0.3007
 3373DPPC   NC362161  17.426  20.034  16.728  0.0759  0.2359  0.2218
 3373DPPC   PO462162  17.350  19.611  16.959 -0.0790  0.1143 -0.0416
 3373DPPC   GL162163  17.515  19.377  17.198 -0.3054 -0.3097 -0.4052
 3373DPPC   GL262164  17.510  19.054  17.169 -0.2334 -0.2658 -0.4722
 3373DPPC   C1A62165  17.746  19.259  17.581  0.1613  0.1609 -0.0691
 3373DPPC   C2A62166  18.040  19.012  17.917 -0.0745 -0.0850 -0.1202
 3373DPPC   C3A62167  18.046  19.332  18.247 -0.0320  0.3908  0.2381
 3373DPPC   C4A62168  18.081  19.674  18.243  0.1102 -0.0296 -0.1125
 3373DPPC   C1B62169  17.288  18.728  17.493 -0.3628 -0.0643 -0.1371
 3373DPPC   C2B62170  17.345  18.435  17.822 -0.3535  0.4211 -0.2610
 3373DPPC   C3B62171  17.691  18.325  17.920  0.0385  0.3683  0.0745
 3373DPPC   C4B62172  18.070  18.114  17.882 -0.2117  0.1951 -0.1755
 3374DPPC   NC362173  20.928  11.199  19.672  0.3217 -0.0755 -0.0619
 3374DPPC   PO462174  20.814  11.361  19.363 -0.0552  0.0662  0.0572
 3374DPPC   GL162175  21.149  11.136  19.185 -0.1221  0.0806  0.1172
 3374DPPC   GL262176  21.469  11.148  19.223  0.1711 -0.2752  0.2388
 3374DPPC   C1A62177  21.330  10.659  19.061 -0.0995  0.0437 -0.4329
 3374DPPC   C2A62178  21.559  10.300  18.768 -0.2687 -0.1102  0.0951
 3374DPPC   C3A62179  21.868   9.952  18.789 -0.0167 -0.0537  0.2106
 3374DPPC   C4A62180  22.378   9.785  18.697  0.1784  0.0335  0.0615
 3374DPPC   C1B62181  21.427  11.359  18.681 -0.2946  0.2334 -0.0473
 3374DPPC   C2B62182  21.710  11.238  18.336 -0.0766 -0.0557 -0.2402
 3374DPPC   C3B62183  21.746  11.366  17.939 -0.1681 -0.1713 -0.1657
 3374DPPC   C4B62184  21.534  11.738  17.701 -0.3001  0.0292  0.2224
 3375DPPC   NC362185  16.941   0.004  30.004 -0.0128  0.0637 -0.2049
 3375DPPC   PO462186  16.848   0.085  30.443  0.1567  0.3212  0.3352
 3375DPPC   GL162187  17.013   0.432  30.229 -0.2215  0.1730 -0.0537
 3375DPPC   GL262188  17.070   0.431  29.814  0.2879 -0.0330 -0.0105
 3375DPPC   C1A62189  17.227   0.853  30.064 -0.0084 -0.2443 -0.3583
 3375DPPC   C2A62190  17.574   1.038  29.833  0.0809  0.2119  0.0404
 3375DPPC   C3A62191  17.750   1.233  29.587  0.4093  0.1914  0.2043
 3375DPPC   C4A62192  17.753   1.566  29.322  0.0593 -0.1693 -0.2395
 3375DPPC   C1B62193  16.675   0.777  29.773  0.0885 -0.0426  0.1737
 3375DPPC   C2B62194  16.760   1.276  29.638  0.1257 -0.1999  0.0171
 3375DPPC   C3B62195  16.798   1.821  29.624 -0.3820  0.1220 -0.2713
 3375DPPC   C4B62196  17.130   2.103  29.733 -0.0759  0.1350  0.3328
 3376DPPC   NC362197  10.267  19.613  39.874 -0.0875  0.1476  0.0356
 3376DPPC   PO462198   9.900  19.566  39.627 -0.0612 -0.2083 -0.0427
 3376DPPC   GL162199  10.206  19.422  39.287 -0.1673  0.3348 -0.2433
 3376DPPC   GL262200  10.447  19.408  39.326 -0.3375  0.2601 -0.0217
 3376DPPC   C1A62201  10.026  19.337  38.843  0.0731 -0.0673 -0.4342
 3376DPPC   C2A62202   9.666  19.512  38.782  0.0302 -0.1363  0.0192
 3376DPPC   C3A62203   9.279  19.346  38.465 -0.1426 -0.2267 -0.4224
 3376DPPC   C4A62204   9.168  19.303  38.013 -0.4724  0.0769 -0.0744
 3376DPPC   C1B62205  10.472  19.581  38.860  0.4302 -0.0612 -0.1364
 3376DPPC   C2B62206  10.499  19.579  38.437 -0.2728 -0.0597  0.1533
 3376DPPC   C3B62207  10.653  19.661  38.038  0.0634 -0.0379 -0.1379
 3376DPPC   C4B62208  10.687  19.549  37.577 -0.0700  0.2024  0.0389
 3377DPPC   NC362209  15.516  18.228  21.781 -0.1259  0.0943  0.1887
 3377DPPC   PO462210  15.392  18.512  21.438 -0.0359  0.3284  0.4958
 3377DPPC   GL162211  15.169  18.725  21.103 -0.0229  0.1074  0.1537
 3377DPPC   GL262212  15.352  18.952  21.094  0.2011  0.0146  0.1695
 3377DPPC   C1A62213  14.850  19.029  20.742  0.1982  0.0797 -0.0977
 3377DPPC   C2A62214  14.509  19.205  20.489  0.2284 -0.1662  0.0459
 3377DPPC   C3A62215  14.416  19.381  20.123  0.0033  0.1154  0.2337
 3377DPPC   C4A62216  14.184  19.087  19.832 -0.1440  0.0569  0.2273
 3377DPPC   C1B62217  15.511  18.837  20.736 -0.0485 -0.0729  0.1426
 3377DPPC   C2B62218  15.574  18.885  20.301 -0.4036  0.3875  0.0524
 3377DPPC   C3B62219  15.538  18.515  20.005 -0.5911 -0.1403 -0.0038
 3377DPPC   C4B62220  15.762  18.544  19.563 -0.0997  0.3285 -0.0789
 3378DPPC   NC362221  26.719   8.346  24.607 -0.1583 -0.0599 -0.1330
 3378DPPC   PO462222  26.706   8.390  25.069  0.1809 -0.1281 -0.1149
 3378DPPC   GL162223  26.504   8.369  25.409 -0.2016 -0.0141  0.0937
 3378DPPC   GL262224  26.492   8.141  25.630 -0.2282 -0.1725 -0.0162
 3378DPPC   C1A62225  26.101   8.530  25.545 -0.0736  0.3456  0.1897
 3378DPPC   C2A62226  25.601   8.426  25.450 -0.1897  0.1831 -0.1816
 3378DPPC   C3A62227  25.216   8.398  25.462 -0.3860 -0.1634 -0.2759
 3378DPPC   C4A62228  24.845   8.460  25.196  0.1664 -0.0638 -0.0928
 3378DPPC   C1B62229  26.144   8.038  25.392 -0.1618 -0.0440  0.2104
 3378DPPC   C2B62230  25.842   8.074  25.098  0.2645  0.3108 -0.1862
 3378DPPC   C3B62231  25.439   8.339  24.998 -0.0240  0.3083 -0.1442
 3378DPPC   C4B62232  25.320   8.800  25.260 -0.1135 -0.1163 -0.0359
 3379DPPC   NC362233  26.452  11.373  21.052  0.1366  0.0634  0.1860
 3379DPPC   PO462234  26.179  11.506  20.750 -0.3608  0.1009  0.0269
 3379DPPC   GL162235  25.752  11.355  20.794  0.0337  0.1734 -0.2008
 3379DPPC   GL262236  25.547  11.088  20.707 -0.0359 -0.2166  0.0498
 3379DPPC   C1A62237  25.328  11.289  21.095  0.0986  0.1281  0.1101
 3379DPPC   C2A62238  24.838  11.150  21.195 -0.2485 -0.1449 -0.0379
 3379DPPC   C3A62239  24.508  11.254  21.163 -0.0095 -0.1308 -0.0296
 3379DPPC   C4A62240  24.172  11.212  20.780 -0.1453 -0.0195 -0.0950
 3379DPPC   C1B62241  25.126  11.130  20.606 -0.0010  0.2158  0.3481
 3379DPPC   C2B62242  24.681  11.291  20.652 -0.1140 -0.1074  0.0493
 3379DPPC   C3B62243  24.498  11.677  20.749  0.1328  0.2361  0.3544
 3379DPPC   C4B62244  24.042  11.870  20.676  0.0851  0.1432 -0.2447
 3380DPPC   NC362245  18.771  14.059  19.306 -0.1769 -0.2912  0.1167
 3380DPPC   PO462246  18.944  13.588  19.059 -0.0722  0.0853 -0.1430
 3380DPPC   GL162247  19.039  13.808  18.680 -0.1812  0.1290  0.0533
 3380DPPC   GL262248  19.053  13.434  18.456 -0.1081 -0.4327 -0.3039
 3380DPPC   C1A62249  19.110  13.929  18.271  0.0125 -0.0283  0.1328
 3380DPPC   C2A62250  19.316  14.013  17.849  0.0704  0.2299  0.1514
 3380DPPC   C3A62251  19.378  14.004  17.457  0.1782 -0.1169 -0.0394
 3380DPPC   C4A62252  19.739  13.964  17.183 -0.1027 -0.2250  0.2357
 3380DPPC   C1B62253  18.710  13.617  18.347  0.0131 -0.1391 -0.1159
 3380DPPC   C2B62254  18.524  13.977  18.177 -0.2509  0.0239  0.1703
 3380DPPC   C3B62255  18.176  14.287  17.978  0.0328 -0.1874  0.0987
 3380DPPC   C4B62256  17.869  14.667  17.892 -0.3297  0.1264  0.0862
 3381DPPC   NC362257  17.411  10.304  19.205  0.1351 -0.3732  0.6810
 3381DPPC   PO462258  17.388   9.911  19.173  0.0695 -0.0849  0.0962
 3381DPPC   GL162259  17.547   9.730  18.857  0.1244  0.3091  0.1690
 3381DPPC   GL262260  17.789   9.561  18.883 -0.2094  0.0558  0.2029
 3381DPPC   C1A62261  17.535   9.367  18.529 -0.3226 -0.0066 -0.1260
 3381DPPC   C2A62262  17.784   9.142  18.205  0.1278 -0.0703  0.2172
 3381DPPC   C3A62263  18.096   8.894  17.967  0.1224 -0.0657 -0.1947
 3381DPPC   C4A62264  18.384   8.550  17.802  0.2284 -0.0376 -0.1896
 3381DPPC   C1B62265  18.034   9.182  18.661 -0.1684 -0.1244  0.0455
 3381DPPC   C2B62266  18.426   8.985  18.493 -0.1181 -0.1195  0.4366
 3381DPPC   C3B62267  18.688   8.708  18.357 -0.0677  0.1905 -0.0874
 3381DPPC   C4B62268  18.705   8.326  18.241  0.2763  0.0618  0.2074
 3382DPPC   NC362269  18.310  15.247  23.225  0.1253 -0.3008 -0.2371
 3382DPPC   PO462270  18.023  14.904  23.394  0.1227  0.0205  0.3373
 3382DPPC   GL162271  17.973  14.531  23.741  0.1587  0.1841  0.0459
 3382DPPC   GL262272  18.263  14.459  23.804 -0.1385  0.5843 -0.1850
 3382DPPC   C1A62273  17.801  14.320  24.105 -0.0442 -0.2314  0.0984
 3382DPPC   C2A62274  17.823  14.131  24.514  0.1261 -0.0417  0.0759
 3382DPPC   C3A62275  17.814  13.849  24.903 -0.2596 -0.1689  0.2904
 3382DPPC   C4A62276  17.905  13.842  25.347  0.2883  0.1234 -0.0723
 3382DPPC   C1B62277  18.277  14.288  24.118 -0.2276 -0.1007 -0.0743
 3382DPPC   C2B62278  18.143  14.472  24.459 -0.0315  0.4249  0.0416
 3382DPPC   C3B62279  18.265  14.696  24.884 -0.0927  0.0861  0.0167
 3382DPPC   C4B62280  18.203  14.608  25.304  0.3617  0.1254 -0.0822
 3383DPPC   NC362281   9.481   7.529  40.715  0.0156  0.0478 -0.1400
 3383DPPC   PO462282   9.903   7.693  40.694 -0.1764  0.0633  0.3974
 3383DPPC   GL162283  10.212   7.716  40.498 -0.0529 -0.0896  0.0457
 3383DPPC   GL262284  10.444   7.488  40.612 -0.2220  0.4519 -0.1485
 3383DPPC   C1A62285  10.344   7.787  40.048  0.0603  0.1125  0.0712
 3383DPPC   C2A62286  10.418   7.836  39.614 -0.2258  0.0752  0.1107
 3383DPPC   C3A62287  10.494   8.134  39.373 -0.3220 -0.1304 -0.1762
 3383DPPC   C4A62288  10.750   8.315  39.012 -0.0932  0.0965  0.0668
 3383DPPC   C1B62289  10.717   7.552  40.328 -0.2431  0.0871 -0.1111
 3383DPPC   C2B62290  11.145   7.468  40.083  0.1052 -0.3573 -0.0112
 3383DPPC   C3B62291  11.483   7.771  40.043  0.2074 -0.3458 -0.0700
 3383DPPC   C4B62292  11.649   8.020  39.764 -0.1584  0.0515  0.2736
 3384DPPC   NC362293  23.509   7.012  39.697  0.0378 -0.1763  0.0456
 3384DPPC   PO462294  23.569   6.553  39.539  0.0077 -0.3176  0.1257
 3384DPPC   GL162295  23.301   6.702  39.373 -0.3736  0.2021  0.0622
 3384DPPC   GL262296  23.352   6.690  39.034 -0.0267 -0.2920 -0.0692
 3384DPPC   C1A62297  22.894   6.827  39.157 -0.3895 -0.1280 -0.1878
 3384DPPC   C2A62298  22.731   7.210  38.843  0.0694  0.1948 -0.2595
 3384DPPC   C3A62299  22.858   7.660  38.817 -0.1574  0.0875  0.0343
 3384DPPC   C4A62300  22.856   8.132  38.743  0.3526 -0.1404  0.0424
 3384DPPC   C1B62301  23.160   6.866  38.713 -0.1472 -0.0660 -0.1707
 3384DPPC   C2B62302  23.097   7.276  38.529  0.2649 -0.1085  0.0767
 3384DPPC   C3B62303  22.634   7.390  38.345 -0.0233  0.1231 -0.1035
 3384DPPC   C4B62304  22.228   7.405  38.197  0.0560 -0.0298 -0.1185
 3385DPPC   NC362305  21.223  14.506  23.369 -0.1170  0.0179 -0.1173
 3385DPPC   PO462306  21.604  14.119  23.359  0.2363 -0.4160  0.1100
 3385DPPC   GL162307  21.974  14.323  23.474  0.1115 -0.0792  0.0086
 3385DPPC   GL262308  22.061  14.135  23.692  0.1942  0.3320  0.2038
 3385DPPC   C1A62309  22.202  14.671  23.683 -0.3080 -0.2438  0.0702
 3385DPPC   C2A62310  22.294  15.049  23.912  0.1378 -0.0608  0.2457
 3385DPPC   C3A62311  22.676  15.326  23.902 -0.1419  0.1182 -0.2101
 3385DPPC   C4A62312  23.106  15.103  23.930  0.2105 -0.0989 -0.0196
 3385DPPC   C1B62313  22.517  14.218  23.455  0.2803  0.2645 -0.0787
 3385DPPC   C2B62314  22.887  14.292  23.229  0.0175 -0.1092 -0.1130
 3385DPPC   C3B62315  23.357  14.094  23.091 -0.3029  0.1303 -0.0994
 3385DPPC   C4B62316  23.674  14.145  23.288  0.1838  0.0145  0.1287
 3386DPPC   NC362317  13.787  12.298  44.234 -0.0032  0.1801 -0.2398
 3386DPPC   PO462318  14.053  11.921  44.270  0.0160  0.1234  0.2216
 3386DPPC   GL162319  14.228  12.042  43.955 -0.2399  0.2357 -0.0637
 3386DPPC   GL262320  14.083  12.239  43.810 -0.3919  0.1363 -0.0133
 3386DPPC   C1A62321  14.470  12.220  43.574  0.1898  0.0462  0.0253
 3386DPPC   C2A62322  14.734  12.396  43.243  0.2755  0.2388 -0.1125
 3386DPPC   C3A62323  14.764  12.476  42.781 -0.1262  0.0519  0.2390
 3386DPPC   C4A62324  14.841  12.285  42.465 -0.2247  0.0108  0.2399
 3386DPPC   C1B62325  14.099  11.929  43.492  0.1315  0.0909  0.4432
 3386DPPC   C2B62326  14.309  11.546  43.266 -0.2415 -0.1355 -0.3160
 3386DPPC   C3B62327  14.682  11.249  43.386 -0.4248  0.0892 -0.0176
 3386DPPC   C4B62328  15.102  10.931  43.275 -0.0683  0.1747 -0.2541
 3387DPPC   NC362329  19.354  23.064  24.070  0.0488 -0.2641 -0.1238
 3387DPPC   PO462330  19.046  23.296  24.363 -0.1701  0.0019  0.3602
 3387DPPC   GL162331  19.015  22.885  24.607 -0.0179 -0.0589 -0.3154
 3387DPPC   GL262332  18.609  22.825  24.687 -0.2567  0.0089  0.0471
 3387DPPC   C1A62333  19.042  22.469  24.705 -0.0175  0.1093 -0.1767
 3387DPPC   C2A62334  19.044  22.273  25.097 -0.0287 -0.3478 -0.0745
 3387DPPC   C3A62335  18.782  22.352  25.393 -0.0173  0.1579 -0.1069
 3387DPPC   C4A62336  18.333  22.442  25.378  0.1969  0.0652  0.1386
 3387DPPC   C1B62337  18.557  22.435  24.847  0.2325  0.0476 -0.3648
 3387DPPC   C2B62338  18.472  22.064  25.050 -0.4723  0.0218  0.0052
 3387DPPC   C3B62339  18.764  21.781  25.263 -0.1355  0.1673 -0.2837
 3387DPPC   C4B62340  18.891  21.383  25.215 -0.2212 -0.0859 -0.2079
 3388DPPC   NC362341   7.496  20.324  23.433  0.0813  0.0730  0.1626
 3388DPPC   PO462342   7.727  20.145  22.907  0.1538 -0.0040  0.0412
 3388DPPC   GL162343   8.179  20.233  23.127 -0.0409 -0.0429  0.0253
 3388DPPC   GL262344   7.982  20.237  23.470  0.0930 -0.0430 -0.1097
 3388DPPC   C1A62345   8.457  20.042  23.363  0.2050 -0.3789  0.0980
 3388DPPC   C2A62346   8.621  19.637  23.449 -0.0405  0.1836  0.0028
 3388DPPC   C3A62347   8.889  19.167  23.414  0.3002  0.1019  0.2429
 3388DPPC   C4A62348   9.098  18.811  23.753 -0.2313  0.0270 -0.2554
 3388DPPC   C1B62349   7.999  20.155  23.858  0.1025 -0.2075 -0.2416
 3388DPPC   C2B62350   8.165  20.370  24.160  0.1543  0.1478  0.2375
 3388DPPC   C3B62351   8.477  20.341  24.253 -0.0072 -0.4214 -0.0886
 3388DPPC   C4B62352   8.898  20.287  24.075  0.0123  0.1383  0.4045
 3389DPPC   NC362353  19.841  15.925  42.797  0.3480 -0.1027 -0.0961
 3389DPPC   PO462354  19.637  15.577  42.938 -0.2035 -0.2314 -0.0572
 3389DPPC   GL162355  19.563  15.309  42.544  0.1066  0.2581  0.0505
 3389DPPC   GL262356  19.455  14.996  42.602 -0.3028  0.2216 -0.0705
 3389DPPC   C1A62357  19.355  15.323  42.108  0.0681  0.1769  0.0536
 3389DPPC   C2A62358  19.388  15.064  41.768 -0.0519  0.1673 -0.2147
 3389DPPC   C3A62359  19.210  15.012  41.301  0.0402 -0.0732 -0.1018
 3389DPPC   C4A62360  19.081  15.111  40.865  0.0452  0.1023  0.0251
 3389DPPC   C1B62361  19.366  14.791  42.228 -0.3348  0.1344  0.2244
 3389DPPC   C2B62362  19.413  14.625  41.962 -0.2785 -0.0774 -0.0631
 3389DPPC   C3B62363  19.369  14.541  41.547  0.2361  0.1850  0.0811
 3389DPPC   C4B62364  19.133  14.427  41.221  0.2069  0.3560 -0.1777
 3390DPPC   NC362365  12.563  21.639  38.948  0.1967  0.2124  0.1304
 3390DPPC   PO462366  12.234  21.668  38.728  0.4228 -0.3398  0.0406
 3390DPPC   GL162367  12.393  21.201  38.661 -0.0882 -0.2543  0.1448
 3390DPPC   GL262368  12.516  21.109  38.880  0.0032 -0.0590 -0.0269
 3390DPPC   C1A62369  12.435  20.728  38.495 -0.0319 -0.1229  0.0871
 3390DPPC   C2A62370  12.820  20.491  38.570  0.3455  0.1444 -0.1786
 3390DPPC   C3A62371  13.199  20.294  38.673  0.2523 -0.2744  0.2396
 3390DPPC   C4A62372  13.684  20.247  38.677 -0.0718  0.0292  0.1834
 3390DPPC   C1B62373  12.617  20.708  39.002 -0.1730 -0.0314 -0.1269
 3390DPPC   C2B62374  12.951  20.485  39.253 -0.3187  0.0988 -0.0927
 3390DPPC   C3B62375  13.264  20.422  39.547  0.0488 -0.6099  0.2116
 3390DPPC   C4B62376  13.482  20.746  39.718 -0.0274 -0.1254  0.3105
 3391DPPC   NC362377   7.977  17.304  20.335 -0.0670  0.0885  0.0016
 3391DPPC   PO462378   8.226  17.585  20.599 -0.0721 -0.1339  0.3207
 3391DPPC   GL162379   8.439  17.200  20.863 -0.3330 -0.4306  0.1039
 3391DPPC   GL262380   8.724  17.034  20.816 -0.4216 -0.2864  0.2191
 3391DPPC   C1A62381   8.328  16.838  21.060 -0.1148 -0.0150 -0.1645
 3391DPPC   C2A62382   7.998  16.561  21.319 -0.2170 -0.1723  0.0873
 3391DPPC   C3A62383   8.044  16.342  21.638 -0.0234  0.0068 -0.2612
 3391DPPC   C4A62384   8.088  16.167  22.060  0.1117  0.2595  0.0251
 3391DPPC   C1B62385   8.819  16.901  21.187 -0.4160  0.0400  0.3756
 3391DPPC   C2B62386   8.525  17.118  21.536 -0.1053  0.0377 -0.1634
 3391DPPC   C3B62387   8.664  17.086  21.983  0.2936 -0.0823  0.0890
 3391DPPC   C4B62388   8.964  17.201  22.239 -0.1591 -0.2446  0.0932
 3392DPPC   NC362389  22.238   9.140  22.953  0.1340  0.0114 -0.0818
 3392DPPC   PO462390  22.587   9.377  22.919 -0.2964 -0.0202 -0.0117
 3392DPPC   GL162391  22.918   9.142  22.829 -0.0766  0.0737  0.1511
 3392DPPC   GL262392  22.815   8.776  22.881 -0.3272 -0.2466 -0.0701
 3392DPPC   C1A62393  23.180   8.939  22.534 -0.2561 -0.2068 -0.3855
 3392DPPC   C2A62394  23.555   8.637  22.618  0.2123 -0.2502 -0.1944
 3392DPPC   C3A62395  23.887   8.501  22.820 -0.2032  0.0897 -0.1924
 3392DPPC   C4A62396  24.332   8.537  22.938  0.1171 -0.0014 -0.1309
 3392DPPC   C1B62397  22.981   8.490  22.595 -0.0238  0.2795 -0.0249
 3392DPPC   C2B62398  23.322   8.228  22.575 -0.0291 -0.1145  0.2723
 3392DPPC   C3B62399  23.665   8.040  22.661 -0.1066 -0.1156  0.0797
 3392DPPC   C4B62400  24.008   7.747  22.737  0.1315 -0.3499  0.2415
 3393DPPC   NC362401  19.961  16.368  22.574 -0.2160 -0.0333 -0.3165
 3393DPPC   PO462402  19.778  16.692  22.404  0.0667  0.1229  0.0268
 3393DPPC   GL162403  20.065  16.915  22.447  0.0675  0.1584  0.1850
 3393DPPC   GL262404  19.903  17.094  22.730 -0.0033  0.3047 -0.0038
 3393DPPC   C1A62405  20.486  16.948  22.479  0.2553 -0.3565 -0.0028
 3393DPPC   C2A62406  20.897  17.017  22.618 -0.0704 -0.0718 -0.2078
 3393DPPC   C3A62407  21.238  17.007  22.526  0.0360  0.2495  0.3164
 3393DPPC   C4A62408  21.628  17.112  22.581  0.0599 -0.0144 -0.0193
 3393DPPC   C1B62409  20.023  17.309  23.055  0.2901 -0.0838  0.1243
 3393DPPC   C2B62410  20.317  17.489  23.288 -0.0184  0.0671 -0.0203
 3393DPPC   C3B62411  20.623  17.711  23.517  0.1139  0.2406 -0.0921
 3393DPPC   C4B62412  20.897  18.124  23.536 -0.2018 -0.0082  0.0390
 3394DPPC   NC362413  24.570  16.727  24.303  0.2190 -0.0911  0.1315
 3394DPPC   PO462414  24.910  16.555  24.588 -0.0570 -0.1163 -0.0788
 3394DPPC   GL162415  24.603  16.363  24.887 -0.0571 -0.0776  0.1013
 3394DPPC   GL262416  24.354  16.297  24.762  0.3159  0.0292 -0.0600
 3394DPPC   C1A62417  24.378  16.322  25.358 -0.2468 -0.0049 -0.0961
 3394DPPC   C2A62418  24.125  16.211  25.613  0.0595 -0.2405 -0.0541
 3394DPPC   C3A62419  23.651  16.140  25.652 -0.1219  0.0725  0.0133
 3394DPPC   C4A62420  23.298  16.276  25.596  0.1237  0.2299  0.4060
 3394DPPC   C1B62421  23.919  16.258  24.590 -0.1310  0.1916  0.0549
 3394DPPC   C2B62422  23.657  16.020  24.685 -0.1551 -0.1952 -0.3704
 3394DPPC   C3B62423  23.386  15.858  24.796 -0.4849  0.0152  0.0183
 3394DPPC   C4B62424  23.012  15.595  24.928 -0.1243 -0.3402  0.0503
 3395DPPC   NC362425   5.117  20.049  34.483 -0.1250 -0.2409  0.0149
 3395DPPC   PO462426   5.315  19.736  34.805  0.0391  0.0136  0.1694
 3395DPPC   GL162427   5.755  19.633  34.717  0.1781 -0.1771  0.1088
 3395DPPC   GL262428   5.704  19.257  34.493  0.5289  0.2793 -0.1035
 3395DPPC   C1A62429   6.212  19.385  34.770  0.3473 -0.0980 -0.0686
 3395DPPC   C2A62430   6.475  19.220  34.439 -0.1887  0.2848  0.1513
 3395DPPC   C3A62431   6.663  18.890  34.097 -0.1391  0.0034 -0.0574
 3395DPPC   C4A62432   6.744  18.552  33.798  0.1297  0.1232  0.0895
 3395DPPC   C1B62433   5.692  19.123  33.993 -0.2691  0.1515 -0.2350
 3395DPPC   C2B62434   5.661  18.925  33.519  0.1198 -0.0942 -0.2650
 3395DPPC   C3B62435   5.760  18.597  33.231  0.0710  0.2896  0.0356
 3395DPPC   C4B62436   5.890  18.405  33.101 -0.0204  0.1802  0.0502
 3396DPPC   NC362437   0.421   8.181  31.982 -0.3776 -0.2320  0.3247
 3396DPPC   PO462438   0.241   8.269  32.452 -0.0250  0.3532  0.1347
 3396DPPC   GL162439  27.025   8.355  32.134  0.3184 -0.0255 -0.1482
 3396DPPC   GL262440  26.935   8.115  31.888  0.0762  0.0948  0.0077
 3396DPPC   C1A62441  26.672   8.505  31.823  0.1968 -0.1423 -0.2827
 3396DPPC   C2A62442  26.274   8.597  31.774  0.2250  0.0588  0.2994
 3396DPPC   C3A62443  25.911   8.657  31.838 -0.3465 -0.2004  0.1748
 3396DPPC   C4A62444  25.565   8.830  31.879  0.5348  0.0623  0.1584
 3396DPPC   C1B62445  26.393   8.036  31.829  0.0334  0.1195  0.0551
 3396DPPC   C2B62446  26.030   8.160  31.675 -0.1514 -0.2262 -0.0899
 3396DPPC   C3B62447  25.676   8.390  31.506  0.2842  0.0514  0.1635
 3396DPPC   C4B62448  25.313   8.410  31.766  0.2297 -0.2011  0.2941
 3397DPPC   NC362449  10.884   1.350  28.789 -0.0767  0.0025  0.0666
 3397DPPC   PO462450  10.566   1.653  28.583 -0.1727  0.0283  0.1077
 3397DPPC   GL162451  10.963   1.853  28.772  0.4169 -0.0261 -0.0608
 3397DPPC   GL262452  11.150   1.950  28.567  0.0766  0.3589 -0.1819
 3397DPPC   C1A62453  11.368   1.953  28.981  0.5177 -0.0739  0.0545
 3397DPPC   C2A62454  11.641   2.114  29.144 -0.0169  0.5928 -0.0935
 3397DPPC   C3A62455  11.583   2.175  29.536 -0.2233  0.2586  0.1265
 3397DPPC   C4A62456  11.909   2.071  29.607 -0.0752 -0.1381 -0.1391
 3397DPPC   C1B62457  11.264   2.489  28.622  0.0088  0.0710 -0.2973
 3397DPPC   C2B62458  11.483   2.794  28.725  0.2498  0.4292  0.0091
 3397DPPC   C3B62459  11.921   2.820  28.624 -0.0263  0.2415 -0.1945
 3397DPPC   C4B62460  12.175   2.618  28.367  0.0020 -0.1283 -0.5721
 3398DPPC   NC362461  25.043  20.020  30.175  0.1192  0.0214  0.2091
 3398DPPC   PO462462  24.889  19.652  30.112  0.4021  0.4062 -0.2216
 3398DPPC   GL162463  24.570  19.335  30.216 -0.2883  0.2585  0.1830
 3398DPPC   GL262464  24.467  19.145  30.428  0.2385 -0.2624  0.0610
 3398DPPC   C1A62465  24.183  19.044  30.041 -0.2278 -0.0931 -0.1465
 3398DPPC   C2A62466  23.742  18.979  29.974 -0.0597 -0.4012  0.0975
 3398DPPC   C3A62467  23.415  18.677  29.893  0.3170  0.0388 -0.2651
 3398DPPC   C4A62468  23.015  18.470  29.876 -0.2400 -0.0626 -0.1836
 3398DPPC   C1B62469  24.244  18.805  30.451 -0.2065 -0.3214 -0.1282
 3398DPPC   C2B62470  23.963  18.559  30.629  0.0040  0.0984 -0.4322
 3398DPPC   C3B62471  23.523  18.379  30.896 -0.1463 -0.1208  0.0355
 3398DPPC   C4B62472  23.118  18.551  30.762  0.2492  0.1387  0.2324
 3399DPPC   NC362473  19.745  15.984  21.174  0.1807 -0.2054 -0.1024
 3399DPPC   PO462474  19.982  15.747  21.504 -0.1070 -0.0887  0.3607
 3399DPPC   GL162475  20.284  15.863  21.134  0.1586 -0.1641  0.3032
 3399DPPC   GL262476  20.585  15.896  21.263 -0.0646  0.0308  0.1426
 3399DPPC   C1A62477  20.538  16.097  20.723 -0.0114 -0.3082  0.0367
 3399DPPC   C2A62478  20.603  16.215  20.294  0.0394  0.1062  0.3064
 3399DPPC   C3A62479  20.648  16.303  20.001  0.0933 -0.2645  0.1409
 3399DPPC   C4A62480  20.559  16.419  19.588  0.0039  0.2990  0.0106
 3399DPPC   C1B62481  20.927  16.277  21.291 -0.3008  0.0539  0.1666
 3399DPPC   C2B62482  21.036  16.641  21.377 -0.2690  0.2637 -0.0878
 3399DPPC   C3B62483  21.285  16.818  21.630 -0.0990 -0.3118  0.0434
 3399DPPC   C4B62484  21.625  17.084  21.617  0.0910 -0.2986  0.1526
 3400DPPC   NC362485   4.899  10.995  24.567 -0.1216 -0.1755  0.0036
 3400DPPC   PO462486   4.899  11.082  24.035 -0.0999 -0.1861  0.0340
 3400DPPC   GL162487   5.302  10.808  24.273  0.0720  0.0345  0.1224
 3400DPPC   GL262488   5.549  10.601  24.135 -0.1942  0.0973  0.0935
 3400DPPC   C1A62489   5.651  10.994  24.441  0.0463  0.0950  0.0880
 3400DPPC   C2A62490   6.055  11.017  24.622  0.1418  0.0712 -0.2437
 3400DPPC   C3A62491   6.447  11.106  24.659  0.2252  0.0805  0.5632
 3400DPPC   C4A62492   6.743  11.510  24.678  0.2314  0.3956  0.0178
 3400DPPC   C1B62493   6.055  10.673  24.242  0.2827  0.1839 -0.0712
 3400DPPC   C2B62494   6.524  10.759  24.275 -0.1297  0.2523 -0.1304
 3400DPPC   C3B62495   6.864  10.719  24.501  0.0471 -0.1175  0.0100
 3400DPPC   C4B62496   7.015  10.348  24.346 -0.4865  0.2969  0.2920
 3401DPPC   NC362497   7.877   2.689  30.886 -0.1070  0.0379 -0.1267
 3401DPPC   PO462498   8.352   2.797  30.616  0.3295  0.0702 -0.0446
 3401DPPC   GL162499   8.696   3.082  30.673 -0.1548  0.0515 -0.0562
 3401DPPC   GL262500   8.906   2.941  30.911 -0.3626 -0.1953 -0.1147
 3401DPPC   C1A62501   8.737   3.445  30.580 -0.1731  0.0378 -0.3824
 3401DPPC   C2A62502   9.076   3.738  30.519  0.4294 -0.0295 -0.3400
 3401DPPC   C3A62503   9.155   3.913  30.859 -0.2949  0.0738 -0.3431
 3401DPPC   C4A62504   9.338   4.413  31.010  0.2579 -0.2149 -0.1079
 3401DPPC   C1B62505   9.076   3.024  31.266  0.2139 -0.1269  0.1970
 3401DPPC   C2B62506   9.046   3.254  31.529  0.3692 -0.3728 -0.1289
 3401DPPC   C3B62507   9.244   3.363  31.824  0.1467 -0.2627  0.0927
 3401DPPC   C4B62508   9.564   3.441  32.076  0.1627  0.0872 -0.0242
 3402DPPC   NC362509  17.202  17.172  20.488  0.0669 -0.1809 -0.1652
 3402DPPC   PO462510  17.283  17.645  20.615 -0.0913 -0.0972  0.0322
 3402DPPC   GL162511  17.135  18.027  20.413 -0.1640 -0.0012  0.2001
 3402DPPC   GL262512  16.676  18.009  20.390 -0.3212  0.2061 -0.1373
 3402DPPC   C1A62513  17.051  18.427  20.150  0.1693 -0.0964 -0.2958
 3402DPPC   C2A62514  17.161  18.732  19.816  0.1996  0.0224  0.1009
 3402DPPC   C3A62515  17.170  19.024  19.479  0.0468  0.0177  0.0365
 3402DPPC   C4A62516  16.879  19.178  19.173  0.2812  0.0960  0.0701
 3402DPPC   C1B62517  16.472  18.307  20.227 -0.1838 -0.0788 -0.0824
 3402DPPC   C2B62518  16.626  18.597  19.958 -0.0334 -0.3995  0.3291
 3402DPPC   C3B62519  16.733  18.719  19.492 -0.2394  0.0095  0.3167
 3402DPPC   C4B62520  17.067  18.614  19.231  0.1220  0.1763 -0.2041
 3403DPPC   NC362521  12.754  17.927  42.423  0.1425 -0.0521  0.1061
 3403DPPC   PO462522  12.929  17.489  42.529  0.3683  0.1681  0.0540
 3403DPPC   GL162523  13.069  17.078  42.207  0.1925  0.0654 -0.0236
 3403DPPC   GL262524  12.710  16.943  42.100 -0.3478  0.2686  0.0165
 3403DPPC   C1A62525  13.345  17.046  41.819  0.3243  0.0085  0.2333
 3403DPPC   C2A62526  13.316  16.921  41.437 -0.0184  0.0486 -0.1826
 3403DPPC   C3A62527  12.911  16.759  41.239  0.0931  0.1273 -0.1462
 3403DPPC   C4A62528  12.541  16.994  41.137  0.0817  0.0560 -0.4296
 3403DPPC   C1B62529  12.533  17.031  41.672  0.0259  0.2518 -0.0882
 3403DPPC   C2B62530  12.216  17.323  41.326  0.1279  0.1012  0.0552
 3403DPPC   C3B62531  12.145  17.259  40.794  0.1159  0.0299 -0.1941
 3403DPPC   C4B62532  12.214  17.312  40.286  0.2935 -0.2149 -0.1138
 3404DPPC   NC362533  16.911  19.275  22.083 -0.1905  0.0008 -0.1253
 3404DPPC   PO462534  17.172  18.924  22.041  0.1799  0.0848 -0.1628
 3404DPPC   GL162535  17.502  19.343  21.763 -0.1762 -0.5236 -0.0742
 3404DPPC   GL262536  17.406  19.510  21.521  0.0641  0.1280 -0.0362
 3404DPPC   C1A62537  17.708  19.713  21.909  0.1050  0.0703  0.1243
 3404DPPC   C2A62538  17.862  20.165  21.821  0.4449 -0.2000  0.1919
 3404DPPC   C3A62539  18.015  20.137  21.330 -0.0434 -0.0382  0.2725
 3404DPPC   C4A62540  18.345  20.003  21.003  0.0078  0.1905  0.3633
 3404DPPC   C1B62541  17.162  19.687  21.203  0.0060 -0.1772 -0.1493
 3404DPPC   C2B62542  16.994  20.156  21.087 -0.2811 -0.3943  0.2582
 3404DPPC   C3B62543  16.662  20.547  21.107 -0.1652 -0.1237 -0.3249
 3404DPPC   C4B62544  16.492  20.450  21.505  0.2637 -0.1213  0.1954
 3405DPPC   NC362545  14.118   0.426  29.801 -0.2731 -0.0983  0.2315
 3405DPPC   PO462546  14.190   0.617  30.195 -0.2654  0.2601  0.0250
 3405DPPC   GL162547  14.352   1.005  30.067  0.2437 -0.1233 -0.0497
 3405DPPC   GL262548  14.186   1.176  30.008  0.1385 -0.0035 -0.1291
 3405DPPC   C1A62549  14.819   1.197  30.018  0.2216 -0.1143  0.1048
 3405DPPC   C2A62550  15.074   1.632  29.987  0.4075  0.0967  0.0501
 3405DPPC   C3A62551  15.228   1.959  29.978 -0.0978 -0.0071  0.3978
 3405DPPC   C4A62552  15.507   2.174  29.718 -0.1832 -0.0164 -0.1858
 3405DPPC   C1B62553  13.985   1.530  30.119 -0.0832 -0.2484 -0.1280
 3405DPPC   C2B62554  13.628   1.749  30.278 -0.1274  0.1002  0.3582
 3405DPPC   C3B62555  13.487   2.063  30.126 -0.1793  0.4718  0.3724
 3405DPPC   C4B62556  13.135   2.411  30.134  0.1623 -0.1468  0.2091
 3406DPPC   NC362557  18.731  17.668  22.699 -0.0479 -0.0190 -0.0149
 3406DPPC   PO462558  18.824  18.168  22.798  0.1429 -0.0126  0.0828
 3406DPPC   GL162559  19.239  18.067  22.675 -0.2351 -0.4276  0.1352
 3406DPPC   GL262560  19.168  18.351  22.465 -0.1551  0.0968  0.2227
 3406DPPC   C1A62561  19.602  17.939  22.396 -0.1092 -0.1490  0.0768
 3406DPPC   C2A62562  20.048  17.858  22.237  0.1346 -0.1173 -0.2188
 3406DPPC   C3A62563  20.357  18.014  22.377  0.2688  0.2438  0.0413
 3406DPPC   C4A62564  20.786  17.903  22.513 -0.0287  0.1064  0.0410
 3406DPPC   C1B62565  19.546  18.480  22.329  0.0914 -0.0386 -0.2328
 3406DPPC   C2B62566  19.782  18.782  22.433  0.0844 -0.1868 -0.2702
 3406DPPC   C3B62567  19.876  19.045  22.862 -0.2209  0.0619 -0.1492
 3406DPPC   C4B62568  19.749  19.416  23.088 -0.0873  0.1507 -0.0939
 3407DPPC   NC362569  15.080  11.664  19.401  0.0277  0.0137  0.2860
 3407DPPC   PO462570  14.965  12.095  19.528 -0.0384  0.1242  0.0819
 3407DPPC   GL162571  14.669  12.175  19.283  0.2106 -0.0293  0.0341
 3407DPPC   GL262572  14.740  11.940  19.110 -0.1745 -0.1135  0.0734
 3407DPPC   C1A62573  14.231  12.233  19.242  0.2048 -0.3129  0.3462
 3407DPPC   C2A62574  14.010  12.590  19.086  0.1826  0.0456  0.1026
 3407DPPC   C3A62575  13.896  12.812  18.706  0.2422 -0.1017  0.1361
 3407DPPC   C4A62576  13.722  12.919  18.414  0.2041  0.4471 -0.1156
 3407DPPC   C1B62577  14.478  11.946  18.728  0.0375 -0.1483 -0.2448
 3407DPPC   C2B62578  14.603  12.241  18.408  0.1557  0.1652  0.1145
 3407DPPC   C3B62579  14.685  12.537  18.346  0.2325 -0.0196 -0.2252
 3407DPPC   C4B62580  14.948  12.797  18.526 -0.0386  0.2303 -0.0191
 3408DPPC   NC362581  19.970  12.788  24.505 -0.1634 -0.1290 -0.1219
 3408DPPC   PO462582  20.177  13.171  24.308 -0.0082  0.0920 -0.1627
 3408DPPC   GL162583  19.779  13.308  24.434 -0.0829 -0.0140  0.0854
 3408DPPC   GL262584  19.747  13.645  24.513  0.0578 -0.2984  0.1456
 3408DPPC   C1A62585  19.654  13.120  24.898 -0.1573 -0.0963  0.3020
 3408DPPC   C2A62586  19.711  12.838  25.289  0.4374  0.0735 -0.1690
 3408DPPC   C3A62587  19.651  12.636  25.767 -0.0510 -0.0941 -0.1743
 3408DPPC   C4A62588  19.253  12.703  26.051  0.2190 -0.0346 -0.2826
 3408DPPC   C1B62589  19.458  13.889  24.731  0.1895  0.0899 -0.1120
 3408DPPC   C2B62590  19.118  13.989  25.037 -0.0126 -0.1035 -0.0340
 3408DPPC   C3B62591  18.793  14.096  25.318  0.0200 -0.3914 -0.0038
 3408DPPC   C4B62592  18.378  14.172  25.410 -0.1489 -0.1812  0.0438
 3409DPPC   NC362593  16.211  11.561  20.030  0.2232 -0.1941  0.2164
 3409DPPC   PO462594  16.056  11.398  19.556  0.1453 -0.0441 -0.1431
 3409DPPC   GL162595  15.680  11.207  19.262 -0.0791  0.0438  0.0948
 3409DPPC   GL262596  15.485  11.397  19.003 -0.0369  0.1754 -0.0537
 3409DPPC   C1A62597  15.321  10.959  19.168  0.1120  0.0553  0.2100
 3409DPPC   C2A62598  15.144  11.010  18.821 -0.1277 -0.1185 -0.2564
 3409DPPC   C3A62599  14.972  10.886  18.416  0.1009 -0.1063 -0.1746
 3409DPPC   C4A62600  14.843  10.796  18.030  0.2327  0.1004 -0.0948
 3409DPPC   C1B62601  15.244  11.427  18.616  0.0295 -0.1195  0.1178
 3409DPPC   C2B62602  14.914  11.356  18.360 -0.0066 -0.1669 -0.1097
 3409DPPC   C3B62603  14.769  11.252  17.973 -0.0841 -0.0080 -0.0034
 3409DPPC   C4B62604  14.742  11.258  17.548 -0.0237  0.2177  0.2984
 3410DPPC   NC362605  15.256  13.216  44.002  0.1834  0.3108 -0.0546
 3410DPPC   PO462606  15.719  13.381  43.964  0.1849  0.3031 -0.1230
 3410DPPC   GL162607  15.691  13.608  43.619  0.0175 -0.0218 -0.2235
 3410DPPC   GL262608  15.962  13.537  43.567 -0.0046 -0.7755  0.0406
 3410DPPC   C1A62609  15.631  13.440  43.176  0.1738  0.1512  0.2488
 3410DPPC   C2A62610  15.744  13.310  42.754  0.2008  0.2050  0.2044
 3410DPPC   C3A62611  15.855  13.410  42.356 -0.1439  0.2762 -0.3535
 3410DPPC   C4A62612  15.964  13.600  41.961 -0.4485 -0.2590  0.0619
 3410DPPC   C1B62613  16.122  13.722  43.152 -0.0052  0.1767  0.2670
 3410DPPC   C2B62614  16.447  13.925  42.896  0.1912 -0.0648  0.0972
 3410DPPC   C3B62615  16.638  13.897  42.567 -0.0912 -0.0322  0.0985
 3410DPPC   C4B62616  16.685  14.047  42.115 -0.0111 -0.2451  0.1109
 3411DPPC   NC362617   3.847  17.423  32.142  0.1581  0.3840 -0.0428
 3411DPPC   PO462618   4.134  17.655  31.823  0.0657 -0.0499 -0.0657
 3411DPPC   GL162619   4.476  17.596  31.573  0.1556  0.3178 -0.2565
 3411DPPC   GL262620   4.747  17.832  31.558  0.0020  0.2385 -0.1783
 3411DPPC   C1A62621   4.668  17.240  31.395  0.1116  0.2010 -0.1439
 3411DPPC   C2A62622   4.896  17.040  31.198  0.2353  0.0380 -0.1754
 3411DPPC   C3A62623   5.149  16.809  30.894  0.2409 -0.2205  0.1195
 3411DPPC   C4A62624   5.587  16.826  30.813  0.0752  0.1187 -0.0691
 3411DPPC   C1B62625   5.130  17.955  31.516 -0.0746  0.1004  0.0414
 3411DPPC   C2B62626   5.549  17.954  31.630 -0.0011  0.2085 -0.1609
 3411DPPC   C3B62627   5.898  17.985  31.786  0.1322  0.0448  0.1442
 3411DPPC   C4B62628   6.253  17.822  31.559  0.1685 -0.0988  0.0314
 3412DPPC   NC362629  21.496   8.984  22.552  0.0113 -0.1769  0.4229
 3412DPPC   PO462630  21.958   8.933  22.615 -0.1190 -0.0002 -0.0469
 3412DPPC   GL162631  22.227   8.567  22.355  0.0816 -0.0837 -0.0754
 3412DPPC   GL262632  22.129   8.479  21.944  0.3191  0.1923 -0.0124
 3412DPPC   C1A62633  22.530   8.469  22.255  0.2925  0.0363 -0.2607
 3412DPPC   C2A62634  22.934   8.695  22.102  0.3778  0.3116 -0.0403
 3412DPPC   C3A62635  23.112   8.732  21.646 -0.2860  0.2338  0.1516
 3412DPPC   C4A62636  23.090   8.970  21.286 -0.3083  0.1193 -0.2311
 3412DPPC   C1B62637  22.161   8.206  21.560 -0.0918 -0.1084  0.1103
 3412DPPC   C2B62638  22.287   7.811  21.416  0.0498  0.2738  0.3056
 3412DPPC   C3B62639  22.670   7.620  21.220 -0.2434 -0.0491  0.1768
 3412DPPC   C4B62640  22.850   7.682  20.942  0.1785 -0.0001 -0.1759
 3413DPPC   NC362641   7.229  21.765  25.049  0.2552  0.1244 -0.2256
 3413DPPC   PO462642   7.618  21.894  24.960  0.0847  0.0498 -0.0015
 3413DPPC   GL162643   8.014  21.800  24.774  0.1001  0.0418  0.4066
 3413DPPC   GL262644   8.058  21.641  24.456  0.0581 -0.1963 -0.2358
 3413DPPC   C1A62645   8.357  21.561  24.890 -0.0159  0.4202  0.1798
 3413DPPC   C2A62646   8.658  21.262  25.039  0.3295 -0.1971  0.0059
 3413DPPC   C3A62647   8.894  20.892  25.054  0.4343 -0.0090 -0.0076
 3413DPPC   C4A62648   8.811  20.384  25.084 -0.0203 -0.1494 -0.0028
 3413DPPC   C1B62649   8.114  21.322  24.188  0.0220  0.3199  0.0918
 3413DPPC   C2B62650   7.836  20.999  24.324 -0.1896  0.0978 -0.1683
 3413DPPC   C3B62651   7.716  20.609  24.253 -0.0947 -0.0672  0.1115
 3413DPPC   C4B62652   7.414  20.433  24.424 -0.0898  0.0146 -0.1298
 3414DPPC   NC362653  20.620  14.087  21.289  0.0990 -0.0785  0.1097
 3414DPPC   PO462654  20.986  14.308  21.213  0.2772  0.0831 -0.0160
 3414DPPC   GL162655  21.230  14.331  20.875 -0.0263  0.1126  0.2482
 3414DPPC   GL262656  20.839  14.565  20.667 -0.2052  0.1525  0.5276
 3414DPPC   C1A62657  21.480  14.641  20.709 -0.2362 -0.0293 -0.0385
 3414DPPC   C2A62658  21.915  14.826  20.699 -0.3052  0.0332  0.1066
 3414DPPC   C3A62659  22.379  14.759  20.525  0.1267  0.0695 -0.0796
 3414DPPC   C4A62660  22.528  15.082  20.160  0.2583  0.1206 -0.0107
 3414DPPC   C1B62661  21.054  14.910  20.454  0.0790 -0.0765  0.0375
 3414DPPC   C2B62662  21.498  14.976  20.255 -0.2472 -0.5489  0.1125
 3414DPPC   C3B62663  21.734  14.963  19.876  0.4895 -0.2569 -0.0740
 3414DPPC   C4B62664  21.817  15.004  19.418  0.3336 -0.0858  0.0824
 3415DPPC   NC362665  16.947  11.257  15.020 -0.1825  0.2022 -0.0136
 3415DPPC   PO462666  16.423  11.150  15.075  0.1625  0.1095 -0.1066
 3415DPPC   GL162667  16.395  11.164  15.440 -0.0133  0.0780 -0.0891
 3415DPPC   GL262668  16.739  10.919  15.440 -0.0988  0.0390  0.2210
 3415DPPC   C1A62669  16.362  11.462  15.757 -0.4039  0.1966  0.0043
 3415DPPC   C2A62670  16.116  11.729  16.178  0.1187 -0.1451 -0.1910
 3415DPPC   C3A62671  15.954  12.107  16.271 -0.1299  0.2902 -0.3330
 3415DPPC   C4A62672  15.877  12.503  16.343 -0.0148  0.0723  0.0000
 3415DPPC   C1B62673  16.577  10.989  15.847 -0.0410  0.0181 -0.2091
 3415DPPC   C2B62674  16.616  10.990  16.283  0.0009  0.0343 -0.0594
 3415DPPC   C3B62675  16.887  11.164  16.472  0.0538  0.1712 -0.0739
 3415DPPC   C4B62676  16.863  11.550  16.666  0.0187 -0.1007  0.1012
 3416DPPC   NC362677  16.641  15.137  27.772 -0.0317  0.1075  0.0477
 3416DPPC   PO462678  17.034  15.055  27.786 -0.1955 -0.0785 -0.2933
 3416DPPC   GL162679  17.164  14.971  27.354  0.3537  0.1291  0.1302
 3416DPPC   GL262680  16.888  14.787  27.186 -0.4789 -0.2361  0.1178
 3416DPPC   C1A62681  17.287  14.924  26.908 -0.0419  0.0601 -0.1151
 3416DPPC   C2A62682  17.220  15.357  26.636 -0.1754 -0.0222  0.2996
 3416DPPC   C3A62683  17.535  15.723  26.535  0.3901 -0.3094  0.1298
 3416DPPC   C4A62684  17.673  16.065  26.929 -0.1940 -0.0580 -0.1343
 3416DPPC   C1B62685  17.079  14.480  27.013  0.0304  0.0277  0.0676
 3416DPPC   C2B62686  17.140  13.980  26.992  0.1469  0.0299  0.1010
 3416DPPC   C3B62687  17.337  13.653  26.695  0.3013 -0.2870  0.1482
 3416DPPC   C4B62688  17.323  13.196  26.736  0.1254  0.1240 -0.0203
 3417DPPC   NC362689  19.836  13.352  19.016  0.2172 -0.1288  0.1871
 3417DPPC   PO462690  19.552  13.029  19.087  0.2647  0.0987 -0.1380
 3417DPPC   GL162691  19.647  13.087  18.575  0.0032 -0.4764  0.0319
 3417DPPC   GL262692  19.425  13.077  18.355  0.0138  0.4095  0.1513
 3417DPPC   C1A62693  19.904  13.113  18.247  0.0831 -0.1343  0.3211
 3417DPPC   C2A62694  20.332  12.954  18.183 -0.2466 -0.2130 -0.0469
 3417DPPC   C3A62695  20.557  12.745  17.724  0.1789 -0.0796 -0.0273
 3417DPPC   C4A62696  20.510  12.442  17.487  0.3606 -0.0323 -0.0015
 3417DPPC   C1B62697  19.357  13.486  18.093  0.0104  0.1379 -0.1556
 3417DPPC   C2B62698  19.400  13.534  17.686 -0.0622 -0.0405 -0.0773
 3417DPPC   C3B62699  19.389  13.561  17.160  0.0616  0.2093 -0.0456
 3417DPPC   C4B62700  19.481  13.646  16.734 -0.0968  0.1521  0.1544
 3418DPPC   NC362701  24.385  16.850  38.369 -0.0238 -0.1006 -0.0727
 3418DPPC   PO462702  24.586  17.139  38.222  0.0291  0.1402 -0.2937
 3418DPPC   GL162703  24.453  17.117  37.888  0.0594  0.0686 -0.0383
 3418DPPC   GL262704  24.208  16.923  37.859  0.1380  0.1069  0.1799
 3418DPPC   C1A62705  24.472  17.084  37.417  0.2515  0.2660 -0.2342
 3418DPPC   C2A62706  24.081  16.958  37.097 -0.4119  0.0282  0.1659
 3418DPPC   C3A62707  23.824  16.580  37.010 -0.1970 -0.2582 -0.1530
 3418DPPC   C4A62708  23.465  16.331  36.845 -0.1810  0.3329 -0.3104
 3418DPPC   C1B62709  24.023  16.698  37.644 -0.0712 -0.0530  0.0379
 3418DPPC   C2B62710  24.005  16.348  37.443  0.1115 -0.2681 -0.1875
 3418DPPC   C3B62711  23.869  15.971  37.658 -0.4111 -0.1576 -0.0255
 3418DPPC   C4B62712  23.460  15.824  37.667 -0.2384 -0.1264 -0.0133
 3419DPPC   NC362713  23.651   8.739  41.104  0.2292 -0.2795 -0.0227
 3419DPPC   PO462714  23.577   8.555  40.700  0.0555 -0.0918  0.2151
 3419DPPC   GL162715  23.376   8.856  40.368 -0.0567 -0.2958 -0.6152
 3419DPPC   GL262716  23.399   8.769  40.095 -0.2788 -0.0645 -0.1949
 3419DPPC   C1A62717  23.427   9.290  40.127 -0.2424 -0.2009  0.0550
 3419DPPC   C2A62718  23.312   9.545  39.848 -0.0139 -0.0973  0.0676
 3419DPPC   C3A62719  22.979   9.581  39.481  0.0603 -0.5005  0.1386
 3419DPPC   C4A62720  22.960   9.504  39.028  0.5276  0.2271  0.0772
 3419DPPC   C1B62721  23.117   8.988  39.815  0.2144 -0.1920  0.3551
 3419DPPC   C2B62722  22.755   8.871  39.608  0.1133  0.0296 -0.3398
 3419DPPC   C3B62723  22.156   8.691  39.635  0.0315 -0.0498  0.0975
 3419DPPC   C4B62724  21.898   8.745  39.283  0.0344 -0.1660 -0.1917
 3420DPPC   NC362725   4.469   7.608  34.085 -0.1237 -0.1215 -0.2928
 3420DPPC   PO462726   4.586   8.061  34.256  0.2090 -0.0502 -0.1339
 3420DPPC   GL162727   4.958   8.171  34.427 -0.0465  0.0181 -0.2243
 3420DPPC   GL262728   5.131   8.037  34.244  0.0659  0.1383 -0.1510
 3420DPPC   C1A62729   5.068   8.613  34.529 -0.1384 -0.1202  0.0052
 3420DPPC   C2A62730   5.373   8.948  34.629  0.4386  0.0818 -0.1911
 3420DPPC   C3A62731   5.290   9.296  34.865 -0.0818 -0.3530 -0.3801
 3420DPPC   C4A62732   5.592   9.408  35.103  0.0107 -0.2004  0.3644
 3420DPPC   C1B62733   5.200   8.404  34.035  0.0149  0.1159  0.2505
 3420DPPC   C2B62734   5.218   8.544  33.618 -0.2116 -0.1703  0.0871
 3420DPPC   C3B62735   5.519   8.789  33.332  0.0306 -0.2372 -0.0923
 3420DPPC   C4B62736   5.620   9.044  32.872 -0.1511 -0.2392 -0.0124
 3421DPPC   NC362737   8.700  14.466  41.665 -0.3824 -0.0702 -0.3654
 3421DPPC   PO462738   8.653  14.162  41.311 -0.0411 -0.0980  0.0872
 3421DPPC   GL162739   8.495  14.127  40.908 -0.2580 -0.1780  0.0221
 3421DPPC   GL262740   8.337  14.425  40.768 -0.2069  0.0679  0.0261
 3421DPPC   C1A62741   8.614  14.109  40.435  0.1675  0.0061  0.1828
 3421DPPC   C2A62742   8.810  13.970  40.049 -0.1301 -0.0531  0.0900
 3421DPPC   C3A62743   9.005  13.816  39.629 -0.0536 -0.1594 -0.1028
 3421DPPC   C4A62744   9.099  13.990  39.282 -0.1395  0.1886 -0.2622
 3421DPPC   C1B62745   8.356  14.606  40.371  0.0720  0.3189 -0.1118
 3421DPPC   C2B62746   8.261  14.843  40.103  0.1037  0.0092 -0.0445
 3421DPPC   C3B62747   8.183  15.015  39.739 -0.0735  0.1099  0.1653
 3421DPPC   C4B62748   8.287  15.109  39.350 -0.0263 -0.1310 -0.0058
 3422DPPC   NC362749  13.264  21.655  39.520 -0.3687  0.2090 -0.0546
 3422DPPC   PO462750  12.941  21.361  39.159  0.3432 -0.2917  0.0038
 3422DPPC   GL162751  13.317  21.401  39.015 -0.1648  0.0081 -0.1317
 3422DPPC   GL262752  13.379  21.713  39.042  0.1137  0.0303  0.3780
 3422DPPC   C1A62753  13.381  21.221  38.557 -0.1402 -0.0567  0.2458
 3422DPPC   C2A62754  13.265  21.087  38.149  0.3035 -0.0144 -0.1704
 3422DPPC   C3A62755  13.302  20.652  38.340 -0.0496 -0.2082 -0.1037
 3422DPPC   C4A62756  13.444  20.209  38.141 -0.0595  0.1884 -0.1002
 3422DPPC   C1B62757  13.639  21.646  38.678 -0.1505  0.0175  0.1836
 3422DPPC   C2B62758  13.848  21.409  38.353  0.1636  0.3249  0.2661
 3422DPPC   C3B62759  13.812  20.960  38.149 -0.0034 -0.1112  0.0832
 3422DPPC   C4B62760  13.815  20.543  38.087 -0.3035 -0.1765 -0.0385
 3423DPPC   NC362761  15.615  13.346  39.865  0.0389  0.2449  0.1501
 3423DPPC   PO462762  15.880  13.686  39.665 -0.0946  0.4271 -0.1402
 3423DPPC   GL162763  16.010  13.549  40.055  0.0426 -0.2990 -0.0671
 3423DPPC   GL262764  16.079  13.868  40.259 -0.3495 -0.2509 -0.2269
 3423DPPC   C1A62765  15.993  13.421  40.525  0.1538 -0.0291  0.4336
 3423DPPC   C2A62766  15.639  13.508  40.822 -0.5476  0.4428  0.1239
 3423DPPC   C3A62767  15.491  13.812  41.050 -0.0432 -0.0996  0.2307
 3423DPPC   C4A62768  15.283  14.001  41.388  0.0393  0.0718 -0.1455
 3423DPPC   C1B62769  16.480  13.787  40.443  0.1711 -0.0382  0.0540
 3423DPPC   C2B62770  16.915  13.848  40.620 -0.0768  0.0363  0.0215
 3423DPPC   C3B62771  17.227  13.790  40.869  0.0343 -0.2050 -0.3398
 3423DPPC   C4B62772  17.683  13.621  40.971 -0.1103 -0.0183 -0.1213
 3424DPPC   NC362773  11.296  14.168  16.700  0.0737 -0.0851  0.0641
 3424DPPC   PO462774  11.436  14.519  17.027  0.0491 -0.0813 -0.1872
 3424DPPC   GL162775  11.624  14.461  17.565 -0.4038 -0.0696  0.1140
 3424DPPC   GL262776  11.964  14.501  17.427 -0.1453  0.0015  0.0686
 3424DPPC   C1A62777  11.871  14.535  17.951  0.2250  0.0467 -0.0792
 3424DPPC   C2A62778  12.147  14.298  18.178 -0.2429  0.0941  0.0027
 3424DPPC   C3A62779  12.450  14.092  18.433  0.3533  0.1867 -0.1531
 3424DPPC   C4A62780  12.659  13.752  18.573  0.2310  0.0173  0.1310
 3424DPPC   C1B62781  12.005  14.035  17.666 -0.2843  0.2343  0.0804
 3424DPPC   C2B62782  12.105  13.797  17.944  0.0065 -0.1139 -0.0693
 3424DPPC   C3B62783  12.033  13.685  18.504 -0.1828 -0.1170  0.2404
 3424DPPC   C4B62784  11.820  13.385  18.701 -0.0311 -0.0677  0.2676
 3425DPPC   NC362785  25.154  13.641  39.187 -0.1478  0.3635  0.1639
 3425DPPC   PO462786  25.333  13.940  38.895 -0.4346  0.0467  0.3731
 3425DPPC   GL162787  24.909  14.096  38.993  0.0303 -0.1861  0.0029
 3425DPPC   GL262788  24.814  13.800  38.856  0.0099 -0.2619  0.2258
 3425DPPC   C1A62789  24.471  14.222  39.073  0.2002 -0.0987 -0.1667
 3425DPPC   C2A62790  24.042  14.248  38.905  0.1381  0.0192 -0.1168
 3425DPPC   C3A62791  23.787  14.239  38.611  0.1906  0.2042  0.0291
 3425DPPC   C4A62792  23.552  14.388  38.345  0.0091  0.1281 -0.0183
 3425DPPC   C1B62793  24.800  13.660  38.404  0.0962 -0.0965  0.1961
 3425DPPC   C2B62794  24.528  13.609  38.100  0.0255 -0.2034 -0.2691
 3425DPPC   C3B62795  24.178  13.770  37.875 -0.2116  0.3043  0.2510
 3425DPPC   C4B62796  23.902  14.145  37.908  0.3290  0.1415 -0.1857
 3426DPPC   NC362797  26.856  10.869  23.128 -0.1608 -0.0819 -0.0420
 3426DPPC   PO462798  26.990  10.920  23.511  0.1269  0.0853 -0.2887
 3426DPPC   GL162799  26.593  10.823  23.555  0.1024 -0.1153 -0.0305
 3426DPPC   GL262800  26.332  10.996  23.622  0.0674  0.3152  0.2861
 3426DPPC   C1A62801  26.234  10.441  23.529 -0.0630  0.0162 -0.0312
 3426DPPC   C2A62802  25.796  10.297  23.697  0.0390  0.1504  0.0695
 3426DPPC   C3A62803  25.337  10.220  23.850  0.0699 -0.0831  0.2144
 3426DPPC   C4A62804  24.853  10.248  23.663 -0.2295 -0.2836 -0.2453
 3426DPPC   C1B62805  25.914  10.814  23.651  0.4238 -0.1892  0.0777
 3426DPPC   C2B62806  25.510  10.665  23.869  0.4122  0.1485 -0.1042
 3426DPPC   C3B62807  25.063  10.637  23.829 -0.0534  0.2054 -0.3297
 3426DPPC   C4B62808  24.607  10.677  23.729  0.2384 -0.0679 -0.0344
 3427DPPC   NC362809  17.624  17.878  25.515  0.3329 -0.0238 -0.1374
 3427DPPC   PO462810  17.344  17.673  25.879 -0.4003  0.1085 -0.1836
 3427DPPC   GL162811  17.479  17.180  25.877  0.0127 -0.0173 -0.0189
 3427DPPC   GL262812  17.750  16.978  25.968  0.2717  0.0923  0.1089
 3427DPPC   C1A62813  17.374  16.785  25.709 -0.0636  0.1345 -0.0329
 3427DPPC   C2A62814  17.379  16.325  25.740  0.0457 -0.1967  0.0375
 3427DPPC   C3A62815  17.257  16.038  25.333 -0.1232 -0.0336  0.0386
 3427DPPC   C4A62816  17.177  15.844  24.917 -0.0027  0.1741  0.0165
 3427DPPC   C1B62817  17.482  16.617  26.134 -0.2064  0.0842 -0.2247
 3427DPPC   C2B62818  17.094  16.493  26.275 -0.0329 -0.4161  0.4453
 3427DPPC   C3B62819  16.796  16.202  26.333  0.1198  0.0625 -0.2779
 3427DPPC   C4B62820  16.442  16.236  26.459  0.1837  0.0016  0.3279
 3428DPPC   NC362821  14.861  10.159  20.320 -0.2001 -0.1001 -0.2666
 3428DPPC   PO462822  15.232  10.132  20.265 -0.1095  0.0745 -0.0325
 3428DPPC   GL162823  15.114   9.714  20.040 -0.1141 -0.1576  0.1742
 3428DPPC   GL262824  14.968   9.570  20.311  0.3939 -0.0851 -0.1154
 3428DPPC   C1A62825  14.877   9.620  19.671  0.2346 -0.0381  0.1518
 3428DPPC   C2A62826  14.581   9.434  19.310 -0.0821  0.0286 -0.0577
 3428DPPC   C3A62827  14.359   9.292  18.797 -0.0306 -0.1255  0.1589
 3428DPPC   C4A62828  14.208   9.212  18.438  0.1428  0.0176 -0.0862
 3428DPPC   C1B62829  14.779   9.263  20.025 -0.0050  0.0059  0.2318
 3428DPPC   C2B62830  14.629   9.029  19.687 -0.0749 -0.2198  0.1089
 3428DPPC   C3B62831  14.404   9.007  19.221 -0.2888  0.3826  0.2374
 3428DPPC   C4B62832  14.085   8.878  19.054  0.0776  0.0837 -0.1282
 3429DPPC   NC362833  17.890  26.907  27.424 -0.2150 -0.2330 -0.3203
 3429DPPC   PO462834  18.070   0.176  27.683 -0.0349  0.0527 -0.2491
 3429DPPC   GL162835  18.051   0.617  27.638 -0.1631  0.0855 -0.0464
 3429DPPC   GL262836  17.965   0.746  27.946  0.0367  0.2657 -0.3223
 3429DPPC   C1A62837  18.107   1.022  27.491  0.0373  0.0091  0.5696
 3429DPPC   C2A62838  18.134   1.385  27.558  0.1273  0.0127 -0.3429
 3429DPPC   C3A62839  18.218   1.831  27.460 -0.1316  0.2882  0.3357
 3429DPPC   C4A62840  18.190   2.332  27.637  0.1690 -0.1937  0.4805
 3429DPPC   C1B62841  17.543   0.534  27.953  0.2020  0.0551 -0.0639
 3429DPPC   C2B62842  17.103   0.694  27.958  0.2390 -0.0699  0.2027
 3429DPPC   C3B62843  16.784   0.932  28.130 -0.0572  0.1968  0.0313
 3429DPPC   C4B62844  16.646   1.299  28.042 -0.1067 -0.0537  0.1029
 3430DPPC   NC362845  24.302   6.683  37.687 -0.1548  0.3070 -0.2772
 3430DPPC   PO462846  24.333   6.345  37.924  0.0509 -0.1649  0.0977
 3430DPPC   GL162847  23.857   6.418  37.803 -0.2160 -0.1629 -0.0223
 3430DPPC   GL262848  23.688   6.627  38.063 -0.1477 -0.1034 -0.0768
 3430DPPC   C1A62849  23.568   6.155  37.459  0.2645  0.0022 -0.0324
 3430DPPC   C2A62850  23.194   6.247  37.143  0.1688 -0.5974  0.1750
 3430DPPC   C3A62851  22.845   6.447  36.959 -0.0075  0.1130 -0.0296
 3430DPPC   C4A62852  22.771   6.588  36.493  0.0197 -0.1767 -0.0090
 3430DPPC   C1B62853  23.375   6.712  37.689 -0.1310  0.0453  0.2154
 3430DPPC   C2B62854  23.182   6.842  37.310 -0.0785  0.1588 -0.0067
 3430DPPC   C3B62855  23.303   7.131  36.982 -0.0956 -0.1073 -0.3204
 3430DPPC   C4B62856  23.502   7.242  36.629  0.4182 -0.0056 -0.0322
 3431DPPC   NC362857   7.703  15.623  31.206 -0.1307 -0.1207 -0.2426
 3431DPPC   PO462858   7.748  15.566  31.644  0.1339 -0.0182 -0.4606
 3431DPPC   GL162859   7.370  15.400  31.735  0.0613 -0.0747  0.2170
 3431DPPC   GL262860   7.272  15.705  31.744  0.2225  0.1604  0.1179
 3431DPPC   C1A62861   6.905  15.387  31.665 -0.1263 -0.3355  0.1155
 3431DPPC   C2A62862   6.493  15.616  31.702  0.0484  0.0669  0.1679
 3431DPPC   C3A62863   6.246  15.767  31.394  0.3191 -0.0178  0.2603
 3431DPPC   C4A62864   5.996  15.697  31.123  0.2004 -0.0944 -0.2063
 3431DPPC   C1B62865   6.944  15.907  31.529  0.2542 -0.0694  0.1202
 3431DPPC   C2B62866   6.726  16.180  31.744  0.2936 -0.0294 -0.2279
 3431DPPC   C3B62867   6.421  16.139  31.792  0.0227  0.1187 -0.0366
 3431DPPC   C4B62868   5.991  15.952  31.766  0.1999  0.1888  0.2652
 3432DPPC   NC362869  20.529  10.494  15.205  0.0644  0.0488  0.3634
 3432DPPC   PO462870  20.351  10.121  15.427 -0.0136 -0.2597  0.0725
 3432DPPC   GL162871  20.340   9.980  15.753  0.3920 -0.0518 -0.1007
 3432DPPC   GL262872  20.406   9.606  15.897 -0.2635  0.2715 -0.0062
 3432DPPC   C1A62873  20.071   9.948  16.028 -0.1938 -0.3744 -0.3213
 3432DPPC   C2A62874  20.170  10.141  16.435  0.2776  0.0960  0.1482
 3432DPPC   C3A62875  20.317  10.170  16.837 -0.2683  0.2999  0.1249
 3432DPPC   C4A62876  20.587  10.140  17.220 -0.2996  0.1480 -0.0746
 3432DPPC   C1B62877  20.409   9.567  16.308  0.1438 -0.1519 -0.2686
 3432DPPC   C2B62878  20.349   9.705  16.740  0.1008  0.2125  0.0592
 3432DPPC   C3B62879  20.288   9.756  17.192  0.1616  0.0130  0.2397
 3432DPPC   C4B62880  20.301   9.876  17.623 -0.2729  0.0209 -0.1116
 3433DPPC   NC362881   8.071  18.620  39.497 -0.1389  0.0739 -0.2562
 3433DPPC   PO462882   8.054  18.166  39.363 -0.1570  0.2057  0.4036
 3433DPPC   GL162883   8.149  17.724  39.184  0.1989 -0.1255 -0.3271
 3433DPPC   GL262884   8.269  17.695  38.809  0.3570  0.2203  0.1994
 3433DPPC   C1A62885   8.472  17.438  39.127 -0.2330  0.1590  0.2318
 3433DPPC   C2A62886   8.777  17.229  39.126 -0.2529 -0.1725  0.0880
 3433DPPC   C3A62887   9.273  17.156  39.180  0.0865 -0.0536  0.0031
 3433DPPC   C4A62888   9.511  16.816  39.364 -0.0815  0.1462  0.1567
 3433DPPC   C1B62889   8.543  17.484  38.530 -0.1170  0.2402 -0.3048
 3433DPPC   C2B62890   8.825  17.472  38.258  0.1573  0.3503 -0.1037
 3433DPPC   C3B62891   9.344  17.519  38.338  0.1365 -0.2997  0.3257
 3433DPPC   C4B62892   9.802  17.558  38.426  0.0617 -0.0099  0.2182
 3434DPPC   NC362893  25.816   9.330  20.413  0.0105  0.0314  0.1356
 3434DPPC   PO462894  25.845   9.700  20.597  0.1494 -0.3312 -0.0529
 3434DPPC   GL162895  25.746   9.909  20.952  0.1714 -0.0089 -0.1770
 3434DPPC   GL262896  25.823   9.783  21.317  0.0368  0.2126  0.2686
 3434DPPC   C1A62897  25.523  10.318  20.865 -0.0714  0.0970 -0.0588
 3434DPPC   C2A62898  25.089  10.369  21.049  0.0428 -0.0024 -0.1292
 3434DPPC   C3A62899  24.768  10.558  21.353  0.0777 -0.1400 -0.0313
 3434DPPC   C4A62900  24.498  10.719  21.370 -0.0732  0.1197  0.4776
 3434DPPC   C1B62901  25.387   9.934  21.266  0.2848  0.0099  0.0336
 3434DPPC   C2B62902  24.931  10.095  21.445  0.0277  0.2300  0.1117
 3434DPPC   C3B62903  24.487  10.155  21.642  0.2599 -0.1920 -0.0433
 3434DPPC   C4B62904  24.125  10.332  21.786  0.2269 -0.3368  0.4107
 3435DPPC   NC362905  14.555  16.698  20.964  0.0000 -0.3053  0.0486
 3435DPPC   PO462906  14.721  16.563  20.595 -0.0256  0.1844 -0.1628
 3435DPPC   GL162907  14.266  16.616  20.366 -0.0700 -0.1157 -0.1054
 3435DPPC   GL262908  14.200  16.809  20.663  0.1712  0.0423  0.1003
 3435DPPC   C1A62909  13.939  16.738  20.021 -0.0981  0.0781 -0.4634
 3435DPPC   C2A62910  13.608  16.853  19.729 -0.0464  0.1522  0.1528
 3435DPPC   C3A62911  13.516  17.093  19.366 -0.1150 -0.2882  0.3542
 3435DPPC   C4A62912  13.226  17.204  19.104  0.1315 -0.1327  0.2209
 3435DPPC   C1B62913  13.960  17.036  20.454  0.0303  0.3029  0.1362
 3435DPPC   C2B62914  14.007  17.281  20.050 -0.1149 -0.2106  0.2917
 3435DPPC   C3B62915  13.831  17.278  19.632 -0.3961  0.0162 -0.3908
 3435DPPC   C4B62916  13.968  17.000  19.237  0.2063  0.2423 -0.1916
 3436DPPC   NC362917  22.988   8.460  17.440 -0.0914 -0.1150 -0.0484
 3436DPPC   PO462918  22.735   8.086  17.495  0.0515 -0.2739  0.2504
 3436DPPC   GL162919  22.489   7.885  17.777 -0.0463  0.1559  0.0141
 3436DPPC   GL262920  22.222   7.698  17.691  0.0180  0.1703 -0.0367
 3436DPPC   C1A62921  22.340   8.060  18.203  0.2846 -0.1948 -0.2876
 3436DPPC   C2A62922  22.079   8.276  18.495  0.0077  0.1410 -0.0223
 3436DPPC   C3A62923  22.032   8.550  18.773  0.1520 -0.3779  0.1480
 3436DPPC   C4A62924  21.957   8.713  19.191 -0.0644 -0.2149  0.2533
 3436DPPC   C1B62925  21.865   7.940  17.865  0.0086 -0.2761  0.1881
 3436DPPC   C2B62926  21.671   8.060  18.051 -0.1447  0.0169 -0.2393
 3436DPPC   C3B62927  21.270   8.236  18.181 -0.0755 -0.0911  0.0030
 3436DPPC   C4B62928  21.033   8.299  18.503 -0.0907 -0.1089 -0.1310
 3437DPPC   NC362929  17.385  19.463  41.808  0.0398  0.0337  0.0371
 3437DPPC   PO462930  17.363  19.614  41.382  0.2285  0.1021  0.0581
 3437DPPC   GL162931  17.159  19.427  40.951 -0.4584  0.0850 -0.1332
 3437DPPC   GL262932  17.008  19.596  40.752 -0.0713  0.2904  0.0969
 3437DPPC   C1A62933  17.095  19.101  40.748  0.0084  0.2015 -0.0292
 3437DPPC   C2A62934  16.914  18.978  40.329 -0.1012 -0.4339 -0.0108
 3437DPPC   C3A62935  16.839  18.760  39.998  0.0075  0.1733  0.0851
 3437DPPC   C4A62936  16.718  18.462  39.694 -0.2340 -0.0694  0.0241
 3437DPPC   C1B62937  16.939  19.435  40.365 -0.2694 -0.1900  0.1941
 3437DPPC   C2B62938  17.015  19.267  39.969  0.1273 -0.2669  0.0194
 3437DPPC   C3B62939  17.503  19.268  39.831  0.2087  0.1562 -0.6342
 3437DPPC   C4B62940  17.861  19.043  40.114 -0.3864  0.0314  0.0113
 3438DPPC   NC362941   7.195   8.823  40.265 -0.1392 -0.2827 -0.3848
 3438DPPC   PO462942   7.419   9.190  40.502  0.2636 -0.0915  0.1083
 3438DPPC   GL162943   7.785   9.119  40.020  0.0187 -0.1995  0.0691
 3438DPPC   GL262944   7.896   8.833  39.978 -0.2816 -0.1438 -0.0769
 3438DPPC   C1A62945   7.763   9.391  39.661  0.1498 -0.1167 -0.0805
 3438DPPC   C2A62946   7.781   9.592  39.298  0.4725  0.1958  0.1940
 3438DPPC   C3A62947   7.687   9.809  38.904  0.1265  0.3166  0.2142
 3438DPPC   C4A62948   7.494  10.063  38.577  0.0484  0.4434 -0.2419
 3438DPPC   C1B62949   8.055   9.001  39.625  0.0907  0.4257  0.0206
 3438DPPC   C2B62950   8.122   9.202  39.302 -0.0870 -0.1116  0.1995
 3438DPPC   C3B62951   8.452   9.138  39.036 -0.3136 -0.0106 -0.0522
 3438DPPC   C4B62952   8.677   8.906  38.903  0.0734  0.1283 -0.3228
 3439DPPC   NC362953  13.630  23.526  37.506  0.1114  0.3678 -0.2811
 3439DPPC   PO462954  14.000  23.388  37.634  0.0275  0.0819 -0.1940
 3439DPPC   GL162955  13.903  23.039  37.458 -0.1661  0.0136  0.0496
 3439DPPC   GL262956  13.647  22.962  37.382  0.2396 -0.0926 -0.3790
 3439DPPC   C1A62957  13.927  22.617  37.557  0.1233  0.1395 -0.1247
 3439DPPC   C2A62958  14.034  22.220  37.362 -0.0514  0.0474 -0.1486
 3439DPPC   C3A62959  14.259  21.891  37.328  0.0126 -0.3076  0.2503
 3439DPPC   C4A62960  14.054  21.588  37.000 -0.0125  0.0858  0.6163
 3439DPPC   C1B62961  13.623  22.568  37.123 -0.0071  0.0011  0.0496
 3439DPPC   C2B62962  13.405  22.392  36.955  0.1811  0.2633 -0.0618
 3439DPPC   C3B62963  13.141  22.110  36.622 -0.0808  0.0582 -0.2843
 3439DPPC   C4B62964  12.991  21.797  36.437 -0.0607  0.0080  0.0261
 3440DPPC   NC362965  19.658  24.055  28.668  0.0259  0.2202 -0.2058
 3440DPPC   PO462966  19.336  23.783  28.819 -0.0211  0.1803  0.0657
 3440DPPC   GL162967  19.416  23.414  29.070  0.2053 -0.2445 -0.0321
 3440DPPC   GL262968  19.431  23.350  29.454  0.1721  0.0042 -0.2677
 3440DPPC   C1A62969  18.945  23.269  29.162  0.2430 -0.1298 -0.1665
 3440DPPC   C2A62970  18.870  22.821  29.219 -0.0085 -0.1362  0.4108
 3440DPPC   C3A62971  18.874  22.386  29.104  0.3222  0.0444  0.0577
 3440DPPC   C4A62972  18.725  21.900  28.956  0.3042 -0.0468  0.2305
 3440DPPC   C1B62973  19.416  23.021  29.501 -0.0194 -0.0867  0.0379
 3440DPPC   C2B62974  19.305  22.598  29.624 -0.0656  0.3270 -0.1426
 3440DPPC   C3B62975  19.060  22.294  29.751 -0.3237 -0.2009 -0.1544
 3440DPPC   C4B62976  18.632  22.353  29.715  0.0338 -0.1976 -0.1138
 3441DPPC   NC362977  26.788  12.925  23.746 -0.1497 -0.2018  0.3213
 3441DPPC   PO462978  26.455  13.248  23.847  0.3291 -0.0788 -0.1301
 3441DPPC   GL162979  26.151  13.042  23.849  0.0772  0.1052 -0.2795
 3441DPPC   GL262980  25.944  13.262  23.866  0.1773 -0.0456 -0.0314
 3441DPPC   C1A62981  25.890  12.716  23.960  0.5446 -0.0186  0.1110
 3441DPPC   C2A62982  25.432  12.651  24.022 -0.1918 -0.2004 -0.3002
 3441DPPC   C3A62983  24.926  12.450  24.137 -0.0791  0.1643  0.2190
 3441DPPC   C4A62984  24.694  12.293  24.485  0.1375 -0.2744  0.2185
 3441DPPC   C1B62985  25.735  13.131  24.139  0.2062  0.0457 -0.1703
 3441DPPC   C2B62986  25.532  13.036  24.452 -0.3087 -0.2633  0.0353
 3441DPPC   C3B62987  25.228  13.187  24.783  0.0490  0.1185 -0.1873
 3441DPPC   C4B62988  24.822  13.059  24.988  0.2629  0.0241  0.3409
 3442DPPC   NC362989  12.834  18.198  16.732 -0.1647  0.0012  0.2305
 3442DPPC   PO462990  12.866  18.206  17.221 -0.0519  0.1134 -0.1701
 3442DPPC   GL162991  13.013  18.019  17.546 -0.3390  0.2927  0.2076
 3442DPPC   GL262992  13.144  18.214  17.858 -0.2602  0.1717  0.0341
 3442DPPC   C1A62993  13.119  17.729  17.917 -0.1219 -0.1854  0.0520
 3442DPPC   C2A62994  13.267  17.609  18.335  0.0190 -0.0670  0.2034
 3442DPPC   C3A62995  13.373  17.531  18.790  0.1712  0.1776 -0.0441
 3442DPPC   C4A62996  13.512  17.633  19.177 -0.0487 -0.0095  0.0883
 3442DPPC   C1B62997  13.056  18.108  18.290  0.1519  0.2035  0.1394
 3442DPPC   C2B62998  13.002  18.154  18.675  0.0048  0.0308  0.0640
 3442DPPC   C3B62999  13.327  18.062  18.897 -0.0778  0.1182 -0.0062
 3442DPPC   C4B63000  13.389  18.168  19.307 -0.1474  0.1724  0.1344
  27.05558  27.05558  51.82687
