Written by MDAnalysis
63000
    1BOLB   NC1    1  17.480  12.710  19.120
    1BOLB   PO1    2  17.160  12.890  19.320
    1BOLB   GL1    3  17.260  13.340  19.470
    1BOLB   GL2    4  17.490  13.660  19.370
    1BOLB   C1A    5  17.190  13.640  19.840
    1BOLB   C2A    6  17.470  13.920  20.110
    1BOLB   C3A    7  17.650  14.100  20.430
    1BOLB   C4A    8  17.860  13.830  20.750
    1BOLB   C1B    9  17.770  13.800  19.720
    1BOLB   C2B   10  17.930  13.760  20.180
    1BOLB   C3B   11  18.240  13.890  20.420
    1BOLB   C4B   12  18.540  14.300  20.500
    1BOLB   NC2   13  16.630  11.630  20.340
    1BOLB   PO2   14  16.760  12.060  20.080
    1BOLB   GL3   15  17.000  12.120  20.460
    1BOLB   GL4   16  16.910  11.830  20.670
    1BOLB   C1C   17  17.320  12.220  20.570
    1BOLB   C2C   18  17.560  12.480  20.580
    1BOLB   C3C   19  17.630  12.880  20.870
    1BOLB   C4C   20  17.770  13.310  20.830
    1BOLB   C1D   21  16.950  12.160  20.960
    1BOLB   C2D   22  17.020  12.150  21.350
    1BOLB   C3D   23  17.130  12.360  21.620
    1BOLB   C4D   24  17.090  12.230  22.100
    2BOLB   NC1   25  14.260  20.650  37.090
    2BOLB   PO1   26  14.140  20.350  36.820
    2BOLB   GL1   27  13.640  20.480  36.830
    2BOLB   GL2   28  13.600  20.230  36.630
    2BOLB   C1A   29  13.180  20.580  36.990
    2BOLB   C2A   30  12.770  20.440  37.010
    2BOLB   C3A   31  12.370  20.280  37.160
    2BOLB   C4A   32  12.010  19.950  37.270
    2BOLB   C1B   33  13.230  20.290  36.610
    2BOLB   C2B   34  12.730  20.170  36.520
    2BOLB   C3B   35  12.310  20.250  36.640
    2BOLB   C4B   36  11.890  20.280  36.890
    2BOLB   NC2   37  10.360  19.470  39.220
    2BOLB   PO2   38  10.860  19.510  39.450
    2BOLB   GL3   39  10.920  19.660  39.030
    2BOLB   GL4   40  10.910  19.450  38.650
    2BOLB   C1C   41  11.290  19.720  38.770
    2BOLB   C2C   42  11.430  19.580  38.370
    2BOLB   C3C   43  11.640  19.600  37.920
    2BOLB   C4C   44  11.830  19.860  37.700
    2BOLB   C1D   45  11.200  19.130  38.880
    2BOLB   C2D   46  11.290  18.740  38.760
    2BOLB   C3D   47  11.630  18.680  38.530
    2BOLB   C4D   48  11.880  18.440  38.200
    3BOLB   NC1   49  13.800  18.870  36.440
    3BOLB   PO1   50  14.040  18.550  36.380
    3BOLB   GL1   51  13.670  18.390  36.390
    3BOLB   GL2   52  13.570  18.220  36.710
    3BOLB   C1A   53  13.180  18.420  36.450
    3BOLB   C2A   54  12.790  18.440  36.380
    3BOLB   C3A   55  12.360  18.630  36.270
    3BOLB   C4A   56  12.010  18.610  35.970
    3BOLB   C1B   57  13.540  18.200  37.130
    3BOLB   C2B   58  13.390  17.920  37.470
    3BOLB   C3B   59  13.000  17.860  37.540
    3BOLB   C4B   60  12.610  17.880  37.760
    3BOLB   NC2   61   9.680  17.300  35.490
    3BOLB   PO2   62   9.570  17.630  35.270
    3BOLB   GL3   63  10.020  17.820  35.570
    3BOLB   GL4   64  10.160  17.480  35.580
    3BOLB   C1C   65  10.350  18.010  35.560
    3BOLB   C2C   66  10.800  18.110  35.580
    3BOLB   C3C   67  11.250  18.170  35.660
    3BOLB   C4C   68  11.540  18.620  35.820
    3BOLB   C1D   69  10.510  17.460  35.240
    3BOLB   C2D   70  10.490  17.500  34.850
    3BOLB   C3D   71  10.470  17.910  34.660
    3BOLB   C4D   72  10.520  18.230  34.510
    4BOLB   NC1   73  29.415  12.700  36.330
    4BOLB   PO1   74  29.545  12.300  36.630
    4BOLB   GL1   75  29.795  12.560  36.640
    4BOLB   GL2   76  29.825  12.540  37.040
    4BOLB   C1A   77  30.235  12.530  36.530
    4BOLB   C2A   78  30.675  12.500  36.620
    4BOLB   C3A   79  30.995  12.180  36.620
    4BOLB   C4A   80  31.305  11.930  36.750
    4BOLB   C1B   81  30.365  12.550  37.010
    4BOLB   C2B   82  30.675  12.620  37.190
    4BOLB   C3B   83  31.125  12.570  37.050
    4BOLB   C4B   84  31.465  12.330  37.150
    4BOLB   NC2   85  33.525  11.400  37.850
    4BOLB   PO2   86  33.265  11.020  38.150
    4BOLB   GL3   87  32.995  11.310  37.780
    4BOLB   GL4   88  33.065  11.670  37.750
    4BOLB   C1C   89  32.585  11.470  37.750
    4BOLB   C2C   90  32.275  11.560  37.500
    4BOLB   C3C   91  32.065  11.670  37.140
    4BOLB   C4C   92  31.735  11.860  36.880
    4BOLB   C1D   93  32.755  11.990  37.630
    4BOLB   C2D   94  32.385  12.020  37.510
    4BOLB   C3D   95  31.995  12.000  37.460
    4BOLB   C4D   96  31.615  11.910  37.380
    5BOLB   NC1   97  13.860  20.700  26.450
    5BOLB   PO1   98  13.680  20.960  26.690
    5BOLB   GL1   99  13.350  21.220  26.710
    5BOLB   GL2  100  13.400  21.530  26.920
    5BOLB   C1A  101  12.910  21.390  26.620
    5BOLB   C2A  102  12.470  21.510  26.660
    5BOLB   C3A  103  12.150  21.420  26.860
    5BOLB   C4A  104  11.810  21.100  26.950
    5BOLB   C1B  105  12.960  21.800  26.940
    5BOLB   C2B  106  12.540  22.070  26.900
    5BOLB   C3B  107  12.600  22.400  26.700
    5BOLB   C4B  108  12.740  22.290  26.310
    5BOLB   NC2  109   9.810  22.030  26.350
    5BOLB   PO2  110   9.940  22.150  25.900
    5BOLB   GL3  111  10.230  21.810  25.950
    5BOLB   GL4  112  10.610  22.040  25.880
    5BOLB   C1C  113  10.600  21.480  25.900
    5BOLB   C2C  114  10.980  21.430  26.060
    5BOLB   C3C  115  11.160  21.390  26.430
    5BOLB   C4C  116  11.410  21.180  26.680
    5BOLB   C1D  117  11.020  22.020  25.750
    5BOLB   C2D  118  11.350  21.750  25.920
    5BOLB   C3D  119  11.610  21.540  26.230
    5BOLB   C4D  120  12.090  21.590  26.350
    6BOLB   NC1  121  25.950   8.540  37.810
    6BOLB   PO1  122  26.320   8.730  37.670
    6BOLB   GL1  123  26.555   8.380  37.730
    6BOLB   GL2  124  26.350   8.110  37.700
    6BOLB   C1A  125  26.865   8.290  38.000
    6BOLB   C2A  126  27.005   8.090  38.360
    6BOLB   C3A  127  27.165   7.690  38.470
    6BOLB   C4A  128  27.295   7.320  38.720
    6BOLB   C1B  129  26.515   7.780  37.880
    6BOLB   C2B  130  26.675   7.520  38.080
    6BOLB   C3B  131  26.635   7.160  38.320
    6BOLB   C4B  132  26.735   6.800  38.570
    6BOLB   NC2  133  28.385   5.490  39.890
    6BOLB   PO2  134  28.345   5.740  40.230
    6BOLB   GL3  135  27.885   5.940  40.110
    6BOLB   GL4  136  28.105   6.260  40.190
    6BOLB   C1C  137  27.745   6.410  39.860
    6BOLB   C2C  138  27.355   6.540  39.580
    6BOLB   C3C  139  27.335   6.610  39.170
    6BOLB   C4C  140  27.185   6.970  38.930
    6BOLB   C1D  141  28.355   6.630  40.060
    6BOLB   C2D  142  28.625   6.760  39.730
    6BOLB   C3D  143  28.465   7.150  39.500
    6BOLB   C4D  144  28.485   7.440  39.200
    7BOLB   NC1  145  26.390   3.630  27.520
    7BOLB   PO1  146  26.110   3.680  27.920
    7BOLB   GL1  147  26.120   4.040  28.170
    7BOLB   GL2  148  26.120   4.410  28.130
    7BOLB   C1A  149  26.070   4.210  28.620
    7BOLB   C2A  150  26.070   4.570  28.780
    7BOLB   C3A  151  25.980   4.720  29.170
    7BOLB   C4A  152  25.610   5.060  29.270
    7BOLB   C1B  153  26.160   4.740  28.000
    7BOLB   C2B  154  26.110   5.030  27.700
    7BOLB   C3B  155  26.440   5.170  27.460
    7BOLB   C4B  156  26.615   5.560  27.220
    7BOLB   NC2  157  25.730   3.290  27.920
    7BOLB   PO2  158  25.320   3.560  27.900
    7BOLB   GL3  159  25.340   3.950  27.910
    7BOLB   GL4  160  25.660   3.950  28.000
    7BOLB   C1C  161  25.000   4.150  28.070
    7BOLB   C2C  162  25.040   4.540  28.410
    7BOLB   C3C  163  25.100   4.920  28.700
    7BOLB   C4C  164  25.310   5.190  28.950
    7BOLB   C1D  165  25.570   4.330  28.270
    7BOLB   C2D  166  25.770   4.650  28.390
    7BOLB   C3D  167  25.930   5.050  28.270
    7BOLB   C4D  168  26.050   5.430  28.170
    8BOLB   NC1  169  33.745  11.460  36.570
    8BOLB   PO1  170  33.575  11.200  36.900
    8BOLB   GL1  171  33.225  11.000  36.880
    8BOLB   GL2  172  33.205  10.920  36.530
    8BOLB   C1A  173  32.805  10.790  36.950
    8BOLB   C2A  174  32.515  10.890  36.630
    8BOLB   C3A  175  32.065  11.080  36.690
    8BOLB   C4A  176  31.595  11.120  36.670
    8BOLB   C1B  177  33.105  10.720  36.150
    8BOLB   C2B  178  32.855  10.420  35.990
    8BOLB   C3B  179  32.465  10.350  35.800
    8BOLB   C4B  180  32.125  10.310  35.620
    8BOLB   NC2  181  29.545  11.430  36.480
    8BOLB   PO2  182  29.465  11.790  36.110
    8BOLB   GL3  183  29.765  11.840  36.470
    8BOLB   GL4  184  30.025  12.130  36.480
    8BOLB   C1C  185  30.135  11.720  36.750
    8BOLB   C2C  186  30.465  11.550  36.760
    8BOLB   C3C  187  30.905  11.560  36.870
    8BOLB   C4C  188  31.335  11.400  36.780
    8BOLB   C1D  189  30.415  12.040  36.540
    8BOLB   C2D  190  30.785  11.780  36.380
    8BOLB   C3D  191  31.135  11.530  36.320
    8BOLB   C4D  192  31.305  11.360  35.950
    9BOLB   NC1  193  14.160  16.290  32.880
    9BOLB   PO1  194  14.430  15.960  32.630
    9BOLB   GL1  195  13.970  15.960  32.530
    9BOLB   GL2  196  13.790  16.050  32.750
    9BOLB   C1A  197  13.660  15.850  32.290
    9BOLB   C2A  198  13.260  15.940  32.250
    9BOLB   C3A  199  12.940  15.720  32.210
    9BOLB   C4A  200  12.440  15.640  32.140
    9BOLB   C1B  201  13.370  15.890  32.820
    9BOLB   C2B  202  13.080  15.820  32.990
    9BOLB   C3B  203  12.610  16.000  33.050
    9BOLB   C4B  204  12.330  16.210  32.820
    9BOLB   NC2  205  10.050  14.760  32.050
    9BOLB   PO2  206  10.360  14.490  31.910
    9BOLB   GL3  207  10.750  14.750  31.790
    9BOLB   GL4  208  10.920  14.470  31.610
    9BOLB   C1C  209  11.080  14.770  32.020
    9BOLB   C2C  210  11.480  15.000  32.200
    9BOLB   C3C  211  11.730  15.180  32.390
    9BOLB   C4C  212  12.040  15.410  32.300
    9BOLB   C1D  213  11.350  14.480  31.740
    9BOLB   C2D  214  11.690  14.460  31.430
    9BOLB   C3D  215  12.000  14.780  31.310
    9BOLB   C4D  216  12.390  14.950  31.430
   10BOLB   NC1  217  16.710  19.540  40.430
   10BOLB   PO1  218  17.030  19.420  40.650
   10BOLB   GL1  219  16.930  19.720  40.870
   10BOLB   GL2  220  17.010  19.940  41.220
   10BOLB   C1A  221  16.570  19.780  41.190
   10BOLB   C2A  222  16.190  20.030  41.420
   10BOLB   C3A  223  15.960  20.140  41.930
   10BOLB   C4A  224  15.980  19.790  42.310
   10BOLB   C1B  225  16.730  20.110  41.580
   10BOLB   C2B  226  16.510  20.140  41.990
   10BOLB   C3B  227  16.360  20.100  42.450
   10BOLB   C4B  228  16.480  20.070  42.890
   10BOLB   NC2  229  14.450  20.460  44.440
   10BOLB   PO2  230  14.610  20.290  44.000
   10BOLB   GL3  231  15.040  20.120  43.720
   10BOLB   GL4  232  14.990  20.360  43.540
   10BOLB   C1C  233  15.360  19.830  43.450
   10BOLB   C2C  234  15.710  19.610  43.260
   10BOLB   C3C  235  16.030  19.630  42.990
   10BOLB   C4C  236  16.180  19.610  42.620
   10BOLB   C1D  237  15.270  20.190  43.120
   10BOLB   C2D  238  15.330  20.250  42.760
   10BOLB   C3D  239  15.100  20.070  42.410
   10BOLB   C4D  240  15.100  19.900  42.090
   11BOLB   NC1  241  25.520  18.450  33.630
   11BOLB   PO1  242  25.710  18.350  33.170
   11BOLB   GL1  243  25.860  18.600  32.810
   11BOLB   GL2  244  25.560  18.740  32.580
   11BOLB   C1A  245  26.010  19.090  32.690
   11BOLB   C2A  246  26.060  19.340  32.280
   11BOLB   C3A  247  26.080  19.570  31.790
   11BOLB   C4A  248  26.010  20.010  31.520
   11BOLB   C1B  249  25.580  19.140  32.440
   11BOLB   C2B  250  25.460  19.520  32.220
   11BOLB   C3B  251  25.480  19.760  31.840
   11BOLB   C4B  252  25.480  19.890  31.570
   11BOLB   NC2  253  26.715  22.050  30.690
   11BOLB   PO2  254  26.585  22.380  30.990
   11BOLB   GL3  255  26.370  21.970  31.030
   11BOLB   GL4  256  26.465  21.710  31.180
   11BOLB   C1C  257  25.980  21.650  31.030
   11BOLB   C2C  258  25.870  21.210  31.100
   11BOLB   C3C  259  25.710  20.760  31.230
   11BOLB   C4C  260  25.730  20.330  31.450
   11BOLB   C1D  261  26.370  21.390  30.870
   11BOLB   C2D  262  26.240  21.010  30.710
   11BOLB   C3D  263  25.840  20.810  30.570
   11BOLB   C4D  264  25.390  20.820  30.420
   12BOLB   NC1  265  17.650  11.660  36.850
   12BOLB   PO1  266  17.610  11.460  36.460
   12BOLB   GL1  267  17.280  11.100  36.470
   12BOLB   GL2  268  17.340  10.770  36.170
   12BOLB   C1A  269  16.890  10.820  36.740
   12BOLB   C2A  270  16.580  10.440  36.790
   12BOLB   C3A  271  16.280  10.120  36.790
   12BOLB   C4A  272  16.190   9.700  36.820
   12BOLB   C1B  273  16.980  10.620  36.270
   12BOLB   C2B  274  16.520  10.430  36.220
   12BOLB   C3B  275  16.330  10.070  36.270
   12BOLB   C4B  276  15.980   9.690  36.390
   12BOLB   NC2  277  14.500   8.140  36.150
   12BOLB   PO2  278  14.870   7.960  36.180
   12BOLB   GL3  279  15.170   8.340  36.270
   12BOLB   GL4  280  15.220   8.690  36.080
   12BOLB   C1C  281  15.620   8.410  36.130
   12BOLB   C2C  282  15.890   8.660  36.280
   12BOLB   C3C  283  15.900   8.980  36.580
   12BOLB   C4C  284  15.900   9.380  36.730
   12BOLB   C1D  285  15.430   9.010  35.870
   12BOLB   C2D  286  15.310   9.500  35.830
   12BOLB   C3D  287  14.910   9.650  35.770
   12BOLB   C4D  288  14.750   9.880  35.410
   13BOLB   NC1  289  13.080  14.850  21.950
   13BOLB   PO1  290  12.980  15.270  21.830
   13BOLB   GL1  291  13.470  15.320  21.690
   13BOLB   GL2  292  13.580  15.000  21.960
   13BOLB   C1A  293  13.690  15.620  21.780
   13BOLB   C2A  294  13.770  16.110  21.650
   13BOLB   C3A  295  13.500  16.360  21.360
   13BOLB   C4A  296  13.280  16.660  21.310
   13BOLB   C1B  297  13.680  15.340  22.200
   13BOLB   C2B  298  13.970  15.740  22.310
   13BOLB   C3B  299  14.180  15.980  22.000
   13BOLB   C4B  300  14.100  16.430  21.890
   13BOLB   NC2  301  14.060  17.270  19.270
   13BOLB   PO2  302  13.740  17.210  19.540
   13BOLB   GL3  303  13.620  17.340  19.890
   13BOLB   GL4  304  13.650  17.720  19.870
   13BOLB   C1C  305  13.590  17.520  20.290
   13BOLB   C2C  306  13.600  17.400  20.680
   13BOLB   C3C  307  13.580  17.340  21.160
   13BOLB   C4C  308  13.410  17.000  21.440
   13BOLB   C1D  309  13.730  18.000  20.260
   13BOLB   C2D  310  13.960  17.760  20.550
   13BOLB   C3D  311  14.130  17.400  20.490
   13BOLB   C4D  312  14.020  17.150  20.180
   14BOLB   NC1  313  31.975  18.100  30.390
   14BOLB   PO1  314  32.185  18.100  30.020
   14BOLB   GL1  315  31.925  17.730  29.970
   14BOLB   GL2  316  31.675  17.780  30.130
   14BOLB   C1A  317  31.795  17.330  30.130
   14BOLB   C2A  318  31.455  17.100  30.120
   14BOLB   C3A  319  31.055  17.020  29.940
   14BOLB   C4A  320  30.905  16.830  29.630
   14BOLB   C1B  321  31.315  17.700  30.370
   14BOLB   C2B  322  30.945  17.770  30.560
   14BOLB   C3B  323  30.525  17.890  30.660
   14BOLB   C4B  324  30.235  17.960  30.930
   14BOLB   NC2  325  32.835  17.390  28.440
   14BOLB   PO2  326  32.815  16.870  28.390
   14BOLB   GL3  327  32.315  16.910  28.500
   14BOLB   GL4  328  32.085  17.060  28.820
   14BOLB   C1C  329  31.835  16.850  28.430
   14BOLB   C2C  330  31.415  16.920  28.480
   14BOLB   C3C  331  31.065  16.820  28.720
   14BOLB   C4C  332  30.895  16.670  29.130
   14BOLB   C1D  333  31.645  16.900  28.950
   14BOLB   C2D  334  31.395  16.520  28.980
   14BOLB   C3D  335  31.065  16.180  29.140
   14BOLB   C4D  336  30.655  16.140  29.250
   15BOLB   NC1  337  13.580  19.000  27.640
   15BOLB   PO1  338  13.530  19.020  27.220
   15BOLB   GL1  339  13.250  19.120  26.950
   15BOLB   GL2  340  13.370  19.090  26.690
   15BOLB   C1A  341  12.870  19.220  26.800
   15BOLB   C2A  342  12.530  19.170  26.520
   15BOLB   C3A  343  12.190  19.090  26.280
   15BOLB   C4A  344  12.030  19.460  26.050
   15BOLB   C1B  345  13.030  18.930  26.450
   15BOLB   C2B  346  12.790  18.870  26.180
   15BOLB   C3B  347  12.780  18.940  25.770
   15BOLB   C4B  348  12.720  18.580  25.420
   15BOLB   NC2  349   9.840  18.380  25.520
   15BOLB   PO2  350  10.020  18.800  25.380
   15BOLB   GL3  351  10.200  19.160  25.240
   15BOLB   GL4  352  10.440  19.180  24.880
   15BOLB   C1C  353  10.610  19.360  25.290
   15BOLB   C2C  354  10.890  19.520  25.570
   15BOLB   C3C  355  11.120  19.530  25.800
   15BOLB   C4C  356  11.530  19.540  25.920
   15BOLB   C1D  357  10.840  19.150  24.890
   15BOLB   C2D  358  11.220  18.990  24.910
   15BOLB   C3D  359  11.620  19.050  24.870
   15BOLB   C4D  360  11.990  18.980  24.820
   16BOLB   NC1  361  26.330   7.890  35.840
   16BOLB   PO1  362  26.330   7.740  36.200
   16BOLB   GL1  363  26.495   7.380  36.230
   16BOLB   GL2  364  26.535   7.380  36.540
   16BOLB   C1A  365  26.865   7.080  36.250
   16BOLB   C2A  366  27.035   6.640  36.070
   16BOLB   C3A  367  27.195   6.390  35.780
   16BOLB   C4A  368  27.175   6.210  35.470
   16BOLB   C1B  369  26.915   7.290  36.790
   16BOLB   C2B  370  27.195   6.990  36.640
   16BOLB   C3B  371  27.225   6.480  36.720
   16BOLB   C4B  372  27.165   6.270  36.360
   16BOLB   NC2  373  27.245   3.370  35.410
   16BOLB   PO2  374  27.055   3.770  35.370
   16BOLB   GL3  375  27.065   4.280  35.330
   16BOLB   GL4  376  27.335   4.450  35.550
   16BOLB   C1C  377  26.875   4.680  35.370
   16BOLB   C2C  378  26.755   5.180  35.420
   16BOLB   C3C  379  26.655   5.500  35.520
   16BOLB   C4C  380  26.885   5.900  35.470
   16BOLB   C1D  381  27.195   4.940  35.590
   16BOLB   C2D  382  27.115   5.270  35.770
   16BOLB   C3D  383  26.945   5.580  35.980
   16BOLB   C4D  384  27.015   5.980  35.980
   17BOLB   NC1  385  22.340   8.880  19.840
   17BOLB   PO1  386  22.220   8.620  20.190
   17BOLB   GL1  387  22.270   9.010  20.360
   17BOLB   GL2  388  21.990   9.300  20.340
   17BOLB   C1A  389  22.380   9.340  20.650
   17BOLB   C2A  390  22.250   9.500  20.980
   17BOLB   C3A  391  21.870   9.770  21.140
   17BOLB   C4A  392  21.650  10.060  21.220
   17BOLB   C1B  393  22.090   9.710  20.280
   17BOLB   C2B  394  22.350   9.900  20.530
   17BOLB   C3B  395  22.200  10.180  20.920
   17BOLB   C4B  396  22.090  10.350  21.330
   17BOLB   NC2  397  19.840   9.050  20.470
   17BOLB   PO2  398  19.760   9.490  20.340
   17BOLB   GL3  399  19.890   9.510  20.700
   17BOLB   GL4  400  19.790   9.790  20.900
   17BOLB   C1C  401  20.300   9.610  20.920
   17BOLB   C2C  402  20.440   9.960  21.300
   17BOLB   C3C  403  20.740  10.270  21.360
   17BOLB   C4C  404  21.150  10.270  21.260
   17BOLB   C1D  405  19.940   9.690  21.310
   17BOLB   C2D  406  20.040   9.980  21.680
   17BOLB   C3D  407  20.290  10.300  22.010
   17BOLB   C4D  408  20.600  10.660  22.150
   18BOLB   NC1  409  15.660   8.710  39.680
   18BOLB   PO1  410  15.770   8.920  40.050
   18BOLB   GL1  411  16.160   8.990  39.790
   18BOLB   GL2  412  16.110   9.070  39.470
   18BOLB   C1A  413  16.540   8.850  39.590
   18BOLB   C2A  414  16.800   9.100  39.260
   18BOLB   C3A  415  16.860   9.430  39.090
   18BOLB   C4A  416  16.810   9.910  39.030
   18BOLB   C1B  417  16.430   9.350  39.550
   18BOLB   C2B  418  16.630   9.770  39.560
   18BOLB   C3B  419  16.760  10.200  39.450
   18BOLB   C4B  420  16.840  10.430  39.130
   18BOLB   NC2  421  14.800   9.010  38.390
   18BOLB   PO2  422  15.090   8.570  38.410
   18BOLB   GL3  423  15.520   8.760  38.350
   18BOLB   GL4  424  15.610   8.870  38.030
   18BOLB   C1C  425  15.650   9.120  38.540
   18BOLB   C2C  426  16.060   9.500  38.470
   18BOLB   C3C  427  16.220  10.000  38.540
   18BOLB   C4C  428  16.590  10.170  38.730
   18BOLB   C1D  429  15.850   9.320  37.930
   18BOLB   C2D  430  15.970   9.690  37.960
   18BOLB   C3D  431  16.240  10.040  38.070
   18BOLB   C4D  432  16.550  10.350  38.240
   19BOLB   NC1  433  29.015  20.180  24.340
   19BOLB   PO1  434  29.025  19.770  24.150
   19BOLB   GL1  435  28.535  19.840  24.050
   19BOLB   GL2  436  28.335  19.630  24.080
   19BOLB   C1A  437  28.105  20.020  23.890
   19BOLB   C2A  438  27.765  19.770  23.950
   19BOLB   C3A  439  27.345  19.840  24.060
   19BOLB   C4A  440  26.945  20.060  24.110
   19BOLB   C1B  441  27.975  19.570  24.350
   19BOLB   C2B  442  27.725  19.340  24.640
   19BOLB   C3B  443  27.605  18.950  24.800
   19BOLB   C4B  444  27.535  18.550  24.700
   19BOLB   NC2  445  28.185  21.630  24.890
   19BOLB   PO2  446  28.565  21.410  24.930
   19BOLB   GL3  447  28.185  21.100  24.830
   19BOLB   GL4  448  28.125  21.030  24.460
   19BOLB   C1C  449  27.665  21.190  24.690
   19BOLB   C2C  450  27.425  21.160  24.390
   19BOLB   C3C  451  27.085  20.850  24.200
   19BOLB   C4C  452  26.825  20.430  24.070
   19BOLB   C1D  453  27.715  20.730  24.440
   19BOLB   C2D  454  27.375  20.690  24.580
   19BOLB   C3D  455  26.955  20.610  24.720
   19BOLB   C4D  456  26.665  20.300  24.510
   20BOLB   NC1  457  27.925  23.520  33.510
   20BOLB   PO1  458  27.625  23.530  33.860
   20BOLB   GL1  459  27.395  23.170  34.150
   20BOLB   GL2  460  27.625  23.030  34.350
   20BOLB   C1A  461  27.175  22.800  34.150
   20BOLB   C2A  462  26.875  22.540  34.230
   20BOLB   C3A  463  26.420  22.460  34.250
   20BOLB   C4A  464  26.060  22.760  34.170
   20BOLB   C1B  465  27.655  22.620  34.050
   20BOLB   C2B  466  27.365  22.240  33.970
   20BOLB   C3B  467  26.895  22.070  34.050
   20BOLB   C4B  468  26.575  21.980  34.340
   20BOLB   NC2  469  27.125  24.780  33.940
   20BOLB   PO2  470  26.905  25.060  33.680
   20BOLB   GL3  471  26.625  24.650  33.800
   20BOLB   GL4  472  26.475  24.380  33.580
   20BOLB   C1C  473  26.330  24.410  34.040
   20BOLB   C2C  474  26.120  24.010  34.030
   20BOLB   C3C  475  26.020  23.630  33.950
   20BOLB   C4C  476  26.100  23.190  34.060
   20BOLB   C1D  477  26.070  24.260  33.560
   20BOLB   C2D  478  25.770  23.960  33.570
   20BOLB   C3D  479  25.700  23.590  33.540
   20BOLB   C4D  480  25.300  23.290  33.540
   21BOLB   NC1  481  26.995   8.760  28.190
   21BOLB   PO1  482  26.865   8.700  27.750
   21BOLB   GL1  483  26.985   8.380  27.360
   21BOLB   GL2  484  26.835   8.330  27.030
   21BOLB   C1A  485  27.235   8.060  27.350
   21BOLB   C2A  486  27.305   7.610  27.120
   21BOLB   C3A  487  27.375   7.150  27.100
   21BOLB   C4A  488  27.005   6.860  26.930
   21BOLB   C1B  489  26.965   7.930  26.940
   21BOLB   C2B  490  27.105   7.920  26.570
   21BOLB   C3B  491  27.115   7.980  26.220
   21BOLB   C4B  492  27.245   8.230  25.970
   21BOLB   NC2  493  26.615   4.560  26.750
   21BOLB   PO2  494  26.300   4.600  26.410
   21BOLB   GL3  495  26.190   4.930  26.640
   21BOLB   GL4  496  26.140   4.760  26.910
   21BOLB   C1C  497  26.130   5.420  26.460
   21BOLB   C2C  498  26.230   5.790  26.410
   21BOLB   C3C  499  26.525   6.270  26.490
   21BOLB   C4C  500  26.615   6.620  26.690
   21BOLB   C1D  501  26.080   5.190  27.030
   21BOLB   C2D  502  26.030   5.630  26.870
   21BOLB   C3D  503  26.330   5.870  27.020
   21BOLB   C4D  504  26.250   6.360  27.070
   22BOLB   NC1  505  29.205  14.280  31.680
   22BOLB   PO1  506  29.165  14.190  31.270
   22BOLB   GL1  507  29.585  14.170  31.400
   22BOLB   GL2  508  29.655  14.510  31.700
   22BOLB   C1A  509  29.985  14.360  31.270
   22BOLB   C2A  510  30.185  14.600  31.050
   22BOLB   C3A  511  30.445  14.610  30.810
   22BOLB   C4A  512  30.815  14.630  30.450
   22BOLB   C1B  513  30.095  14.650  31.640
   22BOLB   C2B  514  30.375  14.960  31.780
   22BOLB   C3B  515  30.425  15.320  31.660
   22BOLB   C4B  516  30.475  15.750  31.730
   22BOLB   NC2  517  32.435  16.200  29.260
   22BOLB   PO2  518  32.705  15.870  29.370
   22BOLB   GL3  519  32.235  15.860  29.540
   22BOLB   GL4  520  31.995  16.070  29.390
   22BOLB   C1C  521  31.885  15.710  29.900
   22BOLB   C2C  522  31.575  15.420  30.080
   22BOLB   C3C  523  31.455  15.070  30.090
   22BOLB   C4C  524  31.195  14.720  30.220
   22BOLB   C1D  525  31.555  15.990  29.210
   22BOLB   C2D  526  31.355  15.980  28.750
   22BOLB   C3D  527  31.055  15.860  28.390
   22BOLB   C4D  528  30.705  15.610  28.240
   23BOLB   NC1  529  14.200   0.970  26.990
   23BOLB   PO1  530  14.080   0.550  27.120
   23BOLB   GL1  531  14.390   0.210  26.820
   23BOLB   GL2  532  14.140   0.050  26.720
   23BOLB   C1A  533  14.610   0.050  27.130
   23BOLB   C2A  534  14.790  26.270  27.370
   23BOLB   C3A  535  15.210  26.090  27.300
   23BOLB   C4A  536  15.510  25.810  27.370
   23BOLB   C1B  537  13.860  26.250  27.000
   23BOLB   C2B  538  13.540  25.870  27.090
   23BOLB   C3B  539  13.690  25.520  27.230
   23BOLB   C4B  540  13.870  25.290  26.860
   23BOLB   NC2  541  15.290   1.590  27.830
   23BOLB   PO2  542  15.000   1.410  28.080
   23BOLB   GL3  543  15.160   0.990  28.270
   23BOLB   GL4  544  15.470   0.910  28.030
   23BOLB   C1C  545  15.350   0.500  28.380
   23BOLB   C2C  546  15.640   0.120  28.390
   23BOLB   C3C  547  15.770  26.250  28.090
   23BOLB   C4C  548  15.730  25.820  27.840
   23BOLB   C1D  549  15.240   0.610  27.890
   23BOLB   C2D  550  15.230   0.160  27.820
   23BOLB   C3D  551  15.580  26.290  27.630
   23BOLB   C4D  552  15.900  26.160  27.240
   24BOLB   NC1  553  17.130  21.010  45.560
   24BOLB   PO1  554  17.150  21.290  45.320
   24BOLB   GL1  555  17.160  21.000  45.060
   24BOLB   GL2  556  16.880  21.040  44.730
   24BOLB   C1A  557  17.290  20.680  44.830
   24BOLB   C2A  558  17.400  20.330  44.630
   24BOLB   C3A  559  17.650  20.150  44.360
   24BOLB   C4A  560  17.680  19.800  44.060
   24BOLB   C1B  561  17.160  21.170  44.410
   24BOLB   C2B  562  17.330  21.310  44.010
   24BOLB   C3B  563  17.530  21.220  43.590
   24BOLB   C4B  564  17.870  21.130  43.270
   24BOLB   NC2  565  15.670  21.070  44.310
   24BOLB   PO2  566  15.920  20.770  44.520
   24BOLB   GL3  567  15.930  20.530  44.180
   24BOLB   GL4  568  15.810  20.610  43.850
   24BOLB   C1C  569  16.190  20.200  44.060
   24BOLB   C2C  570  16.430  19.980  43.820
   24BOLB   C3C  571  16.820  19.850  43.730
   24BOLB   C4C  572  17.240  19.690  43.900
   24BOLB   C1D  573  16.000  20.580  43.380
   24BOLB   C2D  574  16.260  20.390  43.230
   24BOLB   C3D  575  16.710  20.210  43.360
   24BOLB   C4D  576  17.120  20.080  43.430
   25BOLB   NC1  577  17.920  19.870  21.690
   25BOLB   PO1  578  17.370  19.760  21.840
   25BOLB   GL1  579  17.020  19.970  21.610
   25BOLB   GL2  580  17.040  19.750  21.410
   25BOLB   C1A  581  16.810  20.330  21.280
   25BOLB   C2A  582  16.720  20.660  21.050
   25BOLB   C3A  583  16.600  20.910  20.680
   25BOLB   C4A  584  16.530  21.230  20.440
   25BOLB   C1B  585  16.860  19.860  20.990
   25BOLB   C2B  586  16.540  20.080  20.730
   25BOLB   C3B  587  16.270  20.030  20.400
   25BOLB   C4B  588  16.050  20.030  20.000
   25BOLB   NC2  589  15.550  23.150  19.410
   25BOLB   PO2  590  15.900  22.960  19.170
   25BOLB   GL3  591  15.690  22.660  19.510
   25BOLB   GL4  592  15.480  22.460  19.380
   25BOLB   C1C  593  15.780  22.300  19.750
   25BOLB   C2C  594  15.850  22.040  20.020
   25BOLB   C3C  595  16.070  21.680  20.220
   25BOLB   C4C  596  16.410  21.500  20.190
   25BOLB   C1D  597  15.280  22.400  19.840
   25BOLB   C2D  598  15.390  22.180  20.180
   25BOLB   C3D  599  15.510  21.830  20.470
   25BOLB   C4D  600  15.520  21.370  20.560
   26BOLB   NC1  601  28.465  10.040  36.840
   26BOLB   PO1  602  28.765  10.100  37.180
   26BOLB   GL1  603  29.045   9.970  37.640
   26BOLB   GL2  604  29.245  10.160  37.770
   26BOLB   C1A  605  29.395   9.650  37.810
   26BOLB   C2A  606  29.805   9.570  37.860
   26BOLB   C3A  607  30.205   9.840  37.900
   26BOLB   C4A  608  30.525  10.160  37.930
   26BOLB   C1B  609  29.195  10.180  38.140
   26BOLB   C2B  610  29.265  10.010  38.630
   26BOLB   C3B  611  29.315   9.850  39.160
   26BOLB   C4B  612  29.525  10.020  39.480
   26BOLB   NC2  613  32.425   8.910  38.890
   26BOLB   PO2  614  32.565   9.220  38.600
   26BOLB   GL3  615  32.205   9.470  38.520
   26BOLB   GL4  616  31.985   9.250  38.590
   26BOLB   C1C  617  31.855   9.670  38.420
   26BOLB   C2C  618  31.675   9.920  38.290
   26BOLB   C3C  619  31.355  10.030  38.100
   26BOLB   C4C  620  30.975  10.180  38.080
   26BOLB   C1D  621  31.525   9.280  38.450
   26BOLB   C2D  622  31.135   9.120  38.200
   26BOLB   C3D  623  30.755   9.160  37.830
   26BOLB   C4D  624  30.385   9.370  37.690
   27BOLB   NC1  625  11.110  17.820  39.860
   27BOLB   PO1  626  11.090  17.410  39.730
   27BOLB   GL1  627  11.560  17.500  39.630
   27BOLB   GL2  628  11.480  17.950  39.530
   27BOLB   C1A  629  11.950  17.510  39.540
   27BOLB   C2A  630  12.360  17.640  39.460
   27BOLB   C3A  631  12.660  17.960  39.310
   27BOLB   C4A  632  12.940  18.190  39.520
   27BOLB   C1B  633  11.900  17.900  39.270
   27BOLB   C2B  634  12.220  18.010  38.990
   27BOLB   C3B  635  12.650  17.890  38.740
   27BOLB   C4B  636  12.810  17.820  38.210
   27BOLB   NC2  637  15.030  17.710  38.630
   27BOLB   PO2  638  15.010  18.020  38.340
   27BOLB   GL3  639  14.720  18.190  38.510
   27BOLB   GL4  640  14.580  17.930  38.700
   27BOLB   C1C  641  14.310  18.350  38.820
   27BOLB   C2C  642  13.990  18.480  39.210
   27BOLB   C3C  643  13.690  18.350  39.330
   27BOLB   C4C  644  13.300  18.400  39.500
   27BOLB   C1D  645  14.230  17.780  38.670
   27BOLB   C2D  646  13.830  17.660  38.670
   27BOLB   C3D  647  13.450  17.630  38.510
   27BOLB   C4D  648  12.980  17.540  38.570
   28BOLB   NC1  649  23.000   9.200  27.030
   28BOLB   PO1  650  23.210   8.810  27.140
   28BOLB   GL1  651  23.090   8.400  26.980
   28BOLB   GL2  652  22.730   8.350  26.950
   28BOLB   C1A  653  23.050   8.040  27.090
   28BOLB   C2A  654  22.960   7.590  27.090
   28BOLB   C3A  655  22.700   7.210  26.840
   28BOLB   C4A  656  22.740   6.780  26.670
   28BOLB   C1B  657  22.640   7.870  26.790
   28BOLB   C2B  658  22.590   7.520  26.440
   28BOLB   C3B  659  22.660   7.110  26.200
   28BOLB   C4B  660  22.720   6.810  25.850
   28BOLB   NC2  661  22.430   4.470  25.610
   28BOLB   PO2  662  22.720   4.740  25.840
   28BOLB   GL3  663  22.970   5.050  26.070
   28BOLB   GL4  664  23.200   4.890  26.300
   28BOLB   C1C  665  22.860   5.250  26.290
   28BOLB   C2C  666  22.910   5.660  26.450
   28BOLB   C3C  667  22.730   5.930  26.590
   28BOLB   C4C  668  22.810   6.320  26.810
   28BOLB   C1D  669  23.410   5.320  26.260
   28BOLB   C2D  670  23.390   5.730  26.450
   28BOLB   C3D  671  23.670   6.040  26.480
   28BOLB   C4D  672  23.710   6.520  26.490
   29BOLB   NC1  673  29.305  13.080  33.350
   29BOLB   PO1  674  29.655  13.280  33.380
   29BOLB   GL1  675  30.015  13.140  33.630
   29BOLB   GL2  676  30.035  12.940  33.900
   29BOLB   C1A  677  30.255  13.340  33.760
   29BOLB   C2A  678  30.725  13.310  33.820
   29BOLB   C3A  679  31.125  13.040  33.940
   29BOLB   C4A  680  31.485  12.630  33.840
   29BOLB   C1B  681  30.475  12.890  33.940
   29BOLB   C2B  682  30.775  12.640  33.930
   29BOLB   C3B  683  31.055  12.600  34.170
   29BOLB   C4B  684  31.295  12.920  34.440
   29BOLB   NC2  685  33.755  13.020  34.370
   29BOLB   PO2  686  33.885  12.710  34.130
   29BOLB   GL3  687  33.435  12.810  33.930
   29BOLB   GL4  688  33.415  12.860  33.630
   29BOLB   C1C  689  33.025  12.810  34.050
   29BOLB   C2C  690  32.525  12.910  34.220
   29BOLB   C3C  691  32.215  12.740  34.050
   29BOLB   C4C  692  31.905  12.590  33.900
   29BOLB   C1D  693  33.105  12.530  33.530
   29BOLB   C2D  694  32.805  12.150  33.640
   29BOLB   C3D  695  32.495  11.930  33.820
   29BOLB   C4D  696  32.195  11.730  33.670
   30BOLB   NC1  697  13.960  18.510  26.690
   30BOLB   PO1  698  14.300  18.690  26.440
   30BOLB   GL1  699  13.800  18.620  26.190
   30BOLB   GL2  700  13.530  18.650  26.400
   30BOLB   C1A  701  13.660  18.910  25.850
   30BOLB   C2A  702  13.380  18.990  25.490
   30BOLB   C3A  703  13.120  19.060  25.220
   30BOLB   C4A  704  12.790  18.860  24.950
   30BOLB   C1B  705  13.180  18.430  26.490
   30BOLB   C2B  706  12.790  18.360  26.320
   30BOLB   C3B  707  12.470  18.070  26.300
   30BOLB   C4B  708  12.090  17.940  26.310
   30BOLB   NC2  709  10.920  18.290  23.610
   30BOLB   PO2  710  10.660  18.390  24.040
   30BOLB   GL3  711  11.050  18.320  24.260
   30BOLB   GL4  712  11.160  18.240  24.030
   30BOLB   C1C  713  11.500  18.430  24.330
   30BOLB   C2C  714  11.900  18.600  24.420
   30BOLB   C3C  715  12.310  18.730  24.520
   30BOLB   C4C  716  12.700  18.700  24.630
   30BOLB   C1D  717  11.470  17.950  24.290
   30BOLB   C2D  718  11.980  17.850  24.570
   30BOLB   C3D  719  12.270  17.570  24.620
   30BOLB   C4D  720  12.770  17.490  24.500
   31BOLB   NC1  721  14.040  17.710  35.010
   31BOLB   PO1  722  14.310  17.540  35.320
   31BOLB   GL1  723  13.880  17.490  35.490
   31BOLB   GL2  724  13.830  17.230  35.210
   31BOLB   C1A  725  13.600  17.380  35.610
   31BOLB   C2A  726  13.250  17.360  36.060
   31BOLB   C3A  727  12.960  17.160  36.120
   31BOLB   C4A  728  12.640  17.170  36.490
   31BOLB   C1B  729  13.500  16.970  35.240
   31BOLB   C2B  730  13.090  16.820  35.100
   31BOLB   C3B  731  12.690  16.810  35.120
   31BOLB   C4B  732  12.210  16.870  35.140
   31BOLB   NC2  733  10.450  16.740  37.100
   31BOLB   PO2  734  10.450  16.450  36.790
   31BOLB   GL3  735  10.910  16.250  36.670
   31BOLB   GL4  736  10.780  16.090  36.370
   31BOLB   C1C  737  11.320  16.370  36.580
   31BOLB   C2C  738  11.560  16.590  36.870
   31BOLB   C3C  739  11.880  16.720  36.740
   31BOLB   C4C  740  12.330  16.960  36.650
   31BOLB   C1D  741  11.000  16.420  36.190
   31BOLB   C2D  742  11.420  16.520  36.080
   31BOLB   C3D  743  11.720  16.660  35.810
   31BOLB   C4D  744  11.690  16.720  35.390
   32BOLB   NC1  745  21.900   7.120  21.660
   32BOLB   PO1  746  21.380   6.960  21.760
   32BOLB   GL1  747  21.480   7.170  22.160
   32BOLB   GL2  748  21.540   6.910  22.450
   32BOLB   C1A  749  21.630   7.460  22.410
   32BOLB   C2A  750  21.750   7.860  22.520
   32BOLB   C3A  751  21.960   8.240  22.740
   32BOLB   C4A  752  22.110   8.640  22.740
   32BOLB   C1B  753  21.550   7.160  22.820
   32BOLB   C2B  754  21.650   7.560  22.980
   32BOLB   C3B  755  21.590   7.950  22.970
   32BOLB   C4B  756  21.450   8.300  23.170
   32BOLB   NC2  757  22.970   7.560  21.150
   32BOLB   PO2  758  22.770   7.320  21.420
   32BOLB   GL3  759  22.740   7.570  21.710
   32BOLB   GL4  760  22.950   7.720  21.670
   32BOLB   C1C  761  22.570   7.630  22.070
   32BOLB   C2C  762  22.400   8.070  22.110
   32BOLB   C3C  763  22.380   8.410  22.260
   32BOLB   C4C  764  22.410   8.710  22.460
   32BOLB   C1D  765  22.980   8.090  21.870
   32BOLB   C2D  766  22.770   8.580  21.960
   32BOLB   C3D  767  22.720   8.980  22.150
   32BOLB   C4D  768  22.980   9.030  22.630
   33BOLB   NC1  769  23.390   7.680  30.950
   33BOLB   PO1  770  23.290   7.490  30.450
   33BOLB   GL1  771  23.390   7.100  30.380
   33BOLB   GL2  772  23.680   6.910  30.460
   33BOLB   C1A  773  23.130   6.740  30.430
   33BOLB   C2A  774  23.300   6.280  30.550
   33BOLB   C3A  775  23.440   5.990  30.980
   33BOLB   C4A  776  23.090   5.950  31.260
   33BOLB   C1B  777  23.730   6.530  30.580
   33BOLB   C2B  778  23.750   6.110  30.520
   33BOLB   C3B  779  23.830   5.730  30.520
   33BOLB   C4B  780  23.450   5.620  30.300
   33BOLB   NC2  781  23.620   8.060  31.840
   33BOLB   PO2  782  23.370   7.730  31.570
   33BOLB   GL3  783  23.490   7.360  31.590
   33BOLB   GL4  784  23.360   7.210  31.360
   33BOLB   C1C  785  23.570   7.090  31.930
   33BOLB   C2C  786  23.420   6.680  32.050
   33BOLB   C3C  787  23.180   6.350  32.040
   33BOLB   C4C  788  22.990   6.090  31.680
   33BOLB   C1D  789  23.310   6.820  31.580
   33BOLB   C2D  790  23.040   6.540  31.430
   33BOLB   C3D  791  22.620   6.220  31.360
   33BOLB   C4D  792  22.620   5.830  31.370
   34BOLB   NC1  793  28.815   9.370  42.830
   34BOLB   PO1  794  29.055   9.490  43.050
   34BOLB   GL1  795  29.075   9.760  42.630
   34BOLB   GL2  796  28.795   9.860  42.740
   34BOLB   C1A  797  28.795   9.780  42.210
   34BOLB   C2A  798  28.765  10.070  41.950
   34BOLB   C3A  799  28.595  10.340  41.600
   34BOLB   C4A  800  28.465  10.230  41.150
   34BOLB   C1B  801  28.675  10.280  42.630
   34BOLB   C2B  802  28.375  10.130  42.290
   34BOLB   C3B  803  28.155  10.390  42.020
   34BOLB   C4B  804  28.405  10.750  41.830
   34BOLB   NC2  805  29.265   8.920  42.420
   34BOLB   PO2  806  29.465   9.050  42.010
   34BOLB   GL3  807  29.255   9.280  41.810
   34BOLB   GL4  808  29.505   9.300  41.590
   34BOLB   C1C  809  28.805   9.440  41.800
   34BOLB   C2C  810  28.395   9.390  41.690
   34BOLB   C3C  811  28.175   9.460  41.330
   34BOLB   C4C  812  28.085   9.880  41.130
   34BOLB   C1D  813  29.125   9.350  41.290
   34BOLB   C2D  814  28.795   9.520  41.290
   34BOLB   C3D  815  28.615   9.790  41.500
   34BOLB   C4D  816  28.265   9.990  41.730
   35BOLB   NC1  817  22.280  23.020  35.220
   35BOLB   PO1  818  22.150  23.500  35.380
   35BOLB   GL1  819  22.500  23.740  35.470
   35BOLB   GL2  820  22.540  23.680  35.710
   35BOLB   C1A  821  22.750  24.080  35.330
   35BOLB   C2A  822  22.870  24.290  35.070
   35BOLB   C3A  823  22.970  24.650  34.780
   35BOLB   C4A  824  23.370  24.760  34.900
   35BOLB   C1B  825  22.740  24.120  35.960
   35BOLB   C2B  826  23.030  24.370  35.850
   35BOLB   C3B  827  23.420  24.370  35.880
   35BOLB   C4B  828  23.870  24.440  36.000
   35BOLB   NC2  829  25.420  26.170  34.610
   35BOLB   PO2  830  25.300  25.920  34.970
   35BOLB   GL3  831  25.000  25.570  34.900
   35BOLB   GL4  832  24.730  25.640  34.630
   35BOLB   C1C  833  24.710  25.240  34.940
   35BOLB   C2C  834  24.460  25.000  34.740
   35BOLB   C3C  835  24.050  24.940  34.500
   35BOLB   C4C  836  23.730  24.710  34.690
   35BOLB   C1D  837  24.290  25.490  34.830
   35BOLB   C2D  838  23.870  25.150  34.920
   35BOLB   C3D  839  23.700  24.970  35.220
   35BOLB   C4D  840  23.340  25.030  35.480
   36BOLB   NC1  841  23.000  15.430  47.800
   36BOLB   PO1  842  22.640  15.550  47.520
   36BOLB   GL1  843  22.640  15.620  47.120
   36BOLB   GL2  844  22.400  15.980  47.110
   36BOLB   C1A  845  22.660  15.680  46.710
   36BOLB   C2A  846  22.570  15.860  46.360
   36BOLB   C3A  847  22.200  16.000  46.200
   36BOLB   C4A  848  22.400  16.060  45.820
   36BOLB   C1B  849  22.630  16.230  46.760
   36BOLB   C2B  850  22.610  16.430  46.330
   36BOLB   C3B  851  22.760  16.470  45.890
   36BOLB   C4B  852  23.060  16.430  45.590
   36BOLB   NC2  853  22.550  16.510  43.500
   36BOLB   PO2  854  22.410  16.970  43.600
   36BOLB   GL3  855  22.350  16.760  43.960
   36BOLB   GL4  856  22.770  16.750  44.030
   36BOLB   C1C  857  22.380  16.470  44.280
   36BOLB   C2C  858  22.240  16.380  44.670
   36BOLB   C3C  859  22.350  16.210  45.070
   36BOLB   C4C  860  22.520  16.240  45.500
   36BOLB   C1D  861  23.040  16.680  44.340
   36BOLB   C2D  862  23.290  16.340  44.400
   36BOLB   C3D  863  23.460  16.310  44.750
   36BOLB   C4D  864  23.660  16.290  45.110
   37BOLB   NC1  865  16.970  23.010  38.060
   37BOLB   PO1  866  17.240  23.100  38.340
   37BOLB   GL1  867  17.190  23.380  38.720
   37BOLB   GL2  868  17.400  23.710  38.800
   37BOLB   C1A  869  17.010  23.620  39.080
   37BOLB   C2A  870  16.540  23.770  39.240
   37BOLB   C3A  871  16.140  23.610  39.420
   37BOLB   C4A  872  15.760  23.400  39.510
   37BOLB   C1B  873  17.430  23.990  39.050
   37BOLB   C2B  874  17.410  24.190  39.450
   37BOLB   C3B  875  17.430  24.460  39.810
   37BOLB   C4B  876  17.230  24.230  40.060
   37BOLB   NC2  877  14.390  23.950  41.200
   37BOLB   PO2  878  14.430  24.310  41.380
   37BOLB   GL3  879  14.670  24.260  40.960
   37BOLB   GL4  880  14.820  24.480  40.590
   37BOLB   C1C  881  14.910  23.940  40.660
   37BOLB   C2C  882  15.180  23.720  40.350
   37BOLB   C3C  883  15.280  23.330  40.090
   37BOLB   C4C  884  15.300  23.320  39.650
   37BOLB   C1D  885  15.180  24.790  40.540
   37BOLB   C2D  886  15.550  24.620  40.540
   37BOLB   C3D  887  15.770  24.470  40.420
   37BOLB   C4D  888  16.040  24.370  40.060
   38BOLB   NC1  889  16.490  12.900  32.530
   38BOLB   PO1  890  16.220  13.260  32.520
   38BOLB   GL1  891  15.870  12.900  32.300
   38BOLB   GL2  892  16.040  12.610  32.390
   38BOLB   C1A  893  15.560  12.630  32.500
   38BOLB   C2A  894  15.590  12.210  32.270
   38BOLB   C3A  895  15.390  11.890  32.340
   38BOLB   C4A  896  14.980  11.760  32.080
   38BOLB   C1B  897  15.930  12.390  32.010
   38BOLB   C2B  898  15.670  12.240  31.680
   38BOLB   C3B  899  15.530  12.310  31.280
   38BOLB   C4B  900  15.300  11.980  31.230
   38BOLB   NC2  901  13.160   9.750  31.940
   38BOLB   PO2  902  13.240  10.110  32.270
   38BOLB   GL3  903  13.530  10.430  32.240
   38BOLB   GL4  904  13.620  10.530  32.600
   38BOLB   C1C  905  13.780  10.730  32.110
   38BOLB   C2C  906  14.150  10.960  32.020
   38BOLB   C3C  907  14.600  11.100  31.900
   38BOLB   C4C  908  14.830  11.390  32.070
   38BOLB   C1D  909  13.960  10.350  32.640
   38BOLB   C2D  910  14.010  10.280  32.270
   38BOLB   C3D  911  14.310  10.450  32.000
   38BOLB   C4D  912  14.660  10.640  31.800
   39BOLB   NC1  913  28.465  13.370  45.350
   39BOLB   PO1  914  28.305  12.990  45.210
   39BOLB   GL1  915  27.905  13.030  44.970
   39BOLB   GL2  916  27.835  12.820  44.620
   39BOLB   C1A  917  27.645  13.280  44.790
   39BOLB   C2A  918  27.265  13.320  44.520
   39BOLB   C3A  919  27.065  13.720  44.320
   39BOLB   C4A  920  27.035  14.160  44.280
   39BOLB   C1B  921  27.625  12.790  44.460
   39BOLB   C2B  922  27.185  12.780  44.630
   39BOLB   C3B  923  27.045  12.490  44.320
   39BOLB   C4B  924  26.755  12.080  44.200
   39BOLB   NC2  925  27.885  15.640  45.560
   39BOLB   PO2  926  28.105  15.570  45.120
   39BOLB   GL3  927  27.895  15.480  44.700
   39BOLB   GL4  928  28.175  15.480  44.390
   39BOLB   C1C  929  27.465  15.340  44.580
   39BOLB   C2C  930  27.025  15.300  44.440
   39BOLB   C3C  931  26.745  14.920  44.670
   39BOLB   C4C  932  26.895  14.400  44.620
   39BOLB   C1D  933  27.805  15.400  44.060
   39BOLB   C2D  934  27.655  15.610  43.730
   39BOLB   C3D  935  27.455  15.720  43.280
   39BOLB   C4D  936  27.195  16.010  42.930
   40BOLB   NC1  937  18.480  24.400  29.820
   40BOLB   PO1  938  18.140  24.380  29.670
   40BOLB   GL1  939  18.160  24.890  29.740
   40BOLB   GL2  940  18.450  24.980  29.650
   40BOLB   C1A  941  18.090  25.090  30.120
   40BOLB   C2A  942  17.960  25.460  30.430
   40BOLB   C3A  943  18.090  25.830  30.690
   40BOLB   C4A  944  18.080  26.240  30.710
   40BOLB   C1B  945  18.400  25.410  29.880
   40BOLB   C2B  946  18.030  25.640  29.960
   40BOLB   C3B  947  18.020  25.960  30.210
   40BOLB   C4B  948  18.150  26.445  30.190
   40BOLB   NC2  949  18.470   2.180  30.280
   40BOLB   PO2  950  18.640   2.100  30.730
   40BOLB   GL3  951  18.270   1.810  30.690
   40BOLB   GL4  952  17.990   1.720  30.860
   40BOLB   C1C  953  18.370   1.440  30.770
   40BOLB   C2C  954  18.220   1.070  31.050
   40BOLB   C3C  955  17.980   0.600  31.110
   40BOLB   C4C  956  17.940   0.110  30.950
   40BOLB   C1D  957  18.230   1.560  31.290
   40BOLB   C2D  958  18.600   1.320  31.430
   40BOLB   C3D  959  19.000   0.990  31.450
   40BOLB   C4D  960  19.350   0.830  31.700
   41BOLB   NC1  961  24.240  17.250  22.760
   41BOLB   PO1  962  24.650  17.370  22.590
   41BOLB   GL1  963  24.900  17.500  22.200
   41BOLB   GL2  964  25.050  17.840  22.130
   41BOLB   C1A  965  25.180  17.470  21.850
   41BOLB   C2A  966  25.490  17.490  21.540
   41BOLB   C3A  967  25.830  17.410  21.300
   41BOLB   C4A  968  26.200  17.430  20.950
   41BOLB   C1B  969  24.900  18.100  21.810
   41BOLB   C2B  970  24.850  18.060  21.390
   41BOLB   C3B  971  24.720  18.030  20.970
   41BOLB   C4B  972  24.450  17.890  20.630
   41BOLB   NC2  973  27.825  16.690  18.730
   41BOLB   PO2  974  27.535  16.610  19.070
   41BOLB   GL3  975  27.125  16.480  19.340
   41BOLB   GL4  976  27.215  16.170  19.540
   41BOLB   C1C  977  27.115  16.660  19.790
   41BOLB   C2C  978  26.975  16.950  20.220
   41BOLB   C3C  979  26.925  17.280  20.550
   41BOLB   C4C  980  26.625  17.400  20.810
   41BOLB   C1D  981  27.445  15.940  19.820
   41BOLB   C2D  982  27.335  15.590  20.140
   41BOLB   C3D  983  27.155  15.290  20.330
   41BOLB   C4D  984  27.455  14.910  20.380
   42BOLB   NC1  985  13.240  13.040  40.760
   42BOLB   PO1  986  13.020  13.230  40.450
   42BOLB   GL1  987  13.100  13.460  40.070
   42BOLB   GL2  988  13.080  13.830  40.180
   42BOLB   C1A  989  13.270  13.750  39.750
   42BOLB   C2A  990  13.530  14.050  39.550
   42BOLB   C3A  991  13.960  14.160  39.720
   42BOLB   C4A  992  14.180  14.280  40.020
   42BOLB   C1B  993  13.390  14.150  40.000
   42BOLB   C2B  994  13.690  14.420  40.040
   42BOLB   C3B  995  13.890  14.780  39.890
   42BOLB   C4B  996  14.190  14.890  39.570
   42BOLB   NC2  997  13.270  14.610  42.060
   42BOLB   PO2  998  13.010  14.510  41.690
   42BOLB   GL3  999  13.330  14.570  41.460
   42BOLB   GL4 1000  13.640  14.580  41.680
   42BOLB   C1C 1001  13.520  14.780  41.200
   42BOLB   C2C 1002  13.850  14.680  41.000
   42BOLB   C3C 1003  14.110  14.390  40.810
   42BOLB   C4C 1004  14.330  14.240  40.460
   42BOLB   C1D 1005  14.000  14.760  41.500
   42BOLB   C2D 1006  14.270  14.690  41.260
   42BOLB   C3D 1007  14.750  14.700  41.160
   42BOLB   C4D 1008  15.070  14.960  41.010
   43BOLB   NC1 1009  17.790  21.990  39.820
   43BOLB   PO1 1010  17.840  21.790  40.280
   43BOLB   GL1 1011  17.700  21.910  40.590
   43BOLB   GL2 1012  17.850  21.890  40.820
   43BOLB   C1A 1013  17.300  22.100  40.940
   43BOLB   C2A 1014  16.910  22.240  41.150
   43BOLB   C3A 1015  16.600  22.630  41.230
   43BOLB   C4A 1016  16.230  22.870  41.090
   43BOLB   C1B 1017  17.590  21.790  41.200
   43BOLB   C2B 1018  17.330  22.020  41.440
   43BOLB   C3B 1019  17.080  22.310  41.620
   43BOLB   C4B 1020  16.730  22.650  41.690
   43BOLB   NC2 1021  14.420  24.680  40.820
   43BOLB   PO2 1022  14.910  24.660  41.110
   43BOLB   GL3 1023  15.190  24.270  41.030
   43BOLB   GL4 1024  15.220  23.960  41.190
   43BOLB   C1C 1025  15.410  24.080  40.720
   43BOLB   C2C 1026  15.620  23.750  40.620
   43BOLB   C3C 1027  15.940  23.410  40.540
   43BOLB   C4C 1028  16.150  23.170  40.720
   43BOLB   C1D 1029  15.520  23.800  41.180
   43BOLB   C2D 1030  15.740  23.480  41.000
   43BOLB   C3D 1031  15.790  23.120  41.100
   43BOLB   C4D 1032  15.710  22.880  40.810
   44BOLB   NC1 1033  16.260  15.110  25.250
   44BOLB   PO1 1034  16.250  14.780  25.440
   44BOLB   GL1 1035  15.950  14.750  25.060
   44BOLB   GL2 1036  16.220  14.690  24.960
   44BOLB   C1A 1037  15.600  14.480  24.820
   44BOLB   C2A 1038  15.370  14.130  24.730
   44BOLB   C3A 1039  15.050  13.770  24.610
   44BOLB   C4A 1040  14.850  13.500  24.740
   44BOLB   C1B 1041  16.080  14.360  24.810
   44BOLB   C2B 1042  16.120  13.950  24.810
   44BOLB   C3B 1043  15.860  13.650  24.590
   44BOLB   C4B 1044  15.460  13.520  24.780
   44BOLB   NC2 1045  12.800  12.630  23.870
   44BOLB   PO2 1046  12.890  12.720  23.440
   44BOLB   GL3 1047  12.950  13.100  23.720
   44BOLB   GL4 1048  12.910  13.040  24.130
   44BOLB   C1C 1049  13.360  13.180  23.830
   44BOLB   C2C 1050  13.800  13.180  24.130
   44BOLB   C3C 1051  14.020  13.270  24.470
   44BOLB   C4C 1052  14.430  13.350  24.560
   44BOLB   C1D 1053  12.980  13.470  24.260
   44BOLB   C2D 1054  13.220  13.830  24.440
   44BOLB   C3D 1055  13.580  14.010  24.340
   44BOLB   C4D 1056  13.760  14.200  24.680
   45BOLB   NC1 1057  25.130  25.130  29.060
   45BOLB   PO1 1058  25.240  25.080  28.630
   45BOLB   GL1 1059  25.160  24.650  28.550
   45BOLB   GL2 1060  25.320  24.660  28.180
   45BOLB   C1A 1061  24.800  24.400  28.400
   45BOLB   C2A 1062  24.720  24.130  28.050
   45BOLB   C3A 1063  24.590  24.280  27.540
   45BOLB   C4A 1064  24.430  24.300  27.170
   45BOLB   C1B 1065  25.220  24.210  28.220
   45BOLB   C2B 1066  25.050  23.830  28.310
   45BOLB   C3B 1067  25.330  23.360  28.270
   45BOLB   C4B 1068  25.450  22.920  28.490
   45BOLB   NC2 1069  25.240  25.250  26.190
   45BOLB   PO2 1070  24.850  25.230  25.790
   45BOLB   GL3 1071  24.610  24.910  25.780
   45BOLB   GL4 1072  24.800  24.630  25.550
   45BOLB   C1C 1073  24.610  24.600  26.010
   45BOLB   C2C 1074  24.310  24.250  26.140
   45BOLB   C3C 1075  24.030  24.150  26.460
   45BOLB   C4C 1076  24.140  24.110  26.850
   45BOLB   C1D 1077  24.800  24.230  25.730
   45BOLB   C2D 1078  24.600  23.850  25.830
   45BOLB   C3D 1079  24.250  23.500  25.750
   45BOLB   C4D 1080  23.940  23.200  25.530
   46BOLB   NC1 1081  27.465  14.490  40.120
   46BOLB   PO1 1082  27.615  14.080  40.080
   46BOLB   GL1 1083  28.025  14.330  40.230
   46BOLB   GL2 1084  27.955  14.680  40.100
   46BOLB   C1A 1085  28.185  14.380  40.560
   46BOLB   C2A 1086  28.025  14.330  40.990
   46BOLB   C3A 1087  28.225  14.420  41.410
   46BOLB   C4A 1088  28.305  14.300  41.800
   46BOLB   C1B 1089  28.165  15.110  40.400
   46BOLB   C2B 1090  28.545  15.440  40.550
   46BOLB   C3B 1091  28.845  15.720  40.570
   46BOLB   C4B 1092  29.235  15.870  40.730
   46BOLB   NC2 1093  29.655  14.270  43.920
   46BOLB   PO2 1094  29.745  14.070  43.520
   46BOLB   GL3 1095  29.345  14.260  43.480
   46BOLB   GL4 1096  29.285  14.590  43.660
   46BOLB   C1C 1097  28.905  14.270  43.450
   46BOLB   C2C 1098  28.645  14.230  43.030
   46BOLB   C3C 1099  28.545  14.450  42.600
   46BOLB   C4C 1100  28.485  14.360  42.190
   46BOLB   C1D 1101  28.825  14.600  43.870
   46BOLB   C2D 1102  28.435  14.350  43.980
   46BOLB   C3D 1103  28.035  14.150  43.700
   46BOLB   C4D 1104  27.645  13.940  43.570
   47BOLB   NC1 1105  22.220  21.030  47.080
   47BOLB   PO1 1106  21.960  20.720  47.060
   47BOLB   GL1 1107  22.080  20.740  46.650
   47BOLB   GL2 1108  22.430  20.680  46.720
   47BOLB   C1A 1109  21.900  20.720  46.220
   47BOLB   C2A 1110  21.890  20.540  45.810
   47BOLB   C3A 1111  21.970  20.380  45.420
   47BOLB   C4A 1112  22.320  20.290  45.240
   47BOLB   C1B 1113  22.480  20.520  46.330
   47BOLB   C2B 1114  22.250  20.240  45.970
   47BOLB   C3B 1115  22.020  20.010  45.750
   47BOLB   C4B 1116  21.720  19.860  45.290
   47BOLB   NC2 1117  23.740  21.860  46.040
   47BOLB   PO2 1118  23.860  21.670  45.640
   47BOLB   GL3 1119  23.600  21.340  45.480
   47BOLB   GL4 1120  23.290  21.430  45.340
   47BOLB   C1C 1121  23.400  20.960  45.640
   47BOLB   C2C 1122  23.310  20.640  45.680
   47BOLB   C3C 1123  23.070  20.280  45.440
   47BOLB   C4C 1124  22.730  20.260  45.260
   47BOLB   C1D 1125  23.380  21.050  45.180
   47BOLB   C2D 1126  23.140  20.650  45.160
   47BOLB   C3D 1127  23.050  20.300  44.910
   47BOLB   C4D 1128  23.320  20.270  44.700
   48BOLB   NC1 1129  15.740  14.140  36.310
   48BOLB   PO1 1130  15.730  13.720  36.530
   48BOLB   GL1 1131  15.420  13.550  36.430
   48BOLB   GL2 1132  15.350  13.660  36.150
   48BOLB   C1A 1133  14.970  13.490  36.390
   48BOLB   C2A 1134  14.580  13.480  36.280
   48BOLB   C3A 1135  14.060  13.340  36.340
   48BOLB   C4A 1136  13.630  13.370  36.300
   48BOLB   C1B 1137  15.010  13.870  36.000
   48BOLB   C2B 1138  14.590  13.880  35.960
   48BOLB   C3B 1139  14.180  13.680  36.010
   48BOLB   C4B 1140  13.920  13.370  35.880
   48BOLB   NC2 1141  11.340  12.430  36.360
   48BOLB   PO2 1142  11.720  12.170  36.300
   48BOLB   GL3 1143  11.930  12.450  36.100
   48BOLB   GL4 1144  12.110  12.240  35.980
   48BOLB   C1C 1145  11.930  12.830  36.210
   48BOLB   C2C 1146  12.260  13.160  36.260
   48BOLB   C3C 1147  12.710  13.240  36.240
   48BOLB   C4C 1148  13.220  13.230  36.290
   48BOLB   C1D 1149  12.460  12.440  36.110
   48BOLB   C2D 1150  12.640  12.880  35.970
   48BOLB   C3D 1151  12.990  12.970  35.960
   48BOLB   C4D 1152  13.280  13.360  35.800
   49BOLB   NC1 1153  15.620   9.720  40.510
   49BOLB   PO1 1154  15.470   9.980  40.810
   49BOLB   GL1 1155  15.500  10.230  40.360
   49BOLB   GL2 1156  15.350  10.480  40.310
   49BOLB   C1A 1157  15.800  10.290  40.060
   49BOLB   C2A 1158  16.120  10.010  40.000
   49BOLB   C3A 1159  16.150   9.740  39.750
   49BOLB   C4A 1160  15.920   9.550  39.370
   49BOLB   C1B 1161  15.520  10.730  39.900
   49BOLB   C2B 1162  15.480  11.050  39.550
   49BOLB   C3B 1163  15.760  11.280  39.260
   49BOLB   C4B 1164  15.860  11.610  39.140
   49BOLB   NC2 1165  13.800   9.320  38.460
   49BOLB   PO2 1166  14.020   9.740  38.430
   49BOLB   GL3 1167  14.440   9.900  38.260
   49BOLB   GL4 1168  14.560   9.770  37.910
   49BOLB   C1C 1169  14.870  10.080  38.170
   49BOLB   C2C 1170  15.130   9.890  38.490
   49BOLB   C3C 1171  15.470   9.830  38.790
   49BOLB   C4C 1172  15.890   9.760  38.890
   49BOLB   C1D 1173  14.600   9.960  37.510
   49BOLB   C2D 1174  14.870  10.160  37.300
   49BOLB   C3D 1175  15.130  10.410  37.140
   49BOLB   C4D 1176  15.500  10.480  37.060
   50BOLB   NC1 1177  20.620  15.800  42.440
   50BOLB   PO1 1178  20.190  15.630  42.550
   50BOLB   GL1 1179  20.020  15.420  42.950
   50BOLB   GL2 1180  19.700  15.560  43.130
   50BOLB   C1A 1181  20.060  15.190  43.350
   50BOLB   C2A 1182  19.800  15.090  43.750
   50BOLB   C3A 1183  19.710  14.870  44.110
   50BOLB   C4A 1184  19.470  14.700  44.490
   50BOLB   C1B 1185  19.440  15.400  43.510
   50BOLB   C2B 1186  19.340  15.210  44.050
   50BOLB   C3B 1187  19.260  15.130  44.450
   50BOLB   C4B 1188  19.350  15.170  44.850
   50BOLB   NC2 1189  19.350  15.280  46.960
   50BOLB   PO2 1190  19.600  15.000  46.650
   50BOLB   GL3 1191  19.810  14.620  46.480
   50BOLB   GL4 1192  20.160  14.650  46.440
   50BOLB   C1C 1193  19.730  14.730  46.060
   50BOLB   C2C 1194  19.530  14.750  45.670
   50BOLB   C3C 1195  19.390  14.480  45.270
   50BOLB   C4C 1196  19.280  14.630  44.930
   50BOLB   C1D 1197  20.380  14.390  46.200
   50BOLB   C2D 1198  20.350  14.320  45.790
   50BOLB   C3D 1199  20.080  14.630  45.620
   50BOLB   C4D 1200  19.980  15.080  45.620
   51BOLB   NC1 1201  18.560  11.650  25.940
   51BOLB   PO1 1202  18.670  11.690  25.430
   51BOLB   GL1 1203  18.610  11.450  25.150
   51BOLB   GL2 1204  18.860  11.300  24.950
   51BOLB   C1A 1205  18.310  11.100  25.150
   51BOLB   C2A 1206  18.150  10.700  25.180
   51BOLB   C3A 1207  18.070  10.270  24.980
   51BOLB   C4A 1208  17.970   9.780  25.060
   51BOLB   C1B 1209  18.560  11.160  24.700
   51BOLB   C2B 1210  18.340  11.080  24.330
   51BOLB   C3B 1211  17.980  10.720  24.330
   51BOLB   C4B 1212  17.660  10.390  24.240
   51BOLB   NC2 1213  17.160   8.320  23.780
   51BOLB   PO2 1214  17.120   8.080  24.130
   51BOLB   GL3 1215  17.090   8.510  24.320
   51BOLB   GL4 1216  17.070   8.730  24.080
   51BOLB   C1C 1217  17.350   8.600  24.570
   51BOLB   C2C 1218  17.700   8.780  24.840
   51BOLB   C3C 1219  17.870   8.910  25.230
   51BOLB   C4C 1220  18.100   9.360  25.200
   51BOLB   C1D 1221  17.340   9.030  24.330
   51BOLB   C2D 1222  17.180   9.440  24.430
   51BOLB   C3D 1223  17.350   9.800  24.540
   51BOLB   C4D 1224  17.600  10.120  24.660
   52BOLB   NC1 1225  18.960  23.980  26.410
   52BOLB   PO1 1226  19.350  24.030  26.620
   52BOLB   GL1 1227  19.370  24.420  26.700
   52BOLB   GL2 1228  19.190  24.540  26.500
   52BOLB   C1A 1229  19.430  24.880  26.770
   52BOLB   C2A 1230  19.350  25.210  27.090
   52BOLB   C3A 1231  19.360  25.620  26.790
   52BOLB   C4A 1232  19.270  26.040  26.540
   52BOLB   C1B 1233  19.210  24.850  26.230
   52BOLB   C2B 1234  19.030  25.040  25.950
   52BOLB   C3B 1235  18.820  24.900  25.630
   52BOLB   C4B 1236  18.620  24.670  25.290
   52BOLB   NC2 1237  18.130   0.930  24.110
   52BOLB   PO2 1238  18.470   0.950  24.430
   52BOLB   GL3 1239  18.510   0.780  24.860
   52BOLB   GL4 1240  18.280   0.630  24.950
   52BOLB   C1C 1241  18.860   0.560  25.100
   52BOLB   C2C 1242  19.210   0.450  25.330
   52BOLB   C3C 1243  19.310   0.140  25.700
   52BOLB   C4C 1244  19.330  26.340  26.140
   52BOLB   C1D 1245  17.940   0.350  25.010
   52BOLB   C2D 1246  17.990  26.410  25.020
   52BOLB   C3D 1247  18.080  25.930  25.100
   52BOLB   C4D 1248  17.940  25.520  25.180
   53BOLB   NC1 1249  16.860   9.660  22.750
   53BOLB   PO1 1250  16.880   9.800  23.200
   53BOLB   GL1 1251  17.260   9.820  23.210
   53BOLB   GL2 1252  17.380  10.110  23.170
   53BOLB   C1A 1253  17.700   9.730  23.240
   53BOLB   C2A 1254  17.980  10.010  23.170
   53BOLB   C3A 1255  18.060  10.370  23.360
   53BOLB   C4A 1256  18.240  10.760  23.570
   53BOLB   C1B 1257  17.540  10.200  23.470
   53BOLB   C2B 1258  17.860  10.260  23.780
   53BOLB   C3B 1259  18.200  10.450  23.940
   53BOLB   C4B 1260  18.570  10.760  24.030
   53BOLB   NC2 1261  18.770  12.410  24.760
   53BOLB   PO2 1262  19.230  12.590  24.690
   53BOLB   GL3 1263  19.130  12.380  24.270
   53BOLB   GL4 1264  18.990  12.340  23.860
   53BOLB   C1C 1265  18.850  11.930  24.140
   53BOLB   C2C 1266  18.590  11.670  23.860
   53BOLB   C3C 1267  18.560  11.210  23.860
   53BOLB   C4C 1268  18.170  11.080  23.740
   53BOLB   C1D 1269  18.920  11.960  23.570
   53BOLB   C2D 1270  18.620  11.720  23.400
   53BOLB   C3D 1271  18.540  11.540  23.000
   53BOLB   C4D 1272  18.510  11.820  22.620
   54BOLB   NC1 1273  16.050  10.620  21.830
   54BOLB   PO1 1274  15.690  10.420  22.200
   54BOLB   GL1 1275  15.950  10.730  22.470
   54BOLB   GL2 1276  16.070  10.910  22.250
   54BOLB   C1A 1277  16.340  10.870  22.690
   54BOLB   C2A 1278  16.750  10.730  22.900
   54BOLB   C3A 1279  17.150  10.590  23.030
   54BOLB   C4A 1280  17.450  10.730  23.370
   54BOLB   C1B 1281  16.290  11.310  22.190
   54BOLB   C2B 1282  16.120  11.670  22.220
   54BOLB   C3B 1283  16.100  12.140  22.280
   54BOLB   C4B 1284  15.930  12.410  22.540
   54BOLB   NC2 1285  16.380  10.160  22.750
   54BOLB   PO2 1286  16.400   9.840  22.940
   54BOLB   GL3 1287  16.510  10.290  23.200
   54BOLB   GL4 1288  16.340  10.560  23.240
   54BOLB   C1C 1289  16.550  10.440  23.650
   54BOLB   C2C 1290  16.940  10.370  23.960
   54BOLB   C3C 1291  17.280  10.440  24.030
   54BOLB   C4C 1292  17.500  10.690  23.730
   54BOLB   C1D 1293  16.640  10.860  23.370
   54BOLB   C2D 1294  17.010  10.850  23.670
   54BOLB   C3D 1295  17.230  11.210  23.640
   54BOLB   C4D 1296  17.310  11.500  23.990
   55BOLB   NC1 1297  19.790   2.950  32.200
   55BOLB   PO1 1298  19.520   2.570  32.390
   55BOLB   GL1 1299  19.510   2.040  32.400
   55BOLB   GL2 1300  19.620   1.750  32.690
   55BOLB   C1A 1301  19.230   1.610  32.340
   55BOLB   C2A 1302  19.270   1.190  32.290
   55BOLB   C3A 1303  19.620   0.950  32.410
   55BOLB   C4A 1304  19.790   0.800  32.710
   55BOLB   C1B 1305  19.530   1.390  32.670
   55BOLB   C2B 1306  19.330   1.100  32.820
   55BOLB   C3B 1307  19.360   0.640  32.900
   55BOLB   C4B 1308  19.470   0.290  33.050
   55BOLB   NC2 1309  20.030   2.380  33.490
   55BOLB   PO2 1310  19.600   2.360  33.500
   55BOLB   GL3 1311  19.700   1.860  33.480
   55BOLB   GL4 1312  19.490   1.740  33.310
   55BOLB   C1C 1313  19.950   1.540  33.670
   55BOLB   C2C 1314  19.890   1.110  33.660
   55BOLB   C3C 1315  19.860   0.680  33.520
   55BOLB   C4C 1316  19.800   0.690  33.100
   55BOLB   C1D 1317  19.210   1.620  33.030
   55BOLB   C2D 1318  18.890   1.390  32.860
   55BOLB   C3D 1319  18.770   0.930  32.740
   55BOLB   C4D 1320  18.740   0.510  32.420
   56BOLB   NC1 1321  14.540  17.050  32.420
   56BOLB   PO1 1322  14.300  16.710  32.300
   56BOLB   GL1 1323  13.880  16.480  32.370
   56BOLB   GL2 1324  13.850  16.620  32.680
   56BOLB   C1A 1325  13.470  16.300  32.490
   56BOLB   C2A 1326  12.920  16.120  32.620
   56BOLB   C3A 1327  12.540  15.970  32.490
   56BOLB   C4A 1328  12.020  15.960  32.550
   56BOLB   C1B 1329  13.460  16.510  32.900
   56BOLB   C2B 1330  13.110  16.550  33.000
   56BOLB   C3B 1331  12.780  16.570  33.200
   56BOLB   C4B 1332  12.560  16.980  33.320
   56BOLB   NC2 1333   9.960  15.660  32.480
   56BOLB   PO2 1334   9.890  15.820  32.020
   56BOLB   GL3 1335  10.220  15.930  31.850
   56BOLB   GL4 1336  10.400  15.700  31.900
   56BOLB   C1C 1337  10.570  16.170  31.950
   56BOLB   C2C 1338  11.090  16.200  31.910
   56BOLB   C3C 1339  11.350  16.100  32.130
   56BOLB   C4C 1340  11.600  16.080  32.350
   56BOLB   C1D 1341  10.600  15.380  32.050
   56BOLB   C2D 1342  10.830  15.200  32.290
   56BOLB   C3D 1343  11.240  15.400  32.410
   56BOLB   C4D 1344  11.610  15.500  32.760
   57BOLB   NC1 1345  23.310  21.300  27.360
   57BOLB   PO1 1346  23.150  21.140  26.940
   57BOLB   GL1 1347  23.390  21.500  26.780
   57BOLB   GL2 1348  23.270  21.520  26.420
   57BOLB   C1A 1349  23.620  21.900  26.750
   57BOLB   C2A 1350  23.950  22.240  26.760
   57BOLB   C3A 1351  24.040  22.620  26.770
   57BOLB   C4A 1352  23.930  22.910  26.850
   57BOLB   C1B 1353  23.420  21.880  26.290
   57BOLB   C2B 1354  23.780  22.100  26.310
   57BOLB   C3B 1355  24.120  22.330  26.220
   57BOLB   C4B 1356  24.380  22.410  25.810
   57BOLB   NC2 1357  22.170  22.230  26.980
   57BOLB   PO2 1358  22.150  21.820  26.750
   57BOLB   GL3 1359  22.530  22.000  26.670
   57BOLB   GL4 1360  22.540  22.180  26.510
   57BOLB   C1C 1361  22.830  22.280  26.960
   57BOLB   C2C 1362  23.040  22.600  27.000
   57BOLB   C3C 1363  23.340  22.810  27.000
   57BOLB   C4C 1364  23.580  23.000  26.890
   57BOLB   C1D 1365  22.850  22.460  26.430
   57BOLB   C2D 1366  23.150  22.560  26.250
   57BOLB   C3D 1367  23.580  22.470  26.020
   57BOLB   C4D 1368  23.780  22.780  25.850
   58BOLB   NC1 1369  23.150  17.730  17.410
   58BOLB   PO1 1370  23.510  17.860  17.510
   58BOLB   GL1 1371  23.650  17.670  17.860
   58BOLB   GL2 1372  23.630  17.370  17.850
   58BOLB   C1A 1373  23.920  17.590  18.310
   58BOLB   C2A 1374  23.990  17.710  18.820
   58BOLB   C3A 1375  24.060  17.410  19.160
   58BOLB   C4A 1376  24.170  17.370  19.580
   58BOLB   C1B 1377  23.770  17.100  18.240
   58BOLB   C2B 1378  23.840  17.150  18.650
   58BOLB   C3B 1379  23.980  16.950  18.970
   58BOLB   C4B 1380  24.330  16.660  18.950
   58BOLB   NC2 1381  25.510  17.990  18.560
   58BOLB   PO2 1382  25.260  18.380  18.710
   58BOLB   GL3 1383  25.210  18.390  19.150
   58BOLB   GL4 1384  25.350  18.100  19.230
   58BOLB   C1C 1385  24.840  18.580  19.280
   58BOLB   C2C 1386  24.530  18.440  19.620
   58BOLB   C3C 1387  24.350  18.120  19.800
   58BOLB   C4C 1388  24.350  17.680  19.880
   58BOLB   C1D 1389  24.970  18.120  19.520
   58BOLB   C2D 1390  24.710  17.890  19.540
   58BOLB   C3D 1391  24.650  17.400  19.470
   58BOLB   C4D 1392  24.660  17.100  19.820
   59BOLB   NC1 1393   9.710  18.800  28.870
   59BOLB   PO1 1394   9.480  18.780  28.480
   59BOLB   GL1 1395   9.890  18.910  28.420
   59BOLB   GL2 1396   9.980  19.260  28.410
   59BOLB   C1A 1397  10.330  18.800  28.480
   59BOLB   C2A 1398  10.720  19.030  28.520
   59BOLB   C3A 1399  10.980  19.240  28.890
   59BOLB   C4A 1400  10.810  19.490  29.330
   59BOLB   C1B 1401  10.360  19.410  28.500
   59BOLB   C2B 1402  10.780  19.490  28.380
   59BOLB   C3B 1403  11.200  19.460  28.510
   59BOLB   C4B 1404  11.660  19.500  28.690
   59BOLB   NC2 1405   9.120  19.260  31.060
   59BOLB   PO2 1406   9.010  19.500  30.770
   59BOLB   GL3 1407   9.430  19.470  30.580
   59BOLB   GL4 1408   9.510  19.410  30.790
   59BOLB   C1C 1409   9.800  19.500  30.360
   59BOLB   C2C 1410  10.200  19.530  30.330
   59BOLB   C3C 1411  10.480  19.580  29.980
   59BOLB   C4C 1412  10.770  19.480  29.720
   59BOLB   C1D 1413   9.870  19.650  30.850
   59BOLB   C2D 1414  10.320  19.530  30.770
   59BOLB   C3D 1415  10.670  19.690  30.560
   59BOLB   C4D 1416  11.060  19.840  30.580
   60BOLB   NC1 1417  26.885  16.930  40.150
   60BOLB   PO1 1418  27.115  17.260  39.840
   60BOLB   GL1 1419  27.265  17.690  40.050
   60BOLB   GL2 1420  27.485  17.970  39.930
   60BOLB   C1A 1421  27.715  17.800  40.370
   60BOLB   C2A 1422  27.895  17.840  40.680
   60BOLB   C3A 1423  28.155  18.010  40.970
   60BOLB   C4A 1424  28.515  18.140  41.080
   60BOLB   C1B 1425  27.855  18.130  40.020
   60BOLB   C2B 1426  28.135  18.160  40.310
   60BOLB   C3B 1427  28.475  18.490  40.330
   60BOLB   C4B 1428  28.865  18.760  40.480
   60BOLB   NC2 1429  30.255  18.960  42.900
   60BOLB   PO2 1430  30.275  19.100  42.480
   60BOLB   GL3 1431  29.895  18.990  42.210
   60BOLB   GL4 1432  29.645  19.260  42.170
   60BOLB   C1C 1433  29.445  18.810  42.090
   60BOLB   C2C 1434  29.075  18.620  42.130
   60BOLB   C3C 1435  28.795  18.380  41.880
   60BOLB   C4C 1436  28.755  18.500  41.420
   60BOLB   C1D 1437  29.185  19.130  42.290
   60BOLB   C2D 1438  28.835  19.270  42.140
   60BOLB   C3D 1439  28.465  19.240  41.730
   60BOLB   C4D 1440  28.505  18.970  41.300
   61BOLB   NC1 1441  17.710  12.160  31.660
   61BOLB   PO1 1442  17.510  11.750  31.620
   61BOLB   GL1 1443  17.220  11.510  31.780
   61BOLB   GL2 1444  17.060  11.550  32.020
   61BOLB   C1A 1445  16.830  11.230  31.600
   61BOLB   C2A 1446  16.450  10.880  31.370
   61BOLB   C3A 1447  16.110  10.760  31.180
   61BOLB   C4A 1448  15.720  10.550  31.120
   61BOLB   C1B 1449  16.730  11.300  32.050
   61BOLB   C2B 1450  16.570  10.880  31.830
   61BOLB   C3B 1451  16.440  10.470  31.690
   61BOLB   C4B 1452  16.430  10.030  31.590
   61BOLB   NC2 1453  13.870   8.890  30.490
   61BOLB   PO2 1454  14.240   9.110  30.350
   61BOLB   GL3 1455  14.550   9.300  30.240
   61BOLB   GL4 1456  14.370   9.400  29.980
   61BOLB   C1C 1457  14.750   9.600  30.420
   61BOLB   C2C 1458  15.040   9.810  30.680
   61BOLB   C3C 1459  15.360  10.170  30.670
   61BOLB   C4C 1460  15.400  10.480  30.850
   61BOLB   C1D 1461  14.700   9.800  29.960
   61BOLB   C2D 1462  14.890  10.150  29.670
   61BOLB   C3D 1463  14.680  10.350  29.410
   61BOLB   C4D 1464  14.860  10.660  29.160
   62BOLB   NC1 1465  14.090   1.680  35.190
   62BOLB   PO1 1466  14.120   1.310  35.510
   62BOLB   GL1 1467  14.310   0.980  35.480
   62BOLB   GL2 1468  14.060   0.780  35.350
   62BOLB   C1A 1469  14.660   0.750  35.320
   62BOLB   C2A 1470  14.820   0.350  35.290
   62BOLB   C3A 1471  15.090   0.050  35.200
   62BOLB   C4A 1472  15.520  26.350  35.410
   62BOLB   C1B 1473  14.240   0.400  35.370
   62BOLB   C2B 1474  14.160  26.410  35.580
   62BOLB   C3B 1475  14.050  26.090  35.490
   62BOLB   C4B 1476  13.830  25.760  35.290
   62BOLB   NC2 1477  14.470   0.960  36.780
   62BOLB   PO2 1478  14.450   1.400  36.490
   62BOLB   GL3 1479  14.770   1.170  36.240
   62BOLB   GL4 1480  14.510   0.980  36.250
   62BOLB   C1C 1481  15.120   0.990  36.040
   62BOLB   C2C 1482  15.520   0.690  35.950
   62BOLB   C3C 1483  15.860   0.480  35.720
   62BOLB   C4C 1484  15.850   0.110  35.570
   62BOLB   C1D 1485  14.580   0.590  36.300
   62BOLB   C2D 1486  14.700   0.290  36.090
   62BOLB   C3D 1487  14.990  26.370  36.140
   62BOLB   C4D 1488  15.380  26.030  36.190
   63BOLB   NC1 1489  22.600   9.770  24.700
   63BOLB   PO1 1490  22.930   9.630  24.940
   63BOLB   GL1 1491  22.790   9.380  24.600
   63BOLB   GL2 1492  23.090   9.200  24.450
   63BOLB   C1A 1493  22.470   9.200  24.240
   63BOLB   C2A 1494  22.500   8.900  23.940
   63BOLB   C3A 1495  22.330   8.610  23.700
   63BOLB   C4A 1496  22.230   8.190  23.560
   63BOLB   C1B 1497  23.010   8.970  23.960
   63BOLB   C2B 1498  22.830   8.800  23.660
   63BOLB   C3B 1499  22.920   8.520  23.380
   63BOLB   C4B 1500  22.810   8.120  23.270
   63BOLB   NC2 1501  20.780   6.400  22.370
   63BOLB   PO2 1502  20.750   6.350  22.810
   63BOLB   GL3 1503  20.900   6.670  23.050
   63BOLB   GL4 1504  20.700   6.950  23.150
   63BOLB   C1C 1505  21.180   7.130  23.200
   63BOLB   C2C 1506  21.390   7.430  23.390
   63BOLB   C3C 1507  21.540   7.790  23.480
   63BOLB   C4C 1508  21.900   8.060  23.370
   63BOLB   C1D 1509  20.760   7.290  23.400
   63BOLB   C2D 1510  20.910   7.560  23.590
   63BOLB   C3D 1511  20.710   7.860  23.860
   63BOLB   C4D 1512  20.320   7.900  23.820
   64BOLB   NC1 1513  24.660  18.350  33.580
   64BOLB   PO1 1514  24.220  18.560  33.420
   64BOLB   GL1 1515  24.180  18.730  33.050
   64BOLB   GL2 1516  23.930  18.830  32.930
   64BOLB   C1A 1517  24.450  18.850  32.660
   64BOLB   C2A 1518  24.460  19.120  32.340
   64BOLB   C3A 1519  24.520  19.510  32.100
   64BOLB   C4A 1520  24.230  19.620  31.790
   64BOLB   C1B 1521  24.090  19.180  32.760
   64BOLB   C2B 1522  24.420  19.520  32.630
   64BOLB   C3B 1523  24.610  19.880  32.430
   64BOLB   C4B 1524  25.000  20.160  32.380
   64BOLB   NC2 1525  23.490  20.320  32.970
   64BOLB   PO2 1526  23.110  20.220  32.800
   64BOLB   GL3 1527  23.310  20.400  32.460
   64BOLB   GL4 1528  23.620  20.390  32.270
   64BOLB   C1C 1529  23.300  20.530  31.940
   64BOLB   C2C 1530  23.460  20.570  31.510
   64BOLB   C3C 1531  23.740  20.250  31.350
   64BOLB   C4C 1532  23.950  19.880  31.550
   64BOLB   C1D 1533  23.960  20.370  32.510
   64BOLB   C2D 1534  24.480  20.450  32.420
   64BOLB   C3D 1535  24.830  20.660  32.180
   64BOLB   C4D 1536  25.000  20.360  31.830
   65BOLB   NC1 1537  26.905   9.820  38.420
   65BOLB   PO1 1538  26.695   9.700  38.080
   65BOLB   GL1 1539  26.845   9.330  38.330
   65BOLB   GL2 1540  26.585   9.110  38.610
   65BOLB   C1A 1541  27.045   8.970  38.470
   65BOLB   C2A 1542  27.105   8.550  38.420
   65BOLB   C3A 1543  27.395   8.210  38.690
   65BOLB   C4A 1544  27.595   7.960  38.600
   65BOLB   C1B 1545  26.765   8.760  38.890
   65BOLB   C2B 1546  27.115   8.570  38.950
   65BOLB   C3B 1547  27.345   8.270  39.220
   65BOLB   C4B 1548  27.495   8.270  39.620
   65BOLB   NC2 1549  27.655   5.430  39.670
   65BOLB   PO2 1550  27.925   5.680  39.670
   65BOLB   GL3 1551  27.995   6.080  39.600
   65BOLB   GL4 1552  28.315   6.310  39.710
   65BOLB   C1C 1553  27.935   6.330  39.260
   65BOLB   C2C 1554  27.765   6.650  38.920
   65BOLB   C3C 1555  27.685   7.050  38.610
   65BOLB   C4C 1556  27.785   7.500  38.590
   65BOLB   C1D 1557  28.115   6.720  39.630
   65BOLB   C2D 1558  27.745   6.860  39.480
   65BOLB   C3D 1559  27.315   7.050  39.380
   65BOLB   C4D 1560  26.935   7.350  39.430
   66BOLB   NC1 1561  16.540   1.610  25.900
   66BOLB   PO1 1562  16.880   1.680  26.170
   66BOLB   GL1 1563  16.880   1.250  26.020
   66BOLB   GL2 1564  17.160   1.060  25.910
   66BOLB   C1A 1565  16.670   0.890  26.040
   66BOLB   C2A 1566  16.500   0.590  26.160
   66BOLB   C3A 1567  16.250   0.200  26.290
   66BOLB   C4A 1568  16.390  26.210  26.460
   66BOLB   C1B 1569  17.140   0.600  25.840
   66BOLB   C2B 1570  17.210   0.100  25.880
   66BOLB   C3B 1571  16.950  26.120  25.910
   66BOLB   C4B 1572  17.090  25.690  26.120
   66BOLB   NC2 1573  17.100  24.480  28.040
   66BOLB   PO2 1574  16.710  24.200  27.850
   66BOLB   GL3 1575  16.420  24.520  27.770
   66BOLB   GL4 1576  16.180  24.480  27.650
   66BOLB   C1C 1577  16.480  24.960  27.590
   66BOLB   C2C 1578  16.470  25.330  27.390
   66BOLB   C3C 1579  16.420  25.610  27.080
   66BOLB   C4C 1580  16.400  25.880  26.730
   66BOLB   C1D 1581  15.660  24.460  27.600
   66BOLB   C2D 1582  15.580  24.920  27.530
   66BOLB   C3D 1583  15.300  25.340  27.470
   66BOLB   C4D 1584  15.150  25.690  27.720
   67BOLB   NC1 1585  20.300  24.500  31.930
   67BOLB   PO1 1586  20.180  24.630  32.360
   67BOLB   GL1 1587  20.080  25.100  32.480
   67BOLB   GL2 1588  19.890  25.170  32.240
   67BOLB   C1A 1589  20.120  25.500  32.670
   67BOLB   C2A 1590  20.240  25.880  32.560
   67BOLB   C3A 1591  20.350  26.020  32.130
   67BOLB   C4A 1592  20.520  26.270  31.780
   67BOLB   C1B 1593  19.870  25.610  32.280
   67BOLB   C2B 1594  19.820  26.060  32.320
   67BOLB   C3B 1595  19.940   0.040  32.330
   67BOLB   C4B 1596  19.800   0.510  32.330
   67BOLB   NC2 1597  19.610  23.840  30.500
   67BOLB   PO2 1598  19.820  24.330  30.570
   67BOLB   GL3 1599  19.820  24.830  30.530
   67BOLB   GL4 1600  20.150  24.870  30.460
   67BOLB   C1C 1601  19.830  25.300  30.630
   67BOLB   C2C 1602  19.920  25.510  30.860
   67BOLB   C3C 1603  20.090  25.680  31.380
   67BOLB   C4C 1604  20.280  26.010  31.450
   67BOLB   C1D 1605  20.260  25.210  30.290
   67BOLB   C2D 1606  19.990  25.660  30.310
   67BOLB   C3D 1607  19.820  26.030  30.400
   67BOLB   C4D 1608  19.740   0.050  30.220
   68BOLB   NC1 1609  18.760  13.850  40.360
   68BOLB   PO1 1610  18.490  14.180  40.290
   68BOLB   GL1 1611  18.380  13.900  40.700
   68BOLB   GL2 1612  18.150  14.000  40.710
   68BOLB   C1A 1613  18.310  13.750  41.150
   68BOLB   C2A 1614  18.000  13.730  41.560
   68BOLB   C3A 1615  17.740  13.390  41.680
   68BOLB   C4A 1616  17.470  13.100  41.940
   68BOLB   C1B 1617  17.830  13.650  40.620
   68BOLB   C2B 1618  17.430  13.410  40.740
   68BOLB   C3B 1619  16.990  13.170  40.880
   68BOLB   C4B 1620  16.610  12.930  40.950
   68BOLB   NC2 1621  15.570  11.700  43.030
   68BOLB   PO2 1622  15.280  12.010  42.850
   68BOLB   GL3 1623  15.670  12.190  42.720
   68BOLB   GL4 1624  15.730  12.510  42.830
   68BOLB   C1C 1625  16.110  12.230  42.810
   68BOLB   C2C 1626  16.430  12.420  42.760
   68BOLB   C3C 1627  16.700  12.840  42.620
   68BOLB   C4C 1628  17.080  12.870  42.150
   68BOLB   C1D 1629  15.980  12.760  42.640
   68BOLB   C2D 1630  16.310  13.180  42.440
   68BOLB   C3D 1631  16.560  13.450  42.150
   68BOLB   C4D 1632  16.440  13.820  42.220
   69BOLB   NC1 1633  20.540  23.760  29.710
   69BOLB   PO1 1634  20.990  23.920  29.870
   69BOLB   GL1 1635  21.220  24.280  29.960
   69BOLB   GL2 1636  21.130  24.380  29.660
   69BOLB   C1A 1637  21.500  24.660  30.070
   69BOLB   C2A 1638  21.550  25.040  30.070
   69BOLB   C3A 1639  21.500  25.480  30.060
   69BOLB   C4A 1640  21.600  25.940  30.120
   69BOLB   C1B 1641  21.140  24.410  29.180
   69BOLB   C2B 1642  21.290  24.840  29.040
   69BOLB   C3B 1643  21.510  25.200  29.110
   69BOLB   C4B 1644  21.690  25.500  29.340
   69BOLB   NC2 1645  23.260   1.380  31.200
   69BOLB   PO2 1646  22.800   1.400  30.990
   69BOLB   GL3 1647  22.630   1.050  30.830
   69BOLB   GL4 1648  22.300   1.040  31.020
   69BOLB   C1C 1649  22.540   0.820  30.520
   69BOLB   C2C 1650  22.270   0.430  30.260
   69BOLB   C3C 1651  22.060   0.110  30.250
   69BOLB   C4C 1652  21.860  26.320  30.090
   69BOLB   C1D 1653  22.110   0.690  30.780
   69BOLB   C2D 1654  22.020   0.280  30.800
   69BOLB   C3D 1655  21.730  26.310  30.780
   69BOLB   C4D 1656  21.750  25.880  30.930
   70BOLB   NC1 1657  20.020  12.920  40.240
   70BOLB   PO1 1658  19.720  12.770  40.450
   70BOLB   GL1 1659  19.300  12.500  40.480
   70BOLB   GL2 1660  19.210  12.200  40.370
   70BOLB   C1A 1661  19.190  12.370  40.900
   70BOLB   C2A 1662  19.000  12.230  41.160
   70BOLB   C3A 1663  18.670  11.900  41.280
   70BOLB   C4A 1664  18.300  11.920  41.420
   70BOLB   C1B 1665  18.870  12.070  40.570
   70BOLB   C2B 1666  18.490  12.220  40.460
   70BOLB   C3B 1667  18.130  12.030  40.420
   70BOLB   C4B 1668  18.000  11.680  40.220
   70BOLB   NC2 1669  17.030  10.520  43.030
   70BOLB   PO2 1670  17.210  10.340  42.650
   70BOLB   GL3 1671  17.280  10.700  42.460
   70BOLB   GL4 1672  17.420  10.850  42.630
   70BOLB   C1C 1673  17.520  11.040  42.130
   70BOLB   C2C 1674  17.670  11.200  41.860
   70BOLB   C3C 1675  17.680  11.380  41.550
   70BOLB   C4C 1676  18.000  11.810  41.610
   70BOLB   C1D 1677  17.870  10.850  42.780
   70BOLB   C2D 1678  18.290  10.850  42.650
   70BOLB   C3D 1679  18.450  11.190  42.500
   70BOLB   C4D 1680  18.720  11.130  42.220
   71BOLB   NC1 1681  27.085  23.100  27.070
   71BOLB   PO1 1682  26.665  23.120  26.980
   71BOLB   GL1 1683  26.465  22.880  27.240
   71BOLB   GL2 1684  26.160  22.960  27.430
   71BOLB   C1A 1685  26.310  22.450  27.120
   71BOLB   C2A 1686  26.270  21.980  27.090
   71BOLB   C3A 1687  26.070  21.700  27.210
   71BOLB   C4A 1688  25.610  21.650  27.400
   71BOLB   C1B 1689  25.920  22.610  27.480
   71BOLB   C2B 1690  25.410  22.770  27.400
   71BOLB   C3B 1691  25.100  22.660  27.570
   71BOLB   C4B 1692  24.690  22.690  27.700
   71BOLB   NC2 1693  22.730  21.340  27.650
   71BOLB   PO2 1694  23.140  21.450  27.840
   71BOLB   GL3 1695  23.530  21.700  27.750
   71BOLB   GL4 1696  23.410  21.750  27.430
   71BOLB   C1C 1697  23.930  21.740  27.590
   71BOLB   C2C 1698  24.400  21.700  27.590
   71BOLB   C3C 1699  24.790  21.700  27.710
   71BOLB   C4C 1700  25.230  21.690  27.690
   71BOLB   C1D 1701  23.630  21.990  27.330
   71BOLB   C2D 1702  24.010  22.260  27.460
   71BOLB   C3D 1703  24.320  22.610  27.360
   71BOLB   C4D 1704  24.470  22.900  26.890
   72BOLB   NC1 1705  17.760  16.680  40.960
   72BOLB   PO1 1706  17.470  16.390  41.150
   72BOLB   GL1 1707  17.140  16.420  41.490
   72BOLB   GL2 1708  16.890  16.270  41.530
   72BOLB   C1A 1709  17.160  16.430  42.010
   72BOLB   C2A 1710  17.180  16.210  42.460
   72BOLB   C3A 1711  17.030  16.210  42.790
   72BOLB   C4A 1712  17.020  16.320  43.250
   72BOLB   C1B 1713  16.700  16.270  41.810
   72BOLB   C2B 1714  16.490  16.230  42.220
   72BOLB   C3B 1715  16.160  16.080  42.420
   72BOLB   C4B 1716  15.990  15.630  42.300
   72BOLB   NC2 1717  15.250  16.390  45.290
   72BOLB   PO2 1718  15.430  16.620  44.990
   72BOLB   GL3 1719  15.520  16.610  44.590
   72BOLB   GL4 1720  15.400  16.510  44.320
   72BOLB   C1C 1721  15.970  16.590  44.340
   72BOLB   C2C 1722  16.280  16.710  44.160
   72BOLB   C3C 1723  16.540  16.510  43.880
   72BOLB   C4C 1724  16.930  16.570  43.580
   72BOLB   C1D 1725  15.730  16.310  44.050
   72BOLB   C2D 1726  16.020  16.050  43.860
   72BOLB   C3D 1727  16.350  16.090  43.730
   72BOLB   C4D 1728  16.730  16.100  43.570
   73BOLB   NC1 1729  30.585  18.490  25.510
   73BOLB   PO1 1730  30.235  18.700  25.430
   73BOLB   GL1 1731  29.815  18.610  25.460
   73BOLB   GL2 1732  29.575  18.710  25.360
   73BOLB   C1A 1733  29.435  18.780  25.800
   73BOLB   C2A 1734  29.025  18.810  26.040
   73BOLB   C3A 1735  28.925  18.610  26.510
   73BOLB   C4A 1736  28.525  18.470  26.680
   73BOLB   C1B 1737  29.175  18.520  25.380
   73BOLB   C2B 1738  28.825  18.400  25.620
   73BOLB   C3B 1739  28.505  18.050  25.760
   73BOLB   C4B 1740  28.235  17.830  25.950
   73BOLB   NC2 1741  29.665  20.050  27.480
   73BOLB   PO2 1742  29.795  19.710  27.750
   73BOLB   GL3 1743  29.425  19.560  27.640
   73BOLB   GL4 1744  29.445  19.590  27.310
   73BOLB   C1C 1745  29.165  19.160  27.580
   73BOLB   C2C 1746  28.915  18.760  27.610
   73BOLB   C3C 1747  28.685  18.380  27.420
   73BOLB   C4C 1748  28.505  18.300  27.110
   73BOLB   C1D 1749  29.585  19.130  27.200
   73BOLB   C2D 1750  29.325  18.710  27.170
   73BOLB   C3D 1751  29.035  18.440  27.120
   73BOLB   C4D 1752  28.915  18.160  26.850
   74BOLB   NC1 1753  26.240  19.180  46.220
   74BOLB   PO1 1754  26.080  19.420  45.960
   74BOLB   GL1 1755  25.850  19.390  45.610
   74BOLB   GL2 1756  25.500  19.340  45.730
   74BOLB   C1A 1757  25.790  19.690  45.340
   74BOLB   C2A 1758  25.430  19.930  45.190
   74BOLB   C3A 1759  25.240  19.860  44.840
   74BOLB   C4A 1760  24.830  19.790  44.690
   74BOLB   C1B 1761  25.240  19.770  45.630
   74BOLB   C2B 1762  25.210  20.250  45.490
   74BOLB   C3B 1763  25.050  20.390  45.180
   74BOLB   C4B 1764  24.920  20.320  44.770
   74BOLB   NC2 1765  25.010  21.950  45.420
   74BOLB   PO2 1766  24.990  21.500  45.390
   74BOLB   GL3 1767  24.780  21.570  44.990
   74BOLB   GL4 1768  24.630  21.800  45.060
   74BOLB   C1C 1769  24.480  21.260  44.790
   74BOLB   C2C 1770  24.400  20.870  44.530
   74BOLB   C3C 1771  24.650  20.530  44.350
   74BOLB   C4C 1772  24.570  20.130  44.460
   74BOLB   C1D 1773  24.270  21.820  44.780
   74BOLB   C2D 1774  24.110  21.570  44.610
   74BOLB   C3D 1775  24.080  21.320  44.270
   74BOLB   C4D 1776  23.950  21.400  43.820
   75BOLB   NC1 1777  23.010  18.360  28.830
   75BOLB   PO1 1778  23.480  18.320  28.800
   75BOLB   GL1 1779  23.420  18.510  29.250
   75BOLB   GL2 1780  23.130  18.530  29.430
   75BOLB   C1A 1781  23.740  18.480  29.580
   75BOLB   C2A 1782  23.920  18.820  29.820
   75BOLB   C3A 1783  24.080  19.160  29.870
   75BOLB   C4A 1784  24.190  19.500  30.080
   75BOLB   C1B 1785  23.330  18.250  29.750
   75BOLB   C2B 1786  23.690  17.920  29.680
   75BOLB   C3B 1787  23.790  17.520  29.860
   75BOLB   C4B 1788  23.730  17.400  30.260
   75BOLB   NC2 1789  22.120  20.920  31.150
   75BOLB   PO2 1790  22.220  20.870  30.680
   75BOLB   GL3 1791  22.660  20.750  30.570
   75BOLB   GL4 1792  22.580  20.730  31.000
   75BOLB   C1C 1793  23.120  20.590  30.610
   75BOLB   C2C 1794  23.300  20.340  30.390
   75BOLB   C3C 1795  23.610  20.020  30.370
   75BOLB   C4C 1796  23.950  19.820  30.140
   75BOLB   C1D 1797  22.850  20.400  30.980
   75BOLB   C2D 1798  23.380  20.270  31.060
   75BOLB   C3D 1799  23.650  20.080  30.870
   75BOLB   C4D 1800  23.720  19.720  30.750
   76BOLB   NC1 1801  22.760  14.560  43.390
   76BOLB   PO1 1802  23.070  14.380  43.340
   76BOLB   GL1 1803  23.060  14.300  43.740
   76BOLB   GL2 1804  22.810  14.550  43.920
   76BOLB   C1A 1805  23.130  14.150  44.100
   76BOLB   C2A 1806  23.120  14.010  44.590
   76BOLB   C3A 1807  22.820  14.090  44.890
   76BOLB   C4A 1808  22.360  14.010  44.810
   76BOLB   C1B 1809  23.070  14.700  44.190
   76BOLB   C2B 1810  23.410  14.890  44.310
   76BOLB   C3B 1811  23.680  14.930  44.630
   76BOLB   C4B 1812  24.060  14.930  44.940
   76BOLB   NC2 1813  22.830  14.480  42.390
   76BOLB   PO2 1814  22.920  14.090  42.690
   76BOLB   GL3 1815  22.880  13.960  43.150
   76BOLB   GL4 1816  23.140  13.910  43.410
   76BOLB   C1C 1817  22.610  13.630  43.470
   76BOLB   C2C 1818  22.480  13.590  43.950
   76BOLB   C3C 1819  22.310  13.810  44.270
   76BOLB   C4C 1820  22.280  14.050  44.480
   76BOLB   C1D 1821  22.920  13.790  43.750
   76BOLB   C2D 1822  22.870  13.770  44.210
   76BOLB   C3D 1823  22.700  13.580  44.640
   76BOLB   C4D 1824  22.830  13.140  44.700
   77BOLB   NC1 1825  20.890   7.170  21.560
   77BOLB   PO1 1826  20.750   7.470  21.310
   77BOLB   GL1 1827  20.870   7.740  21.670
   77BOLB   GL2 1828  21.070   7.920  21.440
   77BOLB   C1A 1829  20.970   8.030  22.060
   77BOLB   C2A 1830  20.850   8.080  22.400
   77BOLB   C3A 1831  20.660   8.430  22.580
   77BOLB   C4A 1832  20.970   8.680  22.540
   77BOLB   C1B 1833  21.350   7.890  21.760
   77BOLB   C2B 1834  21.530   7.960  22.050
   77BOLB   C3B 1835  21.880   8.290  22.170
   77BOLB   C4B 1836  21.910   8.600  22.300
   77BOLB   NC2 1837  21.580   8.420  20.790
   77BOLB   PO2 1838  21.800   8.140  21.010
   77BOLB   GL3 1839  21.880   8.460  21.230
   77BOLB   GL4 1840  21.880   8.640  21.080
   77BOLB   C1C 1841  21.920   8.730  21.570
   77BOLB   C2C 1842  21.630   8.820  21.830
   77BOLB   C3C 1843  21.460   9.080  22.250
   77BOLB   C4C 1844  21.250   9.020  22.570
   77BOLB   C1D 1845  22.060   8.980  20.950
   77BOLB   C2D 1846  21.770   9.290  20.790
   77BOLB   C3D 1847  21.750   9.750  20.660
   77BOLB   C4D 1848  21.620   9.960  20.260
   78BOLB   NC1 1849  31.575   8.900  40.610
   78BOLB   PO1 1850  31.725   8.980  40.170
   78BOLB   GL1 1851  31.515   9.300  39.870
   78BOLB   GL2 1852  31.265   9.420  39.860
   78BOLB   C1A 1853  31.535   9.450  39.360
   78BOLB   C2A 1854  31.575   9.550  38.880
   78BOLB   C3A 1855  31.395   9.770  38.610
   78BOLB   C4A 1856  31.125  10.050  38.600
   78BOLB   C1B 1857  31.005   9.440  39.430
   78BOLB   C2B 1858  31.015   9.700  39.100
   78BOLB   C3B 1859  31.345   9.980  39.120
   78BOLB   C4B 1860  31.655   9.950  39.410
   78BOLB   NC2 1861  30.655   9.140  41.030
   78BOLB   PO2 1862  30.895   9.110  40.660
   78BOLB   GL3 1863  30.705   9.200  40.310
   78BOLB   GL4 1864  30.885   9.110  39.980
   78BOLB   C1C 1865  30.845   9.570  39.940
   78BOLB   C2C 1866  31.175   9.820  39.630
   78BOLB   C3C 1867  30.915  10.070  39.390
   78BOLB   C4C 1868  30.855  10.150  38.890
   78BOLB   C1D 1869  30.425   9.280  39.870
   78BOLB   C2D 1870  29.955   9.200  39.790
   78BOLB   C3D 1871  29.595   8.960  40.010
   78BOLB   C4D 1872  29.235   8.750  39.900
   79BOLB   NC1 1873  12.820  18.330  42.780
   79BOLB   PO1 1874  13.130  18.240  43.160
   79BOLB   GL1 1875  13.330  18.360  42.740
   79BOLB   GL2 1876  13.160  18.660  42.550
   79BOLB   C1A 1877  13.520  18.340  42.370
   79BOLB   C2A 1878  13.860  18.230  42.240
   79BOLB   C3A 1879  14.180  18.470  41.950
   79BOLB   C4A 1880  13.790  18.750  41.750
   79BOLB   C1B 1881  13.450  18.810  42.190
   79BOLB   C2B 1882  13.730  19.030  42.150
   79BOLB   C3B 1883  14.110  19.160  41.930
   79BOLB   C4B 1884  14.470  19.340  41.780
   79BOLB   NC2 1885  11.650  20.320  41.390
   79BOLB   PO2 1886  11.870  20.110  41.080
   79BOLB   GL3 1887  12.390  19.980  41.270
   79BOLB   GL4 1888  12.380  19.720  41.370
   79BOLB   C1C 1889  12.920  19.860  41.180
   79BOLB   C2C 1890  13.330  19.740  41.370
   79BOLB   C3C 1891  13.640  19.400  41.300
   79BOLB   C4C 1892  13.830  19.110  41.460
   79BOLB   C1D 1893  12.540  19.530  40.910
   79BOLB   C2D 1894  12.840  19.540  40.690
   79BOLB   C3D 1895  12.900  19.470  40.210
   79BOLB   C4D 1896  13.170  19.130  40.070
   80BOLB   NC1 1897  16.180   1.940  29.810
   80BOLB   PO1 1898  16.100   1.840  29.340
   80BOLB   GL1 1899  16.150   1.480  29.100
   80BOLB   GL2 1900  16.430   1.260  28.900
   80BOLB   C1A 1901  16.220   0.990  29.270
   80BOLB   C2A 1902  16.470   0.780  29.070
   80BOLB   C3A 1903  16.810   0.500  29.160
   80BOLB   C4A 1904  16.920   0.040  29.270
   80BOLB   C1B 1905  16.680   0.960  28.650
   80BOLB   C2B 1906  16.940   0.520  28.630
   80BOLB   C3B 1907  17.120   0.170  28.790
   80BOLB   C4B 1908  17.100  26.130  28.870
   80BOLB   NC2 1909  17.580  24.310  29.480
   80BOLB   PO2 1910  17.230  24.270  29.190
   80BOLB   GL3 1911  17.390  24.670  29.160
   80BOLB   GL4 1912  17.340  24.750  28.870
   80BOLB   C1C 1913  17.290  24.940  29.410
   80BOLB   C2C 1914  17.130  25.330  29.620
   80BOLB   C3C 1915  16.920  25.730  29.590
   80BOLB   C4C 1916  17.020  26.120  29.360
   80BOLB   C1D 1917  17.170  25.120  28.900
   80BOLB   C2D 1918  17.300  25.480  29.100
   80BOLB   C3D 1919  17.460  25.800  28.760
   80BOLB   C4D 1920  17.570  26.270  28.760
   81BOLB   NC1 1921  22.300  19.400  28.690
   81BOLB   PO1 1922  22.460  19.160  29.060
   81BOLB   GL1 1923  22.700  19.110  29.490
   81BOLB   GL2 1924  22.870  19.250  29.760
   81BOLB   C1A 1925  22.880  18.730  29.840
   81BOLB   C2A 1926  23.090  18.530  30.140
   81BOLB   C3A 1927  23.340  18.240  30.420
   81BOLB   C4A 1928  23.640  17.980  30.650
   81BOLB   C1B 1929  23.170  19.170  30.080
   81BOLB   C2B 1930  23.130  18.870  30.470
   81BOLB   C3B 1931  23.440  18.700  30.670
   81BOLB   C4B 1932  23.370  18.390  30.900
   81BOLB   NC2 1933  24.800  16.200  31.690
   81BOLB   PO2 1934  24.770  16.480  31.390
   81BOLB   GL3 1935  24.580  16.850  31.370
   81BOLB   GL4 1936  24.740  17.180  31.540
   81BOLB   C1C 1937  24.230  17.060  31.380
   81BOLB   C2C 1938  24.010  17.400  31.390
   81BOLB   C3C 1939  24.110  17.590  31.160
   81BOLB   C4C 1940  23.990  17.780  30.860
   81BOLB   C1D 1941  24.520  17.520  31.480
   81BOLB   C2D 1942  24.400  18.000  31.330
   81BOLB   C3D 1943  24.030  18.210  31.100
   81BOLB   C4D 1944  23.850  18.550  30.900
   82BOLB   NC1 1945  26.795   8.430  29.960
   82BOLB   PO1 1946  27.105   8.130  29.880
   82BOLB   GL1 1947  27.085   7.630  29.930
   82BOLB   GL2 1948  26.755   7.460  30.070
   82BOLB   C1A 1949  27.255   7.210  30.000
   82BOLB   C2A 1950  27.255   6.900  29.680
   82BOLB   C3A 1951  27.585   6.860  29.340
   82BOLB   C4A 1952  27.975   6.940  29.200
   82BOLB   C1B 1953  26.785   7.010  30.010
   82BOLB   C2B 1954  26.805   6.500  29.950
   82BOLB   C3B 1955  27.105   6.360  29.720
   82BOLB   C4B 1956  27.285   6.400  29.330
   82BOLB   NC2 1957  30.195   5.310  29.160
   82BOLB   PO2 1958  29.705   5.370  29.210
   82BOLB   GL3 1959  29.665   5.740  29.000
   82BOLB   GL4 1960  29.945   5.960  29.130
   82BOLB   C1C 1961  29.475   6.120  29.050
   82BOLB   C2C 1962  28.945   6.190  28.940
   82BOLB   C3C 1963  28.585   6.430  28.950
   82BOLB   C4C 1964  28.225   6.600  29.000
   82BOLB   C1D 1965  29.835   6.500  29.190
   82BOLB   C2D 1966  30.105   6.880  29.210
   82BOLB   C3D 1967  30.255   7.020  29.580
   82BOLB   C4D 1968  30.305   7.330  29.930
   83BOLB   NC1 1969  24.060  19.740  25.870
   83BOLB   PO1 1970  24.450  20.050  25.800
   83BOLB   GL1 1971  24.800  20.180  26.070
   83BOLB   GL2 1972  24.770  20.460  25.890
   83BOLB   C1A 1973  25.350  20.250  26.090
   83BOLB   C2A 1974  25.670  20.620  26.130
   83BOLB   C3A 1975  25.930  20.960  25.990
   83BOLB   C4A 1976  25.880  21.180  25.610
   83BOLB   C1B 1977  24.810  20.830  25.740
   83BOLB   C2B 1978  25.100  21.170  25.670
   83BOLB   C3B 1979  25.120  21.570  25.830
   83BOLB   C4B 1980  25.390  21.920  25.790
   83BOLB   NC2 1981  27.105  23.050  24.210
   83BOLB   PO2 1982  27.215  22.780  24.550
   83BOLB   GL3 1983  26.955  22.440  24.560
   83BOLB   GL4 1984  26.685  22.620  24.600
   83BOLB   C1C 1985  26.645  22.120  24.680
   83BOLB   C2C 1986  26.280  21.810  24.850
   83BOLB   C3C 1987  25.910  21.620  24.990
   83BOLB   C4C 1988  25.810  21.310  25.250
   83BOLB   C1D 1989  26.745  22.430  25.080
   83BOLB   C2D 1990  26.695  22.090  25.230
   83BOLB   C3D 1991  26.615  21.760  25.240
   83BOLB   C4D 1992  26.320  21.440  25.180
   84BOLB   NC1 1993  20.560  22.770  19.040
   84BOLB   PO1 1994  20.870  22.590  19.260
   84BOLB   GL1 1995  20.850  22.340  19.460
   84BOLB   GL2 1996  21.140  22.160  19.530
   84BOLB   C1A 1997  20.680  22.090  19.790
   84BOLB   C2A 1998  20.390  21.730  19.940
   84BOLB   C3A 1999  20.330  21.560  20.370
   84BOLB   C4A 2000  19.980  21.410  20.390
   84BOLB   C1B 2001  21.220  22.400  19.850
   84BOLB   C2B 2002  21.070  22.310  20.270
   84BOLB   C3B 2003  20.950  22.070  20.610
   84BOLB   C4B 2004  20.670  22.110  21.010
   84BOLB   NC2 2005  20.020  21.670  18.410
   84BOLB   PO2 2006  19.620  21.550  18.210
   84BOLB   GL3 2007  19.620  21.470  18.630
   84BOLB   GL4 2008  19.940  21.280  18.700
   84BOLB   C1C 2009  19.360  21.760  18.940
   84BOLB   C2C 2010  19.310  21.660  19.440
   84BOLB   C3C 2011  19.390  21.490  19.880
   84BOLB   C4C 2012  19.610  21.400  20.240
   84BOLB   C1D 2013  20.100  21.050  18.970
   84BOLB   C2D 2014  20.160  20.670  18.950
   84BOLB   C3D 2015  20.250  20.250  18.930
   84BOLB   C4D 2016  20.420  19.890  18.790
   85BOLB   NC1 2017  28.125   9.070  31.820
   85BOLB   PO1 2018  28.455   8.720  31.830
   85BOLB   GL1 2019  28.785   8.400  31.840
   85BOLB   GL2 2020  29.035   8.510  31.880
   85BOLB   C1A 2021  28.925   7.960  31.970
   85BOLB   C2A 2022  29.125   7.650  32.080
   85BOLB   C3A 2023  29.325   7.410  32.360
   85BOLB   C4A 2024  29.295   7.260  32.790
   85BOLB   C1B 2025  29.485   8.320  31.870
   85BOLB   C2B 2026  29.685   7.940  32.020
   85BOLB   C3B 2027  29.775   7.500  32.100
   85BOLB   C4B 2028  29.905   7.060  32.230
   85BOLB   NC2 2029  31.495   6.490  34.070
   85BOLB   PO2 2030  31.595   6.610  33.680
   85BOLB   GL3 2031  31.125   6.790  33.780
   85BOLB   GL4 2032  31.075   6.730  34.150
   85BOLB   C1C 2033  30.785   6.980  33.750
   85BOLB   C2C 2034  30.415   7.250  33.500
   85BOLB   C3C 2035  29.955   7.240  33.290
   85BOLB   C4C 2036  29.475   7.180  33.160
   85BOLB   C1D 2037  30.725   6.980  34.240
   85BOLB   C2D 2038  30.465   7.330  34.020
   85BOLB   C3D 2039  30.055   7.350  33.890
   85BOLB   C4D 2040  29.745   7.070  33.770
   86BOLB   NC1 2041  18.270  20.970  40.930
   86BOLB   PO1 2042  18.540  21.340  40.910
   86BOLB   GL1 2043  18.390  21.500  41.220
   86BOLB   GL2 2044  18.100  21.570  41.190
   86BOLB   C1A 2045  18.400  21.650  41.670
   86BOLB   C2A 2046  18.190  21.780  41.920
   86BOLB   C3A 2047  17.960  22.020  42.250
   86BOLB   C4A 2048  17.910  22.260  42.680
   86BOLB   C1B 2049  17.970  21.920  41.450
   86BOLB   C2B 2050  17.660  21.980  41.810
   86BOLB   C3B 2051  17.370  22.050  41.980
   86BOLB   C4B 2052  17.090  22.000  42.360
   86BOLB   NC2 2053  17.850  24.020  44.690
   86BOLB   PO2 2054  18.050  23.640  44.470
   86BOLB   GL3 2055  17.900  23.330  44.290
   86BOLB   GL4 2056  18.170  23.090  44.310
   86BOLB   C1C 2057  17.780  23.070  43.970
   86BOLB   C2C 2058  18.030  22.950  43.680
   86BOLB   C3C 2059  17.960  22.780  43.340
   86BOLB   C4C 2060  18.050  22.370  43.020
   86BOLB   C1D 2061  18.450  22.730  44.150
   86BOLB   C2D 2062  18.580  22.290  44.230
   86BOLB   C3D 2063  18.510  22.020  43.810
   86BOLB   C4D 2064  18.420  21.650  43.660
   87BOLB   NC1 2065  28.625   9.750  29.690
   87BOLB   PO1 2066  28.785  10.060  29.480
   87BOLB   GL1 2067  29.145   9.810  29.280
   87BOLB   GL2 2068  29.075   9.660  28.910
   87BOLB   C1A 2069  29.505   9.560  29.060
   87BOLB   C2A 2070  29.895   9.380  29.280
   87BOLB   C3A 2071  30.015   8.990  29.490
   87BOLB   C4A 2072  30.285   8.650  29.540
   87BOLB   C1B 2073  29.115   9.250  28.800
   87BOLB   C2B 2074  29.375   8.980  28.650
   87BOLB   C3B 2075  29.825   8.840  28.530
   87BOLB   C4B 2076  30.295   8.930  28.500
   87BOLB   NC2 2077  32.445   7.710  30.220
   87BOLB   PO2 2078  32.305   7.320  30.150
   87BOLB   GL3 2079  31.945   7.600  30.060
   87BOLB   GL4 2080  31.975   7.660  30.360
   87BOLB   C1C 2081  31.555   7.690  30.040
   87BOLB   C2C 2082  31.205   7.840  30.120
   87BOLB   C3C 2083  30.925   8.080  29.870
   87BOLB   C4C 2084  30.625   8.460  29.790
   87BOLB   C1D 2085  31.755   8.020  30.350
   87BOLB   C2D 2086  31.415   8.260  30.170
   87BOLB   C3D 2087  31.035   8.510  30.120
   87BOLB   C4D 2088  30.695   8.710  30.230
   88BOLB   NC1 2089  24.820  10.380  39.300
   88BOLB   PO1 2090  25.340  10.450  39.480
   88BOLB   GL1 2091  25.530  10.110  39.750
   88BOLB   GL2 2092  25.550   9.820  39.670
   88BOLB   C1A 2093  25.620   9.900  40.150
   88BOLB   C2A 2094  25.360   9.730  40.420
   88BOLB   C3A 2095  25.430   9.620  40.880
   88BOLB   C4A 2096  25.360   9.290  41.300
   88BOLB   C1B 2097  25.860   9.560  39.690
   88BOLB   C2B 2098  26.260   9.150  39.770
   88BOLB   C3B 2099  26.170   8.720  39.950
   88BOLB   C4B 2100  26.210   8.580  40.310
   88BOLB   NC2 2101  26.330   8.220  43.930
   88BOLB   PO2 2102  26.300   8.410  43.530
   88BOLB   GL3 2103  26.090   8.660  43.100
   88BOLB   GL4 2104  26.240   8.730  42.790
   88BOLB   C1C 2105  25.730   8.730  42.870
   88BOLB   C2C 2106  25.550   8.660  42.460
   88BOLB   C3C 2107  25.240   8.890  42.070
   88BOLB   C4C 2108  25.310   9.080  41.640
   88BOLB   C1D 2109  26.575   8.790  42.600
   88BOLB   C2D 2110  26.925   9.120  42.780
   88BOLB   C3D 2111  27.225   9.460  42.850
   88BOLB   C4D 2112  27.705   9.540  42.840
   89BOLB   NC1 2113  29.645   8.470  41.780
   89BOLB   PO1 2114  29.245   8.560  42.010
   89BOLB   GL1 2115  29.085   8.850  41.790
   89BOLB   GL2 2116  28.715   8.920  41.850
   89BOLB   C1A 2117  29.255   8.890  41.370
   89BOLB   C2A 2118  29.025   8.830  40.960
   89BOLB   C3A 2119  28.705   8.900  40.660
   89BOLB   C4A 2120  28.245   8.890  40.700
   89BOLB   C1B 2121  28.695   9.000  41.470
   89BOLB   C2B 2122  28.455   9.200  41.000
   89BOLB   C3B 2123  28.215   9.380  40.710
   89BOLB   C4B 2124  27.885   9.300  40.530
   89BOLB   NC2 2125  28.085   7.040  41.780
   89BOLB   PO2 2126  27.855   7.180  41.450
   89BOLB   GL3 2127  28.095   7.360  41.080
   89BOLB   GL4 2128  28.295   7.560  41.000
   89BOLB   C1C 2129  27.745   7.630  40.820
   89BOLB   C2C 2130  27.595   8.000  40.610
   89BOLB   C3C 2131  27.555   8.490  40.560
   89BOLB   C4C 2132  27.895   8.770  40.500
   89BOLB   C1D 2133  28.175   8.000  40.960
   89BOLB   C2D 2134  27.975   8.410  40.900
   89BOLB   C3D 2135  27.775   8.780  41.020
   89BOLB   C4D 2136  27.925   9.110  41.050
   90BOLB   NC1 2137  23.610  20.540  27.610
   90BOLB   PO1 2138  23.550  20.840  27.490
   90BOLB   GL1 2139  23.800  21.220  27.400
   90BOLB   GL2 2140  23.740  21.530  27.110
   90BOLB   C1A 2141  24.300  21.230  27.440
   90BOLB   C2A 2142  24.700  21.210  27.760
   90BOLB   C3A 2143  24.980  21.400  28.130
   90BOLB   C4A 2144  25.410  21.400  28.130
   90BOLB   C1B 2145  24.110  21.800  27.170
   90BOLB   C2B 2146  24.500  21.980  27.090
   90BOLB   C3B 2147  24.930  22.060  26.820
   90BOLB   C4B 2148  25.430  22.000  26.600
   90BOLB   NC2 2149  27.175  23.030  27.940
   90BOLB   PO2 2150  27.195  23.090  27.580
   90BOLB   GL3 2151  26.935  22.840  27.460
   90BOLB   GL4 2152  26.995  22.540  27.440
   90BOLB   C1C 2153  26.525  22.550  27.700
   90BOLB   C2C 2154  26.200  22.160  27.560
   90BOLB   C3C 2155  26.160  21.640  27.690
   90BOLB   C4C 2156  25.800  21.590  27.900
   90BOLB   C1D 2157  26.755  22.260  27.320
   90BOLB   C2D 2158  26.595  21.850  27.470
   90BOLB   C3D 2159  26.735  21.670  27.870
   90BOLB   C4D 2160  27.135  21.850  28.080
   91BOLB   NC1 2161  18.110  22.710  24.730
   91BOLB   PO1 2162  18.020  23.210  24.630
   91BOLB   GL1 2163  17.880  23.670  24.510
   91BOLB   GL2 2164  17.600  23.740  24.380
   91BOLB   C1A 2165  17.970  24.120  24.430
   91BOLB   C2A 2166  18.100  24.540  24.510
   91BOLB   C3A 2167  18.180  24.860  24.310
   91BOLB   C4A 2168  18.290  24.990  23.980
   91BOLB   C1B 2169  17.850  23.740  23.980
   91BOLB   C2B 2170  18.140  23.990  23.830
   91BOLB   C3B 2171  18.260  24.270  23.470
   91BOLB   C4B 2172  18.600  24.410  23.230
   91BOLB   NC2 2173  18.370   0.010  22.190
   91BOLB   PO2 2174  18.330  26.120  22.120
   91BOLB   GL3 2175  18.160  25.720  22.270
   91BOLB   GL4 2176  17.930  25.840  22.570
   91BOLB   C1C 2177  18.450  25.410  22.380
   91BOLB   C2C 2178  18.480  25.240  22.820
   91BOLB   C3C 2179  18.630  24.910  23.230
   91BOLB   C4C 2180  18.470  24.790  23.600
   91BOLB   C1D 2181  18.160  25.620  22.810
   91BOLB   C2D 2182  18.550  25.720  23.020
   91BOLB   C3D 2183  18.940  25.460  23.070
   91BOLB   C4D 2184  19.190  25.060  23.100
   92BOLB   NC1 2185  23.060  16.860  17.090
   92BOLB   PO1 2186  23.080  17.290  17.260
   92BOLB   GL1 2187  23.160  17.150  17.700
   92BOLB   GL2 2188  23.130  17.480  17.920
   92BOLB   C1A 2189  22.770  17.090  17.980
   92BOLB   C2A 2190  22.550  17.060  18.310
   92BOLB   C3A 2191  22.290  16.780  18.490
   92BOLB   C4A 2192  22.130  16.370  18.430
   92BOLB   C1B 2193  23.300  17.190  18.180
   92BOLB   C2B 2194  23.400  16.980  18.580
   92BOLB   C3B 2195  23.490  16.840  19.060
   92BOLB   C4B 2196  23.350  16.790  19.400
   92BOLB   NC2 2197  21.660  15.950  16.720
   92BOLB   PO2 2198  21.730  15.650  17.080
   92BOLB   GL3 2199  21.840  15.570  17.510
   92BOLB   GL4 2200  21.770  15.220  17.610
   92BOLB   C1C 2201  21.750  15.690  17.940
   92BOLB   C2C 2202  21.500  15.540  18.250
   92BOLB   C3C 2203  21.630  15.620  18.670
   92BOLB   C4C 2204  21.900  15.990  18.740
   92BOLB   C1D 2205  21.610  15.050  18.010
   92BOLB   C2D 2206  21.330  15.020  18.340
   92BOLB   C3D 2207  21.080  15.000  18.650
   92BOLB   C4D 2208  20.880  15.270  18.980
   93BOLB   NC1 2209  11.140  21.660  23.060
   93BOLB   PO1 2210  11.200  22.040  22.830
   93BOLB   GL1 2211  11.640  21.840  22.890
   93BOLB   GL2 2212  11.760  21.440  22.950
   93BOLB   C1A 2213  12.040  21.830  23.130
   93BOLB   C2A 2214  12.380  21.700  23.340
   93BOLB   C3A 2215  12.750  21.780  23.420
   93BOLB   C4A 2216  13.150  21.760  23.440
   93BOLB   C1B 2217  12.230  21.340  22.980
   93BOLB   C2B 2218  12.640  21.080  23.150
   93BOLB   C3B 2219  13.040  20.910  23.090
   93BOLB   C4B 2220  13.200  20.660  22.710
   93BOLB   NC2 2221  12.750  22.030  21.530
   93BOLB   PO2 2222  12.620  21.740  21.310
   93BOLB   GL3 2223  13.110  21.650  21.350
   93BOLB   GL4 2224  13.420  21.500  21.150
   93BOLB   C1C 2225  13.310  21.710  21.760
   93BOLB   C2C 2226  13.260  21.720  22.250
   93BOLB   C3C 2227  13.310  21.820  22.680
   93BOLB   C4C 2228  13.300  21.730  23.050
   93BOLB   C1D 2229  13.930  21.350  21.230
   93BOLB   C2D 2230  14.120  21.130  21.460
   93BOLB   C3D 2231  14.130  20.920  21.840
   93BOLB   C4D 2232  13.930  20.630  22.220
   94BOLB   NC1 2233  14.620  15.140  35.430
   94BOLB   PO1 2234  14.670  15.470  35.740
   94BOLB   GL1 2235  14.260  15.360  35.710
   94BOLB   GL2 2236  14.310  15.540  35.390
   94BOLB   C1A 2237  13.920  15.190  35.740
   94BOLB   C2A 2238  13.640  14.820  35.600
   94BOLB   C3A 2239  13.410  14.580  35.300
   94BOLB   C4A 2240  13.300  14.150  35.350
   94BOLB   C1B 2241  13.910  15.810  35.120
   94BOLB   C2B 2242  13.510  15.710  35.000
   94BOLB   C3B 2243  13.040  15.570  34.800
   94BOLB   C4B 2244  12.610  15.490  34.810
   94BOLB   NC2 2245  11.150  13.570  34.530
   94BOLB   PO2 2246  11.310  13.220  34.720
   94BOLB   GL3 2247  11.690  13.010  34.890
   94BOLB   GL4 2248  11.520  12.900  35.320
   94BOLB   C1C 2249  12.080  12.900  35.080
   94BOLB   C2C 2250  12.480  13.200  35.100
   94BOLB   C3C 2251  12.710  13.530  34.890
   94BOLB   C4C 2252  13.030  13.880  35.110
   94BOLB   C1D 2253  11.840  13.280  35.280
   94BOLB   C2D 2254  12.100  13.660  35.410
   94BOLB   C3D 2255  12.470  13.740  35.350
   94BOLB   C4D 2256  12.870  13.830  35.550
   95BOLB   NC1 2257  22.420  20.140  29.410
   95BOLB   PO1 2258  22.680  20.450  29.560
   95BOLB   GL1 2259  23.050  20.170  29.690
   95BOLB   GL2 2260  23.290  20.330  29.780
   95BOLB   C1A 2261  23.160  19.850  29.880
   95BOLB   C2A 2262  23.410  19.620  30.100
   95BOLB   C3A 2263  23.730  19.360  30.280
   95BOLB   C4A 2264  23.690  18.960  30.290
   95BOLB   C1B 2265  23.650  20.050  29.800
   95BOLB   C2B 2266  23.750  19.540  29.710
   95BOLB   C3B 2267  23.460  19.230  29.740
   95BOLB   C4B 2268  23.430  18.810  29.760
   95BOLB   NC2 2269  23.820  16.660  29.710
   95BOLB   PO2 2270  24.290  16.650  29.610
   95BOLB   GL3 2271  24.220  16.950  29.980
   95BOLB   GL4 2272  24.390  17.160  29.780
   95BOLB   C1C 2273  24.230  17.310  30.260
   95BOLB   C2C 2274  24.080  17.770  30.210
   95BOLB   C3C 2275  23.780  18.120  30.140
   95BOLB   C4C 2276  23.680  18.590  30.150
   95BOLB   C1D 2277  24.380  17.690  29.770
   95BOLB   C2D 2278  24.630  17.910  30.000
   95BOLB   C3D 2279  24.510  18.010  30.440
   95BOLB   C4D 2280  24.180  18.100  30.590
   96BOLB   NC1 2281  26.320  17.240  31.830
   96BOLB   PO1 2282  26.525  17.490  32.120
   96BOLB   GL1 2283  26.430  17.780  31.790
   96BOLB   GL2 2284  26.515  18.040  31.900
   96BOLB   C1A 2285  26.525  17.990  31.360
   96BOLB   C2A 2286  26.555  18.410  31.140
   96BOLB   C3A 2287  26.795  18.830  31.150
   96BOLB   C4A 2288  27.135  18.970  31.030
   96BOLB   C1B 2289  26.605  18.370  31.650
   96BOLB   C2B 2290  26.835  18.720  31.740
   96BOLB   C3B 2291  26.825  19.100  31.600
   96BOLB   C4B 2292  26.965  19.500  31.270
   96BOLB   NC2 2293  29.145  20.350  30.570
   96BOLB   PO2 2294  28.945  20.220  30.260
   96BOLB   GL3 2295  28.625  19.820  30.220
   96BOLB   GL4 2296  28.535  19.800  29.830
   96BOLB   C1C 2297  28.255  19.660  30.500
   96BOLB   C2C 2298  27.735  19.600  30.540
   96BOLB   C3C 2299  27.485  19.630  30.880
   96BOLB   C4C 2300  27.445  19.300  31.160
   96BOLB   C1D 2301  28.125  19.840  30.070
   96BOLB   C2D 2302  27.825  19.570  30.000
   96BOLB   C3D 2303  27.485  19.230  29.870
   96BOLB   C4D 2304  27.295  19.100  30.260
   97BOLB   NC1 2305  30.795  12.070  42.490
   97BOLB   PO1 2306  30.785  12.330  42.150
   97BOLB   GL1 2307  30.565  12.300  41.890
   97BOLB   GL2 2308  30.645  12.050  41.740
   97BOLB   C1A 2309  30.155  12.090  41.880
   97BOLB   C2A 2310  29.895  12.100  41.530
   97BOLB   C3A 2311  29.715  12.390  41.250
   97BOLB   C4A 2312  29.375  12.540  41.020
   97BOLB   C1B 2313  30.485  12.050  41.370
   97BOLB   C2B 2314  30.055  11.870  41.090
   97BOLB   C3B 2315  29.995  11.870  40.640
   97BOLB   C4B 2316  29.845  11.570  40.350
   97BOLB   NC2 2317  27.245  12.980  40.240
   97BOLB   PO2 2318  27.425  12.890  40.600
   97BOLB   GL3 2319  27.815  12.830  40.670
   97BOLB   GL4 2320  27.985  13.000  40.550
   97BOLB   C1C 2321  28.065  12.500  40.820
   97BOLB   C2C 2322  28.385  12.340  40.650
   97BOLB   C3C 2323  28.765  12.410  40.620
   97BOLB   C4C 2324  29.025  12.550  40.920
   97BOLB   C1D 2325  28.155  13.020  40.920
   97BOLB   C2D 2326  28.465  12.850  41.130
   97BOLB   C3D 2327  28.915  12.720  41.340
   97BOLB   C4D 2328  29.375  12.780  41.480
   98BOLB   NC1 2329  20.170   9.550  28.620
   98BOLB   PO1 2330  20.100   9.560  28.230
   98BOLB   GL1 2331  19.870   9.190  28.190
   98BOLB   GL2 2332  19.600   9.380  28.250
   98BOLB   C1A 2333  19.690   8.760  28.060
   98BOLB   C2A 2334  19.850   8.350  28.100
   98BOLB   C3A 2335  19.870   7.950  27.850
   98BOLB   C4A 2336  19.690   7.580  27.970
   98BOLB   C1B 2337  19.170   9.130  28.370
   98BOLB   C2B 2338  18.980   8.840  28.620
   98BOLB   C3B 2339  18.660   8.610  28.750
   98BOLB   C4B 2340  18.330   8.830  28.910
   98BOLB   NC2 2341  19.910   5.520  26.790
   98BOLB   PO2 2342  19.670   5.340  27.140
   98BOLB   GL3 2343  19.750   5.850  27.170
   98BOLB   GL4 2344  19.670   6.030  27.000
   98BOLB   C1C 2345  19.800   6.330  27.360
   98BOLB   C2C 2346  19.840   6.710  27.660
   98BOLB   C3C 2347  19.730   6.820  28.000
   98BOLB   C4C 2348  19.790   7.170  28.210
   98BOLB   C1D 2349  19.670   6.450  26.790
   98BOLB   C2D 2350  19.810   6.850  26.710
   98BOLB   C3D 2351  20.040   7.140  26.880
   98BOLB   C4D 2352  20.070   7.480  26.960
   99BOLB   NC1 2353  28.935  22.930  39.260
   99BOLB   PO1 2354  29.245  22.610  39.340
   99BOLB   GL1 2355  28.875  22.410  39.330
   99BOLB   GL2 2356  28.635  22.310  39.670
   99BOLB   C1A 2357  28.555  22.190  39.180
   99BOLB   C2A 2358  28.325  21.780  39.050
   99BOLB   C3A 2359  28.135  21.400  39.060
   99BOLB   C4A 2360  27.745  21.180  39.100
   99BOLB   C1B 2361  28.515  21.910  39.570
   99BOLB   C2B 2362  28.125  21.620  39.580
   99BOLB   C3B 2363  27.865  21.420  39.490
   99BOLB   C4B 2364  27.355  21.310  39.510
   99BOLB   NC2 2365  29.555  21.790  40.690
   99BOLB   PO2 2366  29.315  21.340  40.450
   99BOLB   GL3 2367  29.005  21.100  40.470
   99BOLB   GL4 2368  28.845  21.160  40.710
   99BOLB   C1C 2369  28.815  21.040  40.130
   99BOLB   C2C 2370  28.525  20.840  39.830
   99BOLB   C3C 2371  28.055  20.690  39.620
   99BOLB   C4C 2372  27.665  20.900  39.430
   99BOLB   C1D 2373  28.495  20.970  40.540
   99BOLB   C2D 2374  28.275  20.850  40.300
   99BOLB   C3D 2375  27.925  20.670  40.140
   99BOLB   C4D 2376  27.595  20.410  40.280
  100BOLB   NC1 2377  27.605  16.890  29.400
  100BOLB   PO1 2378  27.255  16.970  28.960
  100BOLB   GL1 2379  27.745  17.270  28.930
  100BOLB   GL2 2380  27.765  17.510  29.180
  100BOLB   C1A 2381  28.105  17.540  28.710
  100BOLB   C2A 2382  28.215  17.870  28.760
  100BOLB   C3A 2383  28.345  18.190  28.720
  100BOLB   C4A 2384  28.545  18.410  29.090
  100BOLB   C1B 2385  28.155  17.720  29.320
  100BOLB   C2B 2386  28.575  17.870  29.150
  100BOLB   C3B 2387  29.015  18.060  29.100
  100BOLB   C4B 2388  29.125  18.460  29.150
  100BOLB   NC2 2389  29.235  20.810  28.190
  100BOLB   PO2 2390  29.445  20.540  28.420
  100BOLB   GL3 2391  29.215  20.210  28.390
  100BOLB   GL4 2392  28.895  20.430  28.400
  100BOLB   C1C 2393  29.195  19.810  28.700
  100BOLB   C2C 2394  28.985  19.600  29.010
  100BOLB   C3C 2395  28.745  19.270  29.000
  100BOLB   C4C 2396  28.685  18.840  29.180
  100BOLB   C1D 2397  28.845  19.980  28.160
  100BOLB   C2D 2398  28.775  19.590  28.350
  100BOLB   C3D 2399  28.535  19.140  28.560
  100BOLB   C4D 2400  28.375  19.090  28.830
  101BOLB   NC1 2401  14.100  20.480  34.900
  101BOLB   PO1 2402  13.780  20.550  35.100
  101BOLB   GL1 2403  13.300  20.570  35.280
  101BOLB   GL2 2404  13.110  20.760  35.180
  101BOLB   C1A 2405  13.110  20.360  35.580
  101BOLB   C2A 2406  12.680  20.220  35.700
  101BOLB   C3A 2407  12.270  20.320  35.630
  101BOLB   C4A 2408  11.810  20.490  35.770
  101BOLB   C1B 2409  12.660  20.650  35.230
  101BOLB   C2B 2410  12.270  20.670  35.320
  101BOLB   C3B 2411  11.720  20.720  35.290
  101BOLB   C4B 2412  11.410  20.400  35.450
  101BOLB   NC2 2413   9.410  20.350  35.890
  101BOLB   PO2 2414   9.470  20.070  36.200
  101BOLB   GL3 2415   9.910  19.970  36.220
  101BOLB   GL4 2416  10.130  19.920  35.950
  101BOLB   C1C 2417  10.320  20.350  36.250
  101BOLB   C2C 2418  10.720  20.360  36.260
  101BOLB   C3C 2419  11.070  20.360  36.070
  101BOLB   C4C 2420  11.460  20.450  36.040
  101BOLB   C1D 2421  10.540  19.980  35.930
  101BOLB   C2D 2422  10.920  19.830  36.040
  101BOLB   C3D 2423  11.130  19.530  35.940
  101BOLB   C4D 2424  11.570  19.480  36.150
  102BOLB   NC1 2425  30.165   5.180  36.560
  102BOLB   PO1 2426  30.345   5.470  36.260
  102BOLB   GL1 2427  29.825   5.470  36.340
  102BOLB   GL2 2428  29.695   5.800  36.570
  102BOLB   C1A 2429  29.415   5.550  36.130
  102BOLB   C2A 2430  29.095   5.330  35.950
  102BOLB   C3A 2431  28.805   5.040  35.810
  102BOLB   C4A 2432  28.345   5.090  35.590
  102BOLB   C1B 2433  29.525   6.170  36.440
  102BOLB   C2B 2434  29.365   6.560  36.300
  102BOLB   C3B 2435  29.135   6.850  36.170
  102BOLB   C4B 2436  29.135   7.320  36.270
  102BOLB   NC2 2437  29.315   4.320  34.630
  102BOLB   PO2 2438  28.915   4.200  34.620
  102BOLB   GL3 2439  28.625   4.510  34.750
  102BOLB   GL4 2440  28.785   4.710  34.850
  102BOLB   C1C 2441  28.375   4.840  34.620
  102BOLB   C2C 2442  28.175   5.260  34.770
  102BOLB   C3C 2443  28.055   5.520  35.030
  102BOLB   C4C 2444  28.215   5.440  35.460
  102BOLB   C1D 2445  28.815   5.090  34.750
  102BOLB   C2D 2446  28.655   5.440  34.600
  102BOLB   C3D 2447  28.705   5.740  34.380
  102BOLB   C4D 2448  28.975   5.950  34.110
  103BOLB   NC1 2449  22.570  22.330  38.650
  103BOLB   PO1 2450  22.450  22.300  39.060
  103BOLB   GL1 2451  22.310  22.630  39.240
  103BOLB   GL2 2452  22.280  22.660  39.590
  103BOLB   C1A 2453  22.640  22.960  39.240
  103BOLB   C2A 2454  22.860  23.280  39.210
  103BOLB   C3A 2455  23.160  23.650  39.370
  103BOLB   C4A 2456  23.350  24.010  39.210
  103BOLB   C1B 2457  22.270  23.110  39.710
  103BOLB   C2B 2458  22.530  23.340  39.660
  103BOLB   C3B 2459  22.630  23.740  39.510
  103BOLB   C4B 2460  22.830  24.060  39.210
  103BOLB   NC2 2461  24.230  26.330  38.690
  103BOLB   PO2 2462  24.500  26.090  39.040
  103BOLB   GL3 2463  24.120  25.890  39.310
  103BOLB   GL4 2464  23.760  25.790  39.560
  103BOLB   C1C 2465  24.100  25.430  39.450
  103BOLB   C2C 2466  24.060  24.950  39.520
  103BOLB   C3C 2467  23.900  24.630  39.320
  103BOLB   C4C 2468  23.500  24.450  39.230
  103BOLB   C1D 2469  23.660  25.460  39.240
  103BOLB   C2D 2470  23.690  25.070  39.030
  103BOLB   C3D 2471  23.770  24.700  38.780
  103BOLB   C4D 2472  23.850  24.350  38.490
  104BOLB   NC1 2473  24.300   7.940  36.120
  104BOLB   PO1 2474  24.330   7.980  35.720
  104BOLB   GL1 2475  24.060   7.540  35.860
  104BOLB   GL2 2476  23.860   7.280  35.860
  104BOLB   C1A 2477  24.260   7.290  36.180
  104BOLB   C2A 2478  24.160   6.980  36.470
  104BOLB   C3A 2479  24.230   6.590  36.760
  104BOLB   C4A 2480  24.370   6.170  36.940
  104BOLB   C1B 2481  23.820   6.830  35.950
  104BOLB   C2B 2482  23.580   6.450  35.890
  104BOLB   C3B 2483  23.530   6.110  36.250
  104BOLB   C4B 2484  23.360   5.740  36.190
  104BOLB   NC2 2485  23.860   4.150  38.400
  104BOLB   PO2 2486  24.310   4.030  38.140
  104BOLB   GL3 2487  24.220   4.490  38.060
  104BOLB   GL4 2488  24.000   4.610  38.370
  104BOLB   C1C 2489  24.310   4.850  37.930
  104BOLB   C2C 2490  24.220   5.240  37.690
  104BOLB   C3C 2491  24.170   5.470  37.260
  104BOLB   C4C 2492  24.400   5.720  36.940
  104BOLB   C1D 2493  23.860   5.080  38.450
  104BOLB   C2D 2494  24.020   5.370  38.520
  104BOLB   C3D 2495  24.030   5.630  38.900
  104BOLB   C4D 2496  23.750   5.590  39.270
  105BOLB   NC1 2497  19.350  10.030  28.040
  105BOLB   PO1 2498  19.720   9.910  28.160
  105BOLB   GL1 2499  19.560   9.660  27.830
  105BOLB   GL2 2500  19.830   9.460  27.790
  105BOLB   C1A 2501  19.470   9.520  27.420
  105BOLB   C2A 2502  19.250   9.170  27.340
  105BOLB   C3A 2503  19.140   8.840  26.930
  105BOLB   C4A 2504  19.310   8.690  26.670
  105BOLB   C1B 2505  19.570   9.060  27.740
  105BOLB   C2B 2506  19.310   8.670  27.500
  105BOLB   C3B 2507  18.970   8.500  27.310
  105BOLB   C4B 2508  18.590   8.380  27.520
  105BOLB   NC2 2509  21.250  10.000  26.760
  105BOLB   PO2 2510  21.010   9.700  26.600
  105BOLB   GL3 2511  20.660   9.630  26.440
  105BOLB   GL4 2512  20.520   9.300  26.570
  105BOLB   C1C 2513  20.310   9.390  26.140
  105BOLB   C2C 2514  20.130   9.070  25.990
  105BOLB   C3C 2515  19.820   8.700  25.940
  105BOLB   C4C 2516  19.480   8.590  26.170
  105BOLB   C1D 2517  20.410   8.890  26.380
  105BOLB   C2D 2518  20.290   8.590  26.200
  105BOLB   C3D 2519  20.280   8.390  25.840
  105BOLB   C4D 2520  20.690   8.280  25.830
  106BOLB   NC1 2521  16.740  12.400  29.580
  106BOLB   PO1 2522  16.590  12.430  30.010
  106BOLB   GL1 2523  16.160  12.330  30.120
  106BOLB   GL2 2524  16.150  12.380  30.450
  106BOLB   C1A 2525  15.860  12.160  29.840
  106BOLB   C2A 2526  15.490  12.070  29.700
  106BOLB   C3A 2527  15.060  12.200  29.500
  106BOLB   C4A 2528  14.620  12.310  29.560
  106BOLB   C1B 2529  16.020  11.990  30.670
  106BOLB   C2B 2530  15.770  11.610  30.560
  106BOLB   C3B 2531  15.550  11.260  30.690
  106BOLB   C4B 2532  15.570  11.020  30.960
  106BOLB   NC2 2533  12.520  10.540  28.590
  106BOLB   PO2 2534  12.880  10.720  28.860
  106BOLB   GL3 2535  13.170  10.900  29.100
  106BOLB   GL4 2536  13.340  10.790  29.170
  106BOLB   C1C 2537  13.280  11.260  29.400
  106BOLB   C2C 2538  13.590  11.580  29.410
  106BOLB   C3C 2539  13.920  11.830  29.360
  106BOLB   C4C 2540  14.210  12.080  29.440
  106BOLB   C1D 2541  13.750  10.770  29.290
  106BOLB   C2D 2542  14.140  10.940  29.400
  106BOLB   C3D 2543  14.480  11.130  29.340
  106BOLB   C4D 2544  14.790  11.280  29.020
  107BOLB   NC1 2545  29.125  10.130  36.570
  107BOLB   PO1 2546  28.955   9.830  36.780
  107BOLB   GL1 2547  29.335   9.600  36.780
  107BOLB   GL2 2548  29.255   9.660  36.420
  107BOLB   C1A 2549  29.795   9.510  36.730
  107BOLB   C2A 2550  30.195   9.640  36.850
  107BOLB   C3A 2551  30.575   9.540  36.680
  107BOLB   C4A 2552  30.865   9.940  36.480
  107BOLB   C1B 2553  29.695   9.800  36.320
  107BOLB   C2B 2554  30.025   9.920  36.120
  107BOLB   C3B 2555  30.195   9.520  36.360
  107BOLB   C4B 2556  30.215   9.150  36.510
  107BOLB   NC2 2557  32.975   9.150  37.590
  107BOLB   PO2 2558  32.955   9.510  37.860
  107BOLB   GL3 2559  32.645   9.810  37.620
  107BOLB   GL4 2560  32.635   9.520  37.380
  107BOLB   C1C 2561  32.255   9.970  37.390
  107BOLB   C2C 2562  31.955  10.150  37.090
  107BOLB   C3C 2563  31.735  10.190  36.750
  107BOLB   C4C 2564  31.365  10.000  36.490
  107BOLB   C1D 2565  32.385   9.570  37.110
  107BOLB   C2D 2566  32.285   9.880  36.820
  107BOLB   C3D 2567  31.975   9.810  36.480
  107BOLB   C4D 2568  31.685   9.730  36.230
  108BOLB   NC1 2569  22.010   9.520  37.210
  108BOLB   PO1 2570  21.700   9.330  37.460
  108BOLB   GL1 2571  21.350   9.130  37.290
  108BOLB   GL2 2572  21.200   9.090  37.490
  108BOLB   C1A 2573  21.040   8.690  37.180
  108BOLB   C2A 2574  20.610   8.370  37.140
  108BOLB   C3A 2575  20.290   8.140  37.340
  108BOLB   C4A 2576  20.250   7.840  37.470
  108BOLB   C1B 2577  21.110   8.720  37.670
  108BOLB   C2B 2578  20.860   8.400  37.600
  108BOLB   C3B 2579  20.640   8.080  37.720
  108BOLB   C4B 2580  20.720   7.630  37.740
  108BOLB   NC2 2581  19.970   6.110  39.350
  108BOLB   PO2 2582  20.130   5.960  38.850
  108BOLB   GL3 2583  20.410   6.160  38.630
  108BOLB   GL4 2584  20.710   6.150  38.350
  108BOLB   C1C 2585  20.210   6.360  38.270
  108BOLB   C2C 2586  20.200   6.670  37.900
  108BOLB   C3C 2587  20.010   7.090  37.750
  108BOLB   C4C 2588  19.950   7.420  37.400
  108BOLB   C1D 2589  20.790   6.540  38.610
  108BOLB   C2D 2590  20.820   6.990  38.680
  108BOLB   C3D 2591  21.020   7.320  39.000
  108BOLB   C4D 2592  21.190   7.400  39.430
  109BOLB   NC1 2593  14.160  20.910  35.410
  109BOLB   PO1 2594  14.200  20.820  35.840
  109BOLB   GL1 2595  13.840  20.740  36.140
  109BOLB   GL2 2596  13.920  20.750  36.460
  109BOLB   C1A 2597  13.400  20.740  36.310
  109BOLB   C2A 2598  12.910  20.910  36.270
  109BOLB   C3A 2599  12.700  20.910  36.660
  109BOLB   C4A 2600  12.480  20.890  37.020
  109BOLB   C1B 2601  13.620  20.980  36.680
  109BOLB   C2B 2602  13.170  20.960  36.700
  109BOLB   C3B 2603  13.000  21.050  37.050
  109BOLB   C4B 2604  13.030  20.900  37.450
  109BOLB   NC2 2605  10.220  21.310  38.530
  109BOLB   PO2 2606  10.510  21.310  38.740
  109BOLB   GL3 2607  10.990  21.120  38.510
  109BOLB   GL4 2608  11.150  20.960  38.740
  109BOLB   C1C 2609  11.350  21.100  38.210
  109BOLB   C2C 2610  11.760  20.910  38.150
  109BOLB   C3C 2611  12.260  20.700  37.950
  109BOLB   C4C 2612  12.430  20.830  37.560
  109BOLB   C1D 2613  11.610  20.940  38.660
  109BOLB   C2D 2614  11.900  20.700  38.910
  109BOLB   C3D 2615  12.230  20.430  38.920
  109BOLB   C4D 2616  12.580  20.280  39.000
  110BOLB   NC1 2617  29.875  11.370  35.310
  110BOLB   PO1 2618  29.715  11.090  35.490
  110BOLB   GL1 2619  30.135  10.910  35.340
  110BOLB   GL2 2620  30.075  10.670  35.210
  110BOLB   C1A 2621  30.535  11.000  35.360
  110BOLB   C2A 2622  30.865  11.050  35.120
  110BOLB   C3A 2623  31.205  10.870  35.220
  110BOLB   C4A 2624  31.615  10.930  35.160
  110BOLB   C1B 2625  30.185  10.300  35.200
  110BOLB   C2B 2626  30.525  10.100  35.170
  110BOLB   C3B 2627  30.955   9.970  34.960
  110BOLB   C4B 2628  31.275   9.760  35.090
  110BOLB   NC2 2629  33.815  12.390  35.160
  110BOLB   PO2 2630  33.785  12.210  34.760
  110BOLB   GL3 2631  33.325  12.080  34.700
  110BOLB   GL4 2632  33.165  12.030  34.370
  110BOLB   C1C 2633  33.065  11.790  34.960
  110BOLB   C2C 2634  32.635  11.600  35.080
  110BOLB   C3C 2635  32.255  11.520  35.120
  110BOLB   C4C 2636  31.945  11.160  35.150
  110BOLB   C1D 2637  32.955  12.380  34.430
  110BOLB   C2D 2638  32.615  12.520  34.620
  110BOLB   C3D 2639  32.235  12.680  34.660
  110BOLB   C4D 2640  31.785  12.710  34.860
  111BOLB   NC1 2641  19.080  24.350  19.510
  111BOLB   PO1 2642  18.790  24.100  19.280
  111BOLB   GL1 2643  18.460  24.180  19.590
  111BOLB   GL2 2644  18.370  23.840  19.750
  111BOLB   C1A 2645  18.240  24.210  20.030
  111BOLB   C2A 2646  18.300  24.120  20.430
  111BOLB   C3A 2647  18.110  24.090  20.820
  111BOLB   C4A 2648  18.210  24.080  21.230
  111BOLB   C1B 2649  18.760  23.680  19.770
  111BOLB   C2B 2650  19.140  23.490  19.870
  111BOLB   C3B 2651  19.160  23.280  20.240
  111BOLB   C4B 2652  18.840  23.210  20.530
  111BOLB   NC2 2653  17.170   0.030  21.690
  111BOLB   PO2 2654  17.650  26.230  21.570
  111BOLB   GL3 2655  17.600  25.800  21.750
  111BOLB   GL4 2656  17.610  25.710  22.170
  111BOLB   C1C 2657  17.640  25.400  21.580
  111BOLB   C2C 2658  17.740  24.860  21.640
  111BOLB   C3C 2659  17.750  24.430  21.810
  111BOLB   C4C 2660  18.160  24.050  21.640
  111BOLB   C1D 2661  17.550  25.260  22.050
  111BOLB   C2D 2662  17.740  24.930  22.200
  111BOLB   C3D 2663  17.870  24.610  22.430
  111BOLB   C4D 2664  17.790  24.270  22.680
  112BOLB   NC1 2665  20.710   8.930  30.890
  112BOLB   PO1 2666  20.710   9.070  30.520
  112BOLB   GL1 2667  20.320   8.940  30.410
  112BOLB   GL2 2668  20.090   8.910  30.140
  112BOLB   C1A 2669  20.250   8.510  30.600
  112BOLB   C2A 2670  19.960   8.070  30.580
  112BOLB   C3A 2671  19.910   7.600  30.520
  112BOLB   C4A 2672  19.750   7.210  30.460
  112BOLB   C1B 2673  19.860   8.560  30.050
  112BOLB   C2B 2674  19.630   8.190  30.150
  112BOLB   C3B 2675  19.500   7.780  30.280
  112BOLB   C4B 2676  19.280   7.380  30.300
  112BOLB   NC2 2677  18.360   5.460  30.840
  112BOLB   PO2 2678  17.960   5.660  30.880
  112BOLB   GL3 2679  18.290   5.930  30.650
  112BOLB   GL4 2680  18.560   5.760  30.430
  112BOLB   C1C 2681  18.640   6.220  30.750
  112BOLB   C2C 2682  18.800   6.620  30.540
  112BOLB   C3C 2683  19.140   6.870  30.640
  112BOLB   C4C 2684  19.460   6.970  30.530
  112BOLB   C1D 2685  18.530   6.200  30.250
  112BOLB   C2D 2686  18.340   6.480  30.180
  112BOLB   C3D 2687  18.340   6.870  30.290
  112BOLB   C4D 2688  18.750   7.100  30.310
  113BOLB   NC1 2689  28.145  11.270  38.970
  113BOLB   PO1 2690  27.845  11.320  39.270
  113BOLB   GL1 2691  28.125  11.240  39.590
  113BOLB   GL2 2692  28.135  10.970  39.730
  113BOLB   C1A 2693  28.575  11.210  39.630
  113BOLB   C2A 2694  29.055  11.150  39.680
  113BOLB   C3A 2695  29.495  11.250  39.700
  113BOLB   C4A 2696  29.885  11.490  39.870
  113BOLB   C1B 2697  28.355  10.940  40.030
  113BOLB   C2B 2698  28.715  11.050  40.100
  113BOLB   C3B 2699  29.045  11.250  40.270
  113BOLB   C4B 2700  29.435  11.470  40.170
  113BOLB   NC2 2701  31.335   9.730  40.820
  113BOLB   PO2 2702  31.485  10.150  41.110
  113BOLB   GL3 2703  31.315  10.300  40.720
  113BOLB   GL4 2704  31.505  10.240  40.390
  113BOLB   C1C 2705  31.015  10.560  40.670
  113BOLB   C2C 2706  30.715  10.900  40.590
  113BOLB   C3C 2707  30.615  11.290  40.270
  113BOLB   C4C 2708  30.305  11.410  40.060
  113BOLB   C1D 2709  31.195  10.300  39.970
  113BOLB   C2D 2710  31.265  10.410  39.510
  113BOLB   C3D 2711  31.005  10.650  39.190
  113BOLB   C4D 2712  30.715  10.760  38.990
  114BOLB   NC1 2713  30.185  19.700  30.350
  114BOLB   PO1 2714  29.825  19.800  30.630
  114BOLB   GL1 2715  29.435  19.550  30.690
  114BOLB   GL2 2716  29.195  19.640  30.570
  114BOLB   C1A 2717  29.295  19.100  30.690
  114BOLB   C2A 2718  29.105  18.750  31.010
  114BOLB   C3A 2719  28.855  18.760  31.390
  114BOLB   C4A 2720  28.955  18.660  31.790
  114BOLB   C1B 2721  28.735  19.550  30.600
  114BOLB   C2B 2722  28.435  19.280  30.880
  114BOLB   C3B 2723  28.385  19.070  31.290
  114BOLB   C4B 2724  28.545  19.270  31.610
  114BOLB   NC2 2725  30.085  20.180  33.160
  114BOLB   PO2 2726  30.315  19.960  32.830
  114BOLB   GL3 2727  30.085  19.770  32.700
  114BOLB   GL4 2728  30.085  19.700  32.320
  114BOLB   C1C 2729  29.995  19.340  32.720
  114BOLB   C2C 2730  29.635  19.300  32.410
  114BOLB   C3C 2731  29.525  19.100  31.960
  114BOLB   C4C 2732  29.305  18.810  31.850
  114BOLB   C1D 2733  29.685  19.630  32.050
  114BOLB   C2D 2734  29.455  19.430  31.640
  114BOLB   C3D 2735  28.995  19.340  31.550
  114BOLB   C4D 2736  28.915  19.210  31.070
  115BOLB   NC1 2737  15.450  16.390  25.030
  115BOLB   PO1 2738  15.500  16.710  25.440
  115BOLB   GL1 2739  15.070  16.490  25.370
  115BOLB   GL2 2740  14.970  16.830  25.310
  115BOLB   C1A 2741  14.720  16.260  25.060
  115BOLB   C2A 2742  14.390  16.120  24.770
  115BOLB   C3A 2743  13.940  15.870  24.860
  115BOLB   C4A 2744  13.560  15.660  24.930
  115BOLB   C1B 2745  14.490  16.790  25.330
  115BOLB   C2B 2746  14.220  16.610  25.040
  115BOLB   C3B 2747  13.930  16.380  24.860
  115BOLB   C4B 2748  13.460  16.250  24.570
  115BOLB   NC2 2749  12.270  14.750  23.200
  115BOLB   PO2 2750  12.100  14.860  23.630
  115BOLB   GL3 2751  12.480  14.910  23.570
  115BOLB   GL4 2752  12.730  14.670  23.340
  115BOLB   C1C 2753  12.740  15.200  23.670
  115BOLB   C2C 2754  13.000  15.310  24.050
  115BOLB   C3C 2755  12.950  15.280  24.530
  115BOLB   C4C 2756  13.300  15.370  24.740
  115BOLB   C1D 2757  13.070  14.990  23.400
  115BOLB   C2D 2758  13.350  15.070  23.750
  115BOLB   C3D 2759  13.650  15.350  23.990
  115BOLB   C4D 2760  13.790  15.660  24.340
  116BOLB   NC1 2761  25.850   9.590  37.630
  116BOLB   PO1 2762  25.860   9.440  38.060
  116BOLB   GL1 2763  25.920   9.260  38.470
  116BOLB   GL2 2764  25.640   9.240  38.830
  116BOLB   C1A 2765  26.160   8.820  38.620
  116BOLB   C2A 2766  26.320   8.540  38.980
  116BOLB   C3A 2767  26.655   8.330  39.120
  116BOLB   C4A 2768  26.935   7.960  39.380
  116BOLB   C1B 2769  25.820   8.860  38.980
  116BOLB   C2B 2770  25.860   8.420  39.050
  116BOLB   C3B 2771  25.750   7.960  38.950
  116BOLB   C4B 2772  25.960   7.570  39.100
  116BOLB   NC2 2773  27.825   5.870  40.950
  116BOLB   PO2 2774  27.635   6.240  41.070
  116BOLB   GL3 2775  27.845   6.440  40.740
  116BOLB   GL4 2776  27.725   6.210  40.540
  116BOLB   C1C 2777  27.895   6.760  40.310
  116BOLB   C2C 2778  27.715   6.910  39.960
  116BOLB   C3C 2779  27.595   7.370  39.720
  116BOLB   C4C 2780  27.325   7.650  39.470
  116BOLB   C1D 2781  27.495   6.380  40.270
  116BOLB   C2D 2782  27.185   6.610  40.070
  116BOLB   C3D 2783  27.065   6.880  39.760
  116BOLB   C4D 2784  26.815   6.850  39.350
  117BOLB   NC1 2785  14.640  23.990  20.520
  117BOLB   PO1 2786  14.940  24.310  20.410
  117BOLB   GL1 2787  15.260  24.150  20.680
  117BOLB   GL2 2788  15.380  24.250  21.000
  117BOLB   C1A 2789  15.340  23.730  20.920
  117BOLB   C2A 2790  15.530  23.650  21.260
  117BOLB   C3A 2791  15.620  23.810  21.700
  117BOLB   C4A 2792  15.530  23.950  22.120
  117BOLB   C1B 2793  15.770  24.060  21.150
  117BOLB   C2B 2794  16.040  23.790  21.340
  117BOLB   C3B 2795  16.340  23.500  21.450
  117BOLB   C4B 2796  16.690  23.220  21.560
  117BOLB   NC2 2797  15.840  25.890  22.500
  117BOLB   PO2 2798  15.400  26.120  22.380
  117BOLB   GL3 2799  15.250  25.790  22.550
  117BOLB   GL4 2800  15.120  25.940  22.830
  117BOLB   C1C 2801  15.180  25.350  22.420
  117BOLB   C2C 2802  15.350  24.900  22.600
  117BOLB   C3C 2803  15.310  24.400  22.730
  117BOLB   C4C 2804  15.570  24.110  22.500
  117BOLB   C1D 2805  15.420  25.680  23.060
  117BOLB   C2D 2806  15.660  25.370  22.860
  117BOLB   C3D 2807  15.750  25.150  22.470
  117BOLB   C4D 2808  15.840  24.930  22.130
  118BOLB   NC1 2809  13.800  22.350  33.830
  118BOLB   PO1 2810  13.910  22.110  34.140
  118BOLB   GL1 2811  13.570  22.280  34.250
  118BOLB   GL2 2812  13.560  22.590  34.180
  118BOLB   C1A 2813  13.160  22.210  34.230
  118BOLB   C2A 2814  12.820  22.200  34.310
  118BOLB   C3A 2815  12.430  22.280  34.150
  118BOLB   C4A 2816  12.160  22.440  33.930
  118BOLB   C1B 2817  13.330  22.680  34.560
  118BOLB   C2B 2818  12.960  22.790  34.660
  118BOLB   C3B 2819  12.590  22.690  34.980
  118BOLB   C4B 2820  12.200  22.880  35.040
  118BOLB   NC2 2821   9.810  23.780  33.630
  118BOLB   PO2 2822   9.940  23.730  34.170
  118BOLB   GL3 2823  10.350  23.540  34.120
  118BOLB   GL4 2824  10.380  23.530  34.450
  118BOLB   C1C 2825  10.600  23.220  33.970
  118BOLB   C2C 2826  11.060  23.160  33.930
  118BOLB   C3C 2827  11.390  22.800  33.830
  118BOLB   C4C 2828  11.730  22.560  33.740
  118BOLB   C1D 2829  10.760  23.380  34.400
  118BOLB   C2D 2830  11.070  23.140  34.450
  118BOLB   C3D 2831  11.460  22.890  34.460
  118BOLB   C4D 2832  11.730  22.710  34.730
  119BOLB   NC1 2833  18.430  13.670  17.920
  119BOLB   PO1 2834  18.340  13.650  18.320
  119BOLB   GL1 2835  18.680  13.910  18.340
  119BOLB   GL2 2836  18.600  14.040  18.690
  119BOLB   C1A 2837  18.950  14.270  18.400
  119BOLB   C2A 2838  19.250  14.440  18.690
  119BOLB   C3A 2839  19.490  14.450  18.990
  119BOLB   C4A 2840  19.860  14.420  19.140
  119BOLB   C1B 2841  18.670  13.940  19.190
  119BOLB   C2B 2842  18.590  13.790  19.650
  119BOLB   C3B 2843  18.660  13.680  20.140
  119BOLB   C4B 2844  18.720  13.740  20.670
  119BOLB   NC2 2845  21.280  13.570  16.680
  119BOLB   PO2 2846  21.270  13.880  17.120
  119BOLB   GL3 2847  21.160  14.020  17.500
  119BOLB   GL4 2848  21.400  14.160  17.620
  119BOLB   C1C 2849  21.000  14.220  17.890
  119BOLB   C2C 2850  20.710  14.180  18.190
  119BOLB   C3C 2851  20.360  14.410  18.580
  119BOLB   C4C 2852  20.150  14.600  18.900
  119BOLB   C1D 2853  21.440  13.840  18.060
  119BOLB   C2D 2854  21.480  13.540  18.430
  119BOLB   C3D 2855  21.460  13.630  18.860
  119BOLB   C4D 2856  21.850  13.630  19.020
  120BOLB   NC1 2857  13.220  18.900  28.380
  120BOLB   PO1 2858  13.270  19.120  27.970
  120BOLB   GL1 2859  13.050  18.910  27.730
  120BOLB   GL2 2860  13.040  19.220  27.440
  120BOLB   C1A 2861  12.680  18.820  27.800
  120BOLB   C2A 2862  12.280  18.920  27.980
  120BOLB   C3A 2863  11.890  19.000  27.900
  120BOLB   C4A 2864  11.570  19.030  28.090
  120BOLB   C1B 2865  12.810  18.940  27.300
  120BOLB   C2B 2866  12.640  18.480  27.300
  120BOLB   C3B 2867  12.800  18.020  27.330
  120BOLB   C4B 2868  12.560  17.550  27.130
  120BOLB   NC2 2869   9.340  18.880  27.680
  120BOLB   PO2 2870   9.610  19.340  27.600
  120BOLB   GL3 2871   9.910  19.100  27.890
  120BOLB   GL4 2872  10.100  18.930  27.610
  120BOLB   C1C 2873  10.340  19.060  28.060
  120BOLB   C2C 2874  10.670  18.830  27.960
  120BOLB   C3C 2875  11.040  18.580  28.110
  120BOLB   C4C 2876  11.330  18.700  28.160
  120BOLB   C1D 2877  10.550  19.140  27.440
  120BOLB   C2D 2878  11.040  19.160  27.550
  120BOLB   C3D 2879  11.300  18.840  27.670
  120BOLB   C4D 2880  11.660  18.600  27.730
  121BOLB   NC1 2881  13.760   9.490  36.590
  121BOLB   PO1 2882  13.670   9.880  36.860
  121BOLB   GL1 2883  14.100   9.900  36.650
  121BOLB   GL2 2884  14.380   9.670  36.460
  121BOLB   C1A 2885  14.220  10.050  36.230
  121BOLB   C2A 2886  14.230  10.500  36.070
  121BOLB   C3A 2887  14.570  10.690  35.800
  121BOLB   C4A 2888  14.810  10.710  35.400
  121BOLB   C1B 2889  14.760   9.540  36.750
  121BOLB   C2B 2890  15.090   9.770  37.000
  121BOLB   C3B 2891  15.450   9.970  37.250
  121BOLB   C4B 2892  15.900  10.160  37.100
  121BOLB   NC2 2893  13.330   9.830  35.890
  121BOLB   PO2 2894  13.060  10.000  35.580
  121BOLB   GL3 2895  13.470  10.170  35.310
  121BOLB   GL4 2896  13.780  10.150  35.170
  121BOLB   C1C 2897  13.410  10.590  35.140
  121BOLB   C2C 2898  13.730  10.810  35.090
  121BOLB   C3C 2899  14.170  10.660  34.940
  121BOLB   C4C 2900  14.520  10.730  35.020
  121BOLB   C1D 2901  14.180  10.190  35.220
  121BOLB   C2D 2902  14.520  10.270  35.310
  121BOLB   C3D 2903  14.990  10.290  35.190
  121BOLB   C4D 2904  15.280   9.980  35.130
  122BOLB   NC1 2905  20.500  22.970  37.440
  122BOLB   PO1 2906  20.350  23.300  37.480
  122BOLB   GL1 2907  20.470  23.760  37.720
  122BOLB   GL2 2908  20.230  24.030  37.590
  122BOLB   C1A 2909  20.610  23.870  38.150
  122BOLB   C2A 2910  20.800  24.230  38.360
  122BOLB   C3A 2911  20.900  24.650  38.460
  122BOLB   C4A 2912  21.220  24.840  38.240
  122BOLB   C1B 2913  20.490  24.310  37.800
  122BOLB   C2B 2914  20.920  24.420  37.900
  122BOLB   C3B 2915  21.250  24.790  37.740
  122BOLB   C4B 2916  21.540  25.140  37.740
  122BOLB   NC2 2917  21.480   0.990  38.940
  122BOLB   PO2 2918  21.750   0.830  38.600
  122BOLB   GL3 2919  21.890   0.430  38.480
  122BOLB   GL4 2920  22.010   0.270  38.110
  122BOLB   C1C 2921  21.710   0.020  38.610
  122BOLB   C2C 2922  21.680  26.010  38.460
  122BOLB   C3C 2923  21.540  25.600  38.260
  122BOLB   C4C 2924  21.410  25.240  38.220
  122BOLB   C1D 2925  21.820  26.370  37.920
  122BOLB   C2D 2926  21.620  25.990  37.950
  122BOLB   C3D 2927  21.240  25.590  37.900
  122BOLB   C4D 2928  21.080  25.280  37.610
  123BOLB   NC1 2929  29.475  13.500  30.250
  123BOLB   PO1 2930  29.585  13.190  30.070
  123BOLB   GL1 2931  30.085  13.410  29.910
  123BOLB   GL2 2932  30.165  13.520  30.170
  123BOLB   C1A 2933  30.435  13.400  29.780
  123BOLB   C2A 2934  30.735  13.630  29.520
  123BOLB   C3A 2935  31.005  14.010  29.420
  123BOLB   C4A 2936  31.015  14.370  29.370
  123BOLB   C1B 2937  30.575  13.710  30.440
  123BOLB   C2B 2938  30.675  13.750  30.830
  123BOLB   C3B 2939  30.905  13.790  31.140
  123BOLB   C4B 2940  31.405  13.870  31.100
  123BOLB   NC2 2941  32.995  16.200  29.620
  123BOLB   PO2 2942  33.125  15.790  29.770
  123BOLB   GL3 2943  32.765  15.560  29.850
  123BOLB   GL4 2944  32.545  15.610  30.080
  123BOLB   C1C 2945  32.355  15.340  29.700
  123BOLB   C2C 2946  31.915  15.120  29.830
  123BOLB   C3C 2947  31.585  14.910  29.590
  123BOLB   C4C 2948  31.375  14.590  29.360
  123BOLB   C1D 2949  32.145  15.390  30.210
  123BOLB   C2D 2950  31.995  15.000  30.280
  123BOLB   C3D 2951  32.125  14.610  30.030
  123BOLB   C4D 2952  32.385  14.370  29.850
  124BOLB   NC1 2953  14.300  21.870  25.670
  124BOLB   PO1 2954  14.750  22.130  25.640
  124BOLB   GL1 2955  14.290  22.340  25.510
  124BOLB   GL2 2956  14.320  22.540  25.120
  124BOLB   C1A 2957  13.820  22.430  25.580
  124BOLB   C2A 2958  13.330  22.620  25.360
  124BOLB   C3A 2959  12.980  22.430  25.320
  124BOLB   C4A 2960  12.590  22.590  25.120
  124BOLB   C1B 2961  13.970  22.790  25.260
  124BOLB   C2B 2962  13.550  22.890  25.020
  124BOLB   C3B 2963  13.140  22.780  24.880
  124BOLB   C4B 2964  12.730  22.930  24.700
  124BOLB   NC2 2965  10.550  22.580  24.120
  124BOLB   PO2 2966  10.850  22.910  23.930
  124BOLB   GL3 2967  11.230  22.680  24.010
  124BOLB   GL4 2968  11.050  22.390  24.280
  124BOLB   C1C 2969  11.590  22.870  24.130
  124BOLB   C2C 2970  11.960  22.980  24.410
  124BOLB   C3C 2971  12.140  23.140  24.700
  124BOLB   C4C 2972  12.280  22.930  25.100
  124BOLB   C1D 2973  11.370  22.210  24.540
  124BOLB   C2D 2974  11.780  22.030  24.570
  124BOLB   C3D 2975  12.150  22.110  24.660
  124BOLB   C4D 2976  12.500  22.130  24.430
  125BOLB   NC1 2977  21.260  13.550  42.000
  125BOLB   PO1 2978  21.720  13.580  42.110
  125BOLB   GL1 2979  21.770  13.400  42.550
  125BOLB   GL2 2980  22.150  13.350  42.660
  125BOLB   C1A 2981  21.650  13.130  42.890
  125BOLB   C2A 2982  21.660  13.140  43.310
  125BOLB   C3A 2983  21.230  12.960  43.550
  125BOLB   C4A 2984  20.900  12.830  43.790
  125BOLB   C1B 2985  22.130  13.100  42.980
  125BOLB   C2B 2986  22.150  12.810  43.350
  125BOLB   C3B 2987  21.790  12.910  43.710
  125BOLB   C4B 2988  21.600  13.230  43.890
  125BOLB   NC2 2989  19.850  10.970  45.410
  125BOLB   PO2 2990  20.230  11.160  45.450
  125BOLB   GL3 2991  20.040  11.350  45.090
  125BOLB   GL4 2992  20.020  11.310  44.890
  125BOLB   C1C 2993  20.040  11.850  44.780
  125BOLB   C2C 2994  20.070  12.170  44.540
  125BOLB   C3C 2995  20.190  12.690  44.390
  125BOLB   C4C 2996  20.370  12.850  44.010
  125BOLB   C1D 2997  20.050  11.240  44.450
  125BOLB   C2D 2998  20.000  11.280  44.020
  125BOLB   C3D 2999  20.280  11.540  43.800
  125BOLB   C4D 3000  20.600  11.620  43.480
  126BOLB   NC1 3001  16.490  15.420  38.600
  126BOLB   PO1 3002  16.390  15.350  38.940
  126BOLB   GL1 3003  16.080  15.130  39.200
  126BOLB   GL2 3004  15.780  15.320  39.270
  126BOLB   C1A 3005  15.910  14.860  39.520
  126BOLB   C2A 3006  15.760  14.560  39.820
  126BOLB   C3A 3007  15.530  14.200  40.110
  126BOLB   C4A 3008  15.250  14.160  40.450
  126BOLB   C1B 3009  15.390  15.030  39.300
  126BOLB   C2B 3010  15.070  15.190  39.550
  126BOLB   C3B 3011  14.810  15.070  39.950
  126BOLB   C4B 3012  14.520  14.830  40.000
  126BOLB   NC2 3013  14.480  13.810  42.830
  126BOLB   PO2 3014  14.020  13.810  42.590
  126BOLB   GL3 3015  14.290  13.820  42.300
  126BOLB   GL4 3016  14.170  13.950  41.990
  126BOLB   C1C 3017  14.620  13.820  42.000
  126BOLB   C2C 3018  14.880  13.710  41.680
  126BOLB   C3C 3019  14.910  13.760  41.200
  126BOLB   C4C 3020  15.060  13.880  40.880
  126BOLB   C1D 3021  14.400  14.370  41.920
  126BOLB   C2D 3022  14.830  14.590  41.770
  126BOLB   C3D 3023  15.180  14.690  41.480
  126BOLB   C4D 3024  15.560  14.800  41.130
  127BOLB   NC1 3025  26.655  10.640  24.920
  127BOLB   PO1 3026  26.485  10.860  24.660
  127BOLB   GL1 3027  26.935  10.830  24.440
  127BOLB   GL2 3028  27.075  11.170  24.520
  127BOLB   C1A 3029  27.245  10.420  24.500
  127BOLB   C2A 3030  27.315  10.020  24.650
  127BOLB   C3A 3031  27.235   9.600  24.460
  127BOLB   C4A 3032  27.285   9.170  24.340
  127BOLB   C1B 3033  27.445  10.920  24.300
  127BOLB   C2B 3034  27.625  10.730  23.870
  127BOLB   C3B 3035  27.905  10.870  23.640
  127BOLB   C4B 3036  28.275  10.870  23.650
  127BOLB   NC2 3037  25.460  10.130  24.700
  127BOLB   PO2 3038  25.830  10.180  24.580
  127BOLB   GL3 3039  25.930   9.940  24.360
  127BOLB   GL4 3040  26.100  10.020  24.160
  127BOLB   C1C 3041  26.070   9.540  24.070
  127BOLB   C2C 3042  26.320   9.240  23.820
  127BOLB   C3C 3043  26.575   8.890  23.840
  127BOLB   C4C 3044  27.025   8.850  24.110
  127BOLB   C1D 3045  26.515  10.110  24.190
  127BOLB   C2D 3046  27.045   9.970  24.190
  127BOLB   C3D 3047  27.475  10.080  24.080
  127BOLB   C4D 3048  27.725  10.370  24.250
  128BOLB   NC1 3049  26.915   8.860  20.330
  128BOLB   PO1 3050  26.865   9.060  20.690
  128BOLB   GL1 3051  26.615   9.360  20.960
  128BOLB   GL2 3052  26.410   9.450  20.850
  128BOLB   C1A 3053  26.695   9.570  21.370
  128BOLB   C2A 3054  26.555   9.910  21.560
  128BOLB   C3A 3055  26.200   9.970  21.700
  128BOLB   C4A 3056  25.760  10.050  21.650
  128BOLB   C1B 3057  26.240   9.650  21.250
  128BOLB   C2B 3058  25.910   9.520  21.590
  128BOLB   C3B 3059  25.590   9.650  21.970
  128BOLB   C4B 3060  25.580   9.560  22.420
  128BOLB   NC2 3061  24.170  11.450  23.760
  128BOLB   PO2 3062  24.530  11.400  23.350
  128BOLB   GL3 3063  24.790  11.200  23.090
  128BOLB   GL4 3064  24.820  11.320  22.720
  128BOLB   C1C 3065  25.110  10.920  22.870
  128BOLB   C2C 3066  25.280  10.660  22.670
  128BOLB   C3C 3067  25.550  10.430  22.440
  128BOLB   C4C 3068  25.520  10.230  22.030
  128BOLB   C1D 3069  24.880  10.950  22.440
  128BOLB   C2D 3070  24.730  10.730  22.070
  128BOLB   C3D 3071  24.660  10.350  21.990
  128BOLB   C4D 3072  24.980  10.070  21.970
  129BOLB   NC1 3073  17.320  13.190  39.160
  129BOLB   PO1 3074  17.460  12.880  38.990
  129BOLB   GL1 3075  17.240  12.550  39.020
  129BOLB   GL2 3076  17.130  12.250  39.040
  129BOLB   C1A 3077  16.800  12.600  39.210
  129BOLB   C2A 3078  16.510  12.360  39.550
  129BOLB   C3A 3079  16.230  12.050  39.790
  129BOLB   C4A 3080  16.180  11.670  39.910
  129BOLB   C1B 3081  16.970  12.100  39.470
  129BOLB   C2B 3082  16.790  11.960  39.880
  129BOLB   C3B 3083  16.590  11.750  40.230
  129BOLB   C4B 3084  16.290  11.570  40.420
  129BOLB   NC2 3085  16.270  10.410  41.860
  129BOLB   PO2 3086  16.350  10.100  41.600
  129BOLB   GL3 3087  16.490  10.200  41.300
  129BOLB   GL4 3088  16.620  10.530  41.350
  129BOLB   C1C 3089  16.390  10.410  40.910
  129BOLB   C2C 3090  16.650  10.620  40.530
  129BOLB   C3C 3091  16.520  10.880  40.110
  129BOLB   C4C 3092  16.270  11.210  39.950
  129BOLB   C1D 3093  16.350  10.870  41.180
  129BOLB   C2D 3094  15.920  11.030  41.110
  129BOLB   C3D 3095  15.710  11.400  41.180
  129BOLB   C4D 3096  15.390  11.710  41.300
  130BOLB   NC1 3097  21.890  19.010  22.350
  130BOLB   PO1 3098  22.240  19.240  22.530
  130BOLB   GL1 3099  22.260  19.570  22.160
  130BOLB   GL2 3100  22.130  19.750  22.220
  130BOLB   C1A 3101  22.490  19.520  21.790
  130BOLB   C2A 3102  22.660  19.740  21.480
  130BOLB   C3A 3103  22.840  20.170  21.450
  130BOLB   C4A 3104  22.820  20.580  21.510
  130BOLB   C1B 3105  22.340  20.020  22.030
  130BOLB   C2B 3106  22.680  20.370  22.050
  130BOLB   C3B 3107  22.950  20.620  22.320
  130BOLB   C4B 3108  22.860  20.910  22.570
  130BOLB   NC2 3109  23.790  21.770  19.650
  130BOLB   PO2 3110  23.730  22.240  19.790
  130BOLB   GL3 3111  23.350  21.940  20.040
  130BOLB   GL4 3112  23.290  21.610  19.960
  130BOLB   C1C 3113  23.310  21.680  20.440
  130BOLB   C2C 3114  23.100  21.550  20.770
  130BOLB   C3C 3115  23.090  21.280  21.050
  130BOLB   C4C 3116  22.950  20.920  21.370
  130BOLB   C1D 3117  22.890  21.430  20.300
  130BOLB   C2D 3118  22.500  21.290  20.540
  130BOLB   C3D 3119  22.170  21.500  20.560
  130BOLB   C4D 3120  22.120  21.690  20.990
  131BOLB   NC1 3121  21.590   9.310  35.760
  131BOLB   PO1 3122  21.580   8.830  35.630
  131BOLB   GL1 3123  21.260   8.680  35.930
  131BOLB   GL2 3124  21.040   8.460  35.680
  131BOLB   C1A 3125  20.890   8.370  36.170
  131BOLB   C2A 3126  20.610   8.140  36.350
  131BOLB   C3A 3127  20.330   7.720  36.410
  131BOLB   C4A 3128  20.100   7.350  36.550
  131BOLB   C1B 3129  20.800   8.090  35.550
  131BOLB   C2B 3130  20.710   7.760  35.590
  131BOLB   C3B 3131  20.580   7.330  35.390
  131BOLB   C4B 3132  20.370   6.940  35.340
  131BOLB   NC2 3133  18.600   5.700  36.990
  131BOLB   PO2 3134  18.630   5.780  36.500
  131BOLB   GL3 3135  19.050   5.840  36.290
  131BOLB   GL4 3136  18.960   6.110  36.000
  131BOLB   C1C 3137  19.460   5.880  36.470
  131BOLB   C2C 3138  19.790   6.090  36.390
  131BOLB   C3C 3139  19.860   6.580  36.550
  131BOLB   C4C 3140  20.130   6.890  36.530
  131BOLB   C1D 3141  19.470   5.980  35.930
  131BOLB   C2D 3142  19.900   5.970  35.830
  131BOLB   C3D 3143  20.190   6.090  35.500
  131BOLB   C4D 3144  20.560   6.300  35.300
  132BOLB   NC1 3145  30.865   4.970  34.520
  132BOLB   PO1 3146  30.515   5.140  34.390
  132BOLB   GL1 3147  30.215   5.460  34.340
  132BOLB   GL2 3148  29.925   5.290  34.230
  132BOLB   C1A 3149  30.185   5.880  34.380
  132BOLB   C2A 3150  30.135   6.300  34.050
  132BOLB   C3A 3151  29.865   6.340  33.710
  132BOLB   C4A 3152  29.625   6.310  33.320
  132BOLB   C1B 3153  29.755   5.700  34.070
  132BOLB   C2B 3154  29.695   6.030  34.270
  132BOLB   C3B 3155  29.295   6.280  34.290
  132BOLB   C4B 3156  29.315   6.740  34.390
  132BOLB   NC2 3157  30.695   4.790  31.930
  132BOLB   PO2 3158  30.345   4.800  31.850
  132BOLB   GL3 3159  30.115   5.010  32.140
  132BOLB   GL4 3160  30.135   5.390  32.090
  132BOLB   C1C 3161  29.665   5.070  32.180
  132BOLB   C2C 3162  29.405   5.350  32.320
  132BOLB   C3C 3163  29.445   5.710  32.520
  132BOLB   C4C 3164  29.495   6.080  32.870
  132BOLB   C1D 3165  29.925   5.650  32.280
  132BOLB   C2D 3166  29.745   6.120  32.360
  132BOLB   C3D 3167  29.735   6.580  32.420
  132BOLB   C4D 3168  29.435   6.930  32.430
  133BOLB   NC1 3169  26.795  17.980  37.640
  133BOLB   PO1 3170  27.055  18.180  37.420
  133BOLB   GL1 3171  27.345  18.480  37.420
  133BOLB   GL2 3172  27.625  18.340  37.560
  133BOLB   C1A 3173  27.395  18.990  37.350
  133BOLB   C2A 3174  27.585  19.460  37.470
  133BOLB   C3A 3175  27.785  19.790  37.730
  133BOLB   C4A 3176  28.005  20.180  37.840
  133BOLB   C1B 3177  27.785  18.740  37.650
  133BOLB   C2B 3178  28.005  19.170  37.730
  133BOLB   C3B 3179  28.155  19.550  37.960
  133BOLB   C4B 3180  28.475  19.750  37.920
  133BOLB   NC2 3181  29.605  21.970  37.690
  133BOLB   PO2 3182  29.415  21.970  37.250
  133BOLB   GL3 3183  29.255  21.650  37.440
  133BOLB   GL4 3184  29.035  21.690  37.230
  133BOLB   C1C 3185  29.145  21.530  37.870
  133BOLB   C2C 3186  28.875  21.190  37.880
  133BOLB   C3C 3187  28.615  20.800  37.980
  133BOLB   C4C 3188  28.255  20.470  38.040
  133BOLB   C1D 3189  28.775  21.360  37.440
  133BOLB   C2D 3190  28.445  21.030  37.550
  133BOLB   C3D 3191  28.375  20.610  37.620
  133BOLB   C4D 3192  28.525  20.220  37.680
  134BOLB   NC1 3193  23.510  20.310  25.340
  134BOLB   PO1 3194  23.730  20.140  24.990
  134BOLB   GL1 3195  23.940  20.410  24.850
  134BOLB   GL2 3196  23.940  20.720  24.810
  134BOLB   C1A 3197  24.400  20.280  24.680
  134BOLB   C2A 3198  24.660  20.500  24.450
  134BOLB   C3A 3199  25.070  20.480  24.210
  134BOLB   C4A 3200  25.300  20.670  23.860
  134BOLB   C1B 3201  24.330  21.050  24.720
  134BOLB   C2B 3202  24.700  21.330  24.690
  134BOLB   C3B 3203  24.930  21.500  24.430
  134BOLB   C4B 3204  24.960  21.440  23.990
  134BOLB   NC2 3205  27.205  22.140  23.280
  134BOLB   PO2 3206  26.875  22.150  22.960
  134BOLB   GL3 3207  26.835  21.800  23.100
  134BOLB   GL4 3208  26.525  21.690  23.180
  134BOLB   C1C 3209  26.785  21.380  23.450
  134BOLB   C2C 3210  26.410  21.190  23.650
  134BOLB   C3C 3211  26.090  20.920  23.840
  134BOLB   C4C 3212  25.700  20.870  23.940
  134BOLB   C1D 3213  26.160  21.560  23.370
  134BOLB   C2D 3214  25.870  21.380  23.720
  134BOLB   C3D 3215  25.480  21.340  23.840
  134BOLB   C4D 3216  25.460  21.350  24.230
  135BOLB   NC1 3217  25.480  14.830  23.200
  135BOLB   PO1 3218  25.700  15.190  23.410
  135BOLB   GL1 3219  26.110  15.300  23.330
  135BOLB   GL2 3220  26.190  15.530  23.480
  135BOLB   C1A 3221  26.465  15.230  23.030
  135BOLB   C2A 3222  26.785  15.240  22.750
  135BOLB   C3A 3223  27.005  15.190  22.370
  135BOLB   C4A 3224  27.415  15.390  22.340
  135BOLB   C1B 3225  26.545  15.720  23.290
  135BOLB   C2B 3226  27.035  15.760  23.070
  135BOLB   C3B 3227  27.445  15.920  23.070
  135BOLB   C4B 3228  27.915  16.110  23.200
  135BOLB   NC2 3229  29.555  15.880  20.320
  135BOLB   PO2 3230  29.305  15.800  20.740
  135BOLB   GL3 3231  28.875  15.770  20.990
  135BOLB   GL4 3232  29.025  15.780  21.380
  135BOLB   C1C 3233  28.325  15.930  21.020
  135BOLB   C2C 3234  28.105  15.820  21.330
  135BOLB   C3C 3235  27.845  15.670  21.720
  135BOLB   C4C 3236  27.735  15.570  22.090
  135BOLB   C1D 3237  28.965  15.310  21.420
  135BOLB   C2D 3238  29.015  15.200  21.890
  135BOLB   C3D 3239  29.175  14.770  21.960
  135BOLB   C4D 3240  29.215  14.450  22.140
  136BOLB   NC1 3241  16.060   8.140  39.080
  136BOLB   PO1 3242  15.940   8.510  39.340
  136BOLB   GL1 3243  16.310   8.620  39.110
  136BOLB   GL2 3244  16.510   8.460  39.100
  136BOLB   C1A 3245  16.470   8.920  38.820
  136BOLB   C2A 3246  16.550   9.240  38.610
  136BOLB   C3A 3247  17.010   9.480  38.550
  136BOLB   C4A 3248  17.110  10.010  38.470
  136BOLB   C1B 3249  16.850   8.610  39.320
  136BOLB   C2B 3250  17.160   8.740  39.230
  136BOLB   C3B 3251  17.410   8.720  38.900
  136BOLB   C4B 3252  17.770   8.910  38.690
  136BOLB   NC2 3253  18.790  11.910  38.300
  136BOLB   PO2 3254  18.580  11.870  37.850
  136BOLB   GL3 3255  18.510  11.560  38.030
  136BOLB   GL4 3256  18.570  11.430  38.330
  136BOLB   C1C 3257  18.150  11.300  38.050
  136BOLB   C2C 3258  17.890  11.030  38.340
  136BOLB   C3C 3259  17.780  10.650  38.520
  136BOLB   C4C 3260  17.540  10.310  38.410
  136BOLB   C1D 3261  18.540  11.190  38.540
  136BOLB   C2D 3262  18.230  10.950  38.680
  136BOLB   C3D 3263  18.160  10.480  38.850
  136BOLB   C4D 3264  17.910  10.130  38.920
  137BOLB   NC1 3265  18.080  12.020  37.390
  137BOLB   PO1 3266  17.710  11.860  37.330
  137BOLB   GL1 3267  17.730  11.520  37.690
  137BOLB   GL2 3268  17.780  11.590  37.960
  137BOLB   C1A 3269  17.630  11.040  37.910
  137BOLB   C2A 3270  17.430  10.720  38.110
  137BOLB   C3A 3271  17.100  10.360  38.160
  137BOLB   C4A 3272  16.880  10.020  37.960
  137BOLB   C1B 3273  17.590  11.470  38.350
  137BOLB   C2B 3274  17.420  11.100  38.620
  137BOLB   C3B 3275  17.180  10.680  38.580
  137BOLB   C4B 3276  16.800  10.660  38.620
  137BOLB   NC2 3277  15.330   8.150  38.360
  137BOLB   PO2 3278  15.780   8.180  38.150
  137BOLB   GL3 3279  16.060   8.470  38.100
  137BOLB   GL4 3280  16.340   8.280  38.150
  137BOLB   C1C 3281  16.080   8.750  37.720
  137BOLB   C2C 3282  16.210   9.150  37.620
  137BOLB   C3C 3283  16.450   9.470  37.780
  137BOLB   C4C 3284  16.800   9.690  37.770
  137BOLB   C1D 3285  16.440   8.660  38.390
  137BOLB   C2D 3286  16.790   8.870  38.310
  137BOLB   C3D 3287  17.120   8.960  38.120
  137BOLB   C4D 3288  17.500   9.120  37.990
  138BOLB   NC1 3289  29.025  15.940  37.700
  138BOLB   PO1 3290  28.835  15.780  38.120
  138BOLB   GL1 3291  28.945  15.700  38.470
  138BOLB   GL2 3292  28.845  15.960  38.740
  138BOLB   C1A 3293  29.285  15.680  38.800
  138BOLB   C2A 3294  29.635  15.800  39.080
  138BOLB   C3A 3295  29.975  15.610  39.250
  138BOLB   C4A 3296  30.255  15.230  39.380
  138BOLB   C1B 3297  29.165  16.050  39.140
  138BOLB   C2B 3298  29.495  16.300  39.400
  138BOLB   C3B 3299  29.515  16.750  39.600
  138BOLB   C4B 3300  29.565  17.150  39.930
  138BOLB   NC2 3301  32.665  15.160  40.180
  138BOLB   PO2 3302  32.475  14.990  39.780
  138BOLB   GL3 3303  32.065  15.270  39.710
  138BOLB   GL4 3304  32.145  15.370  39.390
  138BOLB   C1C 3305  31.695  15.050  39.560
  138BOLB   C2C 3306  31.345  15.080  39.540
  138BOLB   C3C 3307  30.975  14.960  39.390
  138BOLB   C4C 3308  30.625  15.020  39.330
  138BOLB   C1D 3309  31.765  15.550  39.410
  138BOLB   C2D 3310  31.515  15.620  39.110
  138BOLB   C3D 3311  31.145  15.390  38.910
  138BOLB   C4D 3312  30.875  15.050  38.830
  139BOLB   NC1 3313  22.040   9.880  26.600
  139BOLB   PO1 3314  21.780   9.700  26.350
  139BOLB   GL1 3315  21.690   9.210  26.360
  139BOLB   GL2 3316  21.780   9.100  26.150
  139BOLB   C1A 3317  21.520   8.870  26.540
  139BOLB   C2A 3318  21.280   8.570  26.460
  139BOLB   C3A 3319  21.030   8.160  26.460
  139BOLB   C4A 3320  20.720   7.830  26.600
  139BOLB   C1B 3321  21.640   8.660  26.070
  139BOLB   C2B 3322  21.390   8.420  26.010
  139BOLB   C3B 3323  21.220   8.050  25.970
  139BOLB   C4B 3324  20.830   7.690  26.060
  139BOLB   NC2 3325  19.020   5.760  26.500
  139BOLB   PO2 3326  19.460   5.730  26.600
  139BOLB   GL3 3327  19.680   6.010  26.410
  139BOLB   GL4 3328  19.920   6.130  26.530
  139BOLB   C1C 3329  19.780   6.510  26.280
  139BOLB   C2C 3330  20.080   6.860  26.210
  139BOLB   C3C 3331  20.170   7.160  26.350
  139BOLB   C4C 3332  20.370   7.550  26.490
  139BOLB   C1D 3333  20.200   6.480  26.620
  139BOLB   C2D 3334  20.480   6.820  26.580
  139BOLB   C3D 3335  20.700   7.160  26.480
  139BOLB   C4D 3336  21.040   7.410  26.470
  140BOLB   NC1 3337  20.640  16.060  21.700
  140BOLB   PO1 3338  20.200  16.050  21.670
  140BOLB   GL1 3339  19.930  15.950  21.340
  140BOLB   GL2 3340  20.080  15.890  21.060
  140BOLB   C1A 3341  19.520  16.150  21.050
  140BOLB   C2A 3342  19.200  15.980  20.790
  140BOLB   C3A 3343  19.170  15.920  20.420
  140BOLB   C4A 3344  19.120  15.740  20.010
  140BOLB   C1B 3345  19.930  15.910  20.630
  140BOLB   C2B 3346  19.630  15.820  20.350
  140BOLB   C3B 3347  19.590  15.730  19.880
  140BOLB   C4B 3348  19.610  15.660  19.490
  140BOLB   NC2 3349  19.880  15.850  17.490
  140BOLB   PO2 3350  19.450  15.570  17.690
  140BOLB   GL3 3351  19.300  15.380  18.070
  140BOLB   GL4 3352  19.550  15.370  18.160
  140BOLB   C1C 3353  19.200  15.620  18.490
  140BOLB   C2C 3354  19.200  15.560  18.920
  140BOLB   C3C 3355  19.160  15.620  19.190
  140BOLB   C4C 3356  19.140  15.670  19.660
  140BOLB   C1D 3357  19.640  15.370  18.670
  140BOLB   C2D 3358  19.890  15.580  19.000
  140BOLB   C3D 3359  20.190  15.920  19.230
  140BOLB   C4D 3360  20.270  16.210  19.450
  141BOLB   NC1 3361  18.460  14.040  23.440
  141BOLB   PO1 3362  18.470  14.280  23.100
  141BOLB   GL1 3363  18.220  13.900  22.870
  141BOLB   GL2 3364  18.460  13.740  23.070
  141BOLB   C1A 3365  18.020  13.520  22.840
  141BOLB   C2A 3366  17.740  13.320  22.520
  141BOLB   C3A 3367  17.720  12.840  22.410
  141BOLB   C4A 3368  17.540  12.740  22.000
  141BOLB   C1B 3369  18.760  13.610  22.800
  141BOLB   C2B 3370  18.410  13.390  22.540
  141BOLB   C3B 3371  18.120  13.250  22.260
  141BOLB   C4B 3372  17.800  13.180  22.030
  141BOLB   NC2 3373  16.860  12.870  19.730
  141BOLB   PO2 3374  16.940  12.610  20.070
  141BOLB   GL3 3375  17.090  12.910  20.290
  141BOLB   GL4 3376  17.200  13.110  20.130
  141BOLB   C1C 3377  17.230  13.280  20.650
  141BOLB   C2C 3378  17.330  13.270  21.030
  141BOLB   C3C 3379  17.390  12.950  21.340
  141BOLB   C4C 3380  17.520  12.960  21.700
  141BOLB   C1D 3381  17.580  13.030  20.390
  141BOLB   C2D 3382  17.980  13.070  20.240
  141BOLB   C3D 3383  18.190  13.220  19.890
  141BOLB   C4D 3384  18.120  13.500  19.600
  142BOLB   NC1 3385  16.990  20.230  40.050
  142BOLB   PO1 3386  16.740  19.920  39.990
  142BOLB   GL1 3387  16.580  20.000  40.430
  142BOLB   GL2 3388  16.750  20.160  40.670
  142BOLB   C1A 3389  16.270  19.910  40.730
  142BOLB   C2A 3390  15.900  20.070  40.960
  142BOLB   C3A 3391  15.780  20.370  41.470
  142BOLB   C4A 3392  15.770  20.670  41.780
  142BOLB   C1B 3393  16.460  20.260  41.020
  142BOLB   C2B 3394  16.250  20.540  41.400
  142BOLB   C3B 3395  16.240  20.540  41.860
  142BOLB   C4B 3396  16.330  20.550  42.270
  142BOLB   NC2 3397  13.880  21.940  42.700
  142BOLB   PO2 3398  14.300  22.200  42.750
  142BOLB   GL3 3399  14.630  22.150  42.530
  142BOLB   GL4 3400  14.760  22.380  42.260
  142BOLB   C1C 3401  14.790  21.780  42.140
  142BOLB   C2C 3402  15.170  21.830  41.990
  142BOLB   C3C 3403  15.390  21.400  41.810
  142BOLB   C4C 3404  15.540  21.020  41.720
  142BOLB   C1D 3405  14.890  22.340  41.920
  142BOLB   C2D 3406  15.280  22.260  41.660
  142BOLB   C3D 3407  15.320  22.230  41.240
  142BOLB   C4D 3408  15.260  22.190  40.850
  143BOLB   NC1 3409  28.325  14.940  33.130
  143BOLB   PO1 3410  28.695  15.270  33.160
  143BOLB   GL1 3411  29.045  15.590  33.190
  143BOLB   GL2 3412  29.125  15.850  32.850
  143BOLB   C1A 3413  29.535  15.710  33.090
  143BOLB   C2A 3414  29.925  15.870  33.080
  143BOLB   C3A 3415  30.305  16.090  32.940
  143BOLB   C4A 3416  30.645  16.210  33.080
  143BOLB   C1B 3417  29.515  16.030  32.680
  143BOLB   C2B 3418  29.915  16.280  32.650
  143BOLB   C3B 3419  30.395  16.540  32.730
  143BOLB   C4B 3420  30.555  16.890  32.500
  143BOLB   NC2 3421  32.045  18.950  32.160
  143BOLB   PO2 3422  31.705  18.620  32.260
  143BOLB   GL3 3423  31.625  18.130  32.300
  143BOLB   GL4 3424  31.635  17.990  32.030
  143BOLB   C1C 3425  31.455  17.770  32.470
  143BOLB   C2C 3426  31.135  17.370  32.620
  143BOLB   C3C 3427  30.995  16.970  32.740
  143BOLB   C4C 3428  30.885  16.490  32.930
  143BOLB   C1D 3429  31.495  17.600  31.700
  143BOLB   C2D 3430  31.295  17.330  31.520
  143BOLB   C3D 3431  31.095  17.040  31.850
  143BOLB   C4D 3432  30.985  17.100  32.160
  144BOLB   NC1 3433  21.270  10.340  39.510
  144BOLB   PO1 3434  20.990  10.360  39.100
  144BOLB   GL1 3435  21.230   9.900  39.300
  144BOLB   GL2 3436  21.100   9.830  39.620
  144BOLB   C1A 3437  21.200   9.430  39.190
  144BOLB   C2A 3438  21.090   9.110  39.430
  144BOLB   C3A 3439  20.710   9.180  39.700
  144BOLB   C4A 3440  20.220   9.130  40.030
  144BOLB   C1B 3441  20.600   9.820  39.780
  144BOLB   C2B 3442  20.410   9.600  40.040
  144BOLB   C3B 3443  20.370   9.440  40.440
  144BOLB   C4B 3444  20.010   9.330  40.740
  144BOLB   NC2 3445  18.760   7.470  41.960
  144BOLB   PO2 3446  18.940   7.780  41.650
  144BOLB   GL3 3447  19.000   7.840  41.200
  144BOLB   GL4 3448  18.990   8.200  41.340
  144BOLB   C1C 3449  19.250   7.780  40.790
  144BOLB   C2C 3450  19.500   8.200  40.690
  144BOLB   C3C 3451  19.850   8.560  40.700
  144BOLB   C4C 3452  20.020   8.930  40.440
  144BOLB   C1D 3453  19.120   8.390  40.910
  144BOLB   C2D 3454  19.380   8.770  40.700
  144BOLB   C3D 3455  19.510   9.010  40.770
  144BOLB   C4D 3456  19.630   9.090  41.180
  145BOLB   NC1 3457  20.730   8.710  34.900
  145BOLB   PO1 3458  20.360   8.960  35.040
  145BOLB   GL1 3459  20.160   8.630  35.110
  145BOLB   GL2 3460  20.300   8.450  35.010
  145BOLB   C1A 3461  19.840   8.400  35.200
  145BOLB   C2A 3462  19.410   8.240  35.120
  145BOLB   C3A 3463  19.480   7.820  35.260
  145BOLB   C4A 3464  19.220   7.450  35.080
  145BOLB   C1B 3465  20.280   8.090  35.350
  145BOLB   C2B 3466  19.960   7.990  35.600
  145BOLB   C3B 3467  19.770   7.540  35.630
  145BOLB   C4B 3468  19.750   7.250  35.790
  145BOLB   NC2 3469  18.540   5.160  35.730
  145BOLB   PO2 3470  18.940   5.270  35.760
  145BOLB   GL3 3471  18.720   5.610  35.490
  145BOLB   GL4 3472  18.910   5.830  35.610
  145BOLB   C1C 3473  18.980   5.880  35.110
  145BOLB   C2C 3474  18.820   6.170  34.900
  145BOLB   C3C 3475  18.860   6.610  34.880
  145BOLB   C4C 3476  19.140   6.980  34.920
  145BOLB   C1D 3477  19.330   5.680  35.360
  145BOLB   C2D 3478  19.770   5.710  35.440
  145BOLB   C3D 3479  20.160   5.620  35.420
  145BOLB   C4D 3480  20.260   5.240  35.150
  146BOLB   NC1 3481  23.980  12.190  22.640
  146BOLB   PO1 3482  24.310  12.010  22.900
  146BOLB   GL1 3483  24.630  11.800  22.510
  146BOLB   GL2 3484  24.820  12.040  22.260
  146BOLB   C1A 3485  24.600  11.430  22.230
  146BOLB   C2A 3486  24.560  11.200  21.920
  146BOLB   C3A 3487  24.390  10.880  21.710
  146BOLB   C4A 3488  24.270  10.740  21.380
  146BOLB   C1B 3489  24.940  11.740  22.050
  146BOLB   C2B 3490  24.880  11.520  21.630
  146BOLB   C3B 3491  24.750  11.160  21.430
  146BOLB   C4B 3492  24.720  10.800  21.100
  146BOLB   NC2 3493  25.260  11.040  19.120
  146BOLB   PO2 3494  25.390  10.590  19.290
  146BOLB   GL3 3495  25.480  10.550  19.610
  146BOLB   GL4 3496  25.830  10.600  19.730
  146BOLB   C1C 3497  25.210  10.510  19.970
  146BOLB   C2C 3498  25.000  10.500  20.280
  146BOLB   C3C 3499  24.620  10.580  20.620
  146BOLB   C4C 3500  24.280  10.590  20.970
  146BOLB   C1D 3501  26.120  10.930  19.830
  146BOLB   C2D 3502  26.330  11.270  20.010
  146BOLB   C3D 3503  26.210  11.650  20.220
  146BOLB   C4D 3504  25.880  11.970  20.500
  147BOLB   NC1 3505  10.270  23.050  25.930
  147BOLB   PO1 3506  10.510  23.380  26.150
  147BOLB   GL1 3507  10.870  23.370  26.490
  147BOLB   GL2 3508  11.110  23.530  26.410
  147BOLB   C1A 3509  11.060  23.220  26.900
  147BOLB   C2A 3510  10.770  22.800  26.950
  147BOLB   C3A 3511  10.680  22.470  27.170
  147BOLB   C4A 3512  10.770  22.010  27.340
  147BOLB   C1B 3513  11.460  23.150  26.500
  147BOLB   C2B 3514  11.800  23.050  26.330
  147BOLB   C3B 3515  12.070  22.810  26.520
  147BOLB   C4B 3516  12.230  22.650  26.940
  147BOLB   NC2 3517   9.720  20.910  26.530
  147BOLB   PO2 3518  10.030  20.650  26.260
  147BOLB   GL3 3519  10.360  20.760  26.320
  147BOLB   GL4 3520  10.460  21.120  26.310
  147BOLB   C1C 3521  10.770  20.760  26.420
  147BOLB   C2C 3522  10.940  20.960  26.710
  147BOLB   C3C 3523  10.910  21.230  27.040
  147BOLB   C4C 3524  10.840  21.660  27.310
  147BOLB   C1D 3525  10.580  21.430  26.560
  147BOLB   C2D 3526  10.940  21.640  26.810
  147BOLB   C3D 3527  11.300  21.540  27.130
  147BOLB   C4D 3528  11.720  21.630  27.280
  148BOLB   NC1 3529  23.650  22.650  44.860
  148BOLB   PO1 3530  23.310  23.000  44.670
  148BOLB   GL1 3531  23.220  22.770  44.370
  148BOLB   GL2 3532  23.270  22.490  44.370
  148BOLB   C1A 3533  23.070  22.640  43.960
  148BOLB   C2A 3534  22.820  22.640  43.500
  148BOLB   C3A 3535  22.660  22.560  43.180
  148BOLB   C4A 3536  22.560  22.820  42.910
  148BOLB   C1B 3537  23.430  22.100  44.110
  148BOLB   C2B 3538  23.140  21.700  44.140
  148BOLB   C3B 3539  23.290  21.640  43.710
  148BOLB   C4B 3540  23.480  21.380  43.330
  148BOLB   NC2 3541  22.280  25.290  43.360
  148BOLB   PO2 3542  22.120  24.950  43.180
  148BOLB   GL3 3543  21.960  24.580  43.410
  148BOLB   GL4 3544  21.710  24.650  43.530
  148BOLB   C1C 3545  21.940  24.230  43.190
  148BOLB   C2C 3546  21.940  23.880  43.110
  148BOLB   C3C 3547  22.090  23.510  42.890
  148BOLB   C4C 3548  22.340  23.210  42.800
  148BOLB   C1D 3549  21.430  24.260  43.530
  148BOLB   C2D 3550  21.640  23.890  43.580
  148BOLB   C3D 3551  22.120  23.730  43.600
  148BOLB   C4D 3552  22.570  23.550  43.750
  149BOLB   NC1 3553  11.740  19.300  41.430
  149BOLB   PO1 3554  11.750  19.230  40.950
  149BOLB   GL1 3555  11.990  19.170  40.610
  149BOLB   GL2 3556  12.110  18.950  40.500
  149BOLB   C1A 3557  12.360  19.370  40.390
  149BOLB   C2A 3558  12.540  19.480  39.930
  149BOLB   C3A 3559  12.910  19.440  39.700
  149BOLB   C4A 3560  13.090  19.060  39.490
  149BOLB   C1B 3561  12.000  19.160  40.110
  149BOLB   C2B 3562  12.050  19.460  39.900
  149BOLB   C3B 3563  12.190  19.750  39.620
  149BOLB   C4B 3564  12.580  19.690  39.410
  149BOLB   NC2 3565  14.870  18.360  37.940
  149BOLB   PO2 3566  14.540  18.090  38.010
  149BOLB   GL3 3567  14.220  18.030  38.240
  149BOLB   GL4 3568  13.920  17.930  38.090
  149BOLB   C1C 3569  13.960  18.190  38.500
  149BOLB   C2C 3570  13.650  18.200  38.870
  149BOLB   C3C 3571  13.320  18.520  38.960
  149BOLB   C4C 3572  13.000  18.690  39.170
  149BOLB   C1D 3573  13.470  18.060  38.210
  149BOLB   C2D 3574  13.300  18.340  38.480
  149BOLB   C3D 3575  12.950  18.270  38.730
  149BOLB   C4D 3576  12.630  18.410  38.950
  150BOLB   NC1 3577  29.165  13.870  28.000
  150BOLB   PO1 3578  29.405  13.830  28.310
  150BOLB   GL1 3579  29.695  14.000  28.100
  150BOLB   GL2 3580  29.585  13.720  27.790
  150BOLB   C1A 3581  30.125  14.090  28.220
  150BOLB   C2A 3582  30.415  14.410  28.150
  150BOLB   C3A 3583  30.725  14.500  28.430
  150BOLB   C4A 3584  31.025  14.730  28.550
  150BOLB   C1B 3585  30.055  13.800  27.740
  150BOLB   C2B 3586  30.335  14.050  27.700
  150BOLB   C3B 3587  30.305  14.470  27.680
  150BOLB   C4B 3588  30.365  14.760  27.360
  150BOLB   NC2 3589  33.235  13.920  29.310
  150BOLB   PO2 3590  33.325  13.710  28.940
  150BOLB   GL3 3591  33.015  13.550  28.870
  150BOLB   GL4 3592  32.845  13.330  28.660
  150BOLB   C1C 3593  32.585  13.680  28.940
  150BOLB   C2C 3594  32.285  14.040  28.860
  150BOLB   C3C 3595  31.815  14.190  28.870
  150BOLB   C4C 3596  31.295  14.490  28.860
  150BOLB   C1D 3597  32.495  13.180  28.820
  150BOLB   C2D 3598  32.025  13.010  28.720
  150BOLB   C3D 3599  31.715  13.180  28.810
  150BOLB   C4D 3600  31.625  13.560  28.930
  151BOLB   NC1 3601  27.295  17.240  35.420
  151BOLB   PO1 3602  27.295  17.590  35.570
  151BOLB   GL1 3603  27.665  17.830  35.560
  151BOLB   GL2 3604  27.935  17.710  35.700
  151BOLB   C1A 3605  28.015  17.940  35.300
  151BOLB   C2A 3606  28.335  18.340  35.090
  151BOLB   C3A 3607  28.525  18.600  34.830
  151BOLB   C4A 3608  28.785  18.850  34.570
  151BOLB   C1B 3609  28.115  18.120  35.720
  151BOLB   C2B 3610  28.425  18.390  35.870
  151BOLB   C3B 3611  28.745  18.600  36.110
  151BOLB   C4B 3612  29.015  18.880  36.100
  151BOLB   NC2 3613  30.655  20.010  34.380
  151BOLB   PO2 3614  30.745  19.730  33.940
  151BOLB   GL3 3615  30.505  19.430  34.120
  151BOLB   GL4 3616  30.205  19.470  33.970
  151BOLB   C1C 3617  30.265  19.260  34.480
  151BOLB   C2C 3618  29.995  18.970  34.450
  151BOLB   C3C 3619  29.595  18.910  34.370
  151BOLB   C4C 3620  29.205  18.900  34.420
  151BOLB   C1D 3621  30.015  19.150  34.000
  151BOLB   C2D 3622  29.605  19.050  33.900
  151BOLB   C3D 3623  29.165  19.080  33.960
  151BOLB   C4D 3624  28.855  19.180  33.670
  152BOLB   NC1 3625  15.650  13.720  30.000
  152BOLB   PO1 3626  15.730  13.390  29.650
  152BOLB   GL1 3627  15.290  13.400  29.610
  152BOLB   GL2 3628  15.170  13.080  29.590
  152BOLB   C1A 3629  14.900  13.280  29.910
  152BOLB   C2A 3630  14.470  13.070  29.910
  152BOLB   C3A 3631  14.130  13.060  29.730
  152BOLB   C4A 3632  13.730  12.900  29.520
  152BOLB   C1B 3633  15.050  12.740  29.430
  152BOLB   C2B 3634  14.900  12.410  29.110
  152BOLB   C3B 3635  14.510  12.440  29.050
  152BOLB   C4B 3636  14.180  12.230  28.940
  152BOLB   NC2 3637  11.190  12.130  29.950
  152BOLB   PO2 3638  11.610  12.300  29.880
  152BOLB   GL3 3639  12.130  12.350  29.810
  152BOLB   GL4 3640  12.420  12.320  29.520
  152BOLB   C1C 3641  12.540  12.150  29.930
  152BOLB   C2C 3642  12.870  12.170  29.670
  152BOLB   C3C 3643  13.020  12.390  29.400
  152BOLB   C4C 3644  13.410  12.640  29.500
  152BOLB   C1D 3645  12.620  12.600  29.220
  152BOLB   C2D 3646  12.740  12.920  29.020
  152BOLB   C3D 3647  13.120  12.870  29.080
  152BOLB   C4D 3648  13.590  13.010  28.980
  153BOLB   NC1 3649  10.660  21.910  37.970
  153BOLB   PO1 3650  10.660  21.640  38.410
  153BOLB   GL1 3651  11.000  21.590  38.280
  153BOLB   GL2 3652  11.380  21.690  38.400
  153BOLB   C1A 3653  11.310  21.570  37.940
  153BOLB   C2A 3654  11.610  21.290  37.810
  153BOLB   C3A 3655  11.980  21.090  37.570
  153BOLB   C4A 3656  12.130  21.230  37.110
  153BOLB   C1B 3657  11.790  21.450  38.480
  153BOLB   C2B 3658  12.210  21.540  38.550
  153BOLB   C3B 3659  12.600  21.390  38.450
  153BOLB   C4B 3660  12.740  21.040  38.520
  153BOLB   NC2 3661  10.650  22.320  36.650
  153BOLB   PO2 3662  10.160  22.080  36.600
  153BOLB   GL3 3663  10.310  21.580  36.780
  153BOLB   GL4 3664  10.460  21.510  37.060
  153BOLB   C1C 3665  10.660  21.330  36.620
  153BOLB   C2C 3666  11.080  21.310  36.430
  153BOLB   C3C 3667  11.520  21.190  36.430
  153BOLB   C4C 3668  11.880  21.170  36.640
  153BOLB   C1D 3669  10.820  21.730  36.880
  153BOLB   C2D 3670  10.890  21.810  36.480
  153BOLB   C3D 3671  10.800  21.750  36.120
  153BOLB   C4D 3672  10.960  21.780  35.650
  154BOLB   NC1 3673  32.715  15.870  38.630
  154BOLB   PO1 3674  32.335  16.000  38.660
  154BOLB   GL1 3675  32.045  15.870  38.330
  154BOLB   GL2 3676  32.125  15.670  38.080
  154BOLB   C1A 3677  31.655  16.050  38.200
  154BOLB   C2A 3678  31.335  16.220  38.410
  154BOLB   C3A 3679  30.935  16.380  38.310
  154BOLB   C4A 3680  30.655  16.120  37.910
  154BOLB   C1B 3681  31.795  15.680  37.880
  154BOLB   C2B 3682  31.415  15.820  37.790
  154BOLB   C3B 3683  31.025  15.710  37.790
  154BOLB   C4B 3684  30.715  15.400  37.610
  154BOLB   NC2 3685  28.635  14.710  36.560
  154BOLB   PO2 3686  28.885  14.820  36.950
  154BOLB   GL3 3687  29.365  14.820  36.950
  154BOLB   GL4 3688  29.535  14.750  36.630
  154BOLB   C1C 3689  29.775  14.920  37.040
  154BOLB   C2C 3690  30.135  15.220  37.210
  154BOLB   C3C 3691  30.315  15.610  37.380
  154BOLB   C4C 3692  30.495  15.850  37.680
  154BOLB   C1D 3693  29.995  14.840  36.600
  154BOLB   C2D 3694  30.505  14.850  36.610
  154BOLB   C3D 3695  30.815  14.840  36.340
  154BOLB   C4D 3696  31.225  14.770  36.130
  155BOLB   NC1 3697  19.500  24.620  32.210
  155BOLB   PO1 3698  19.850  24.740  31.980
  155BOLB   GL1 3699  20.170  25.020  31.840
  155BOLB   GL2 3700  20.490  25.070  31.820
  155BOLB   C1A 3701  20.130  25.140  31.390
  155BOLB   C2A 3702  20.400  25.380  31.120
  155BOLB   C3A 3703  20.590  25.700  31.070
  155BOLB   C4A 3704  20.650  26.170  30.940
  155BOLB   C1B 3705  20.520  25.310  32.190
  155BOLB   C2B 3706  20.640  25.650  32.360
  155BOLB   C3B 3707  20.750  25.880  32.700
  155BOLB   C4B 3708  20.600  26.110  33.010
  155BOLB   NC2 3709  20.250   2.420  30.260
  155BOLB   PO2 3710  20.060   2.260  30.720
  155BOLB   GL3 3711  20.000   1.780  30.900
  155BOLB   GL4 3712  19.730   1.610  31.130
  155BOLB   C1C 3713  20.200   1.390  31.200
  155BOLB   C2C 3714  20.440   1.070  31.190
  155BOLB   C3C 3715  20.590   0.630  30.930
  155BOLB   C4C 3716  20.610   0.190  30.900
  155BOLB   C1D 3717  19.380   1.290  31.150
  155BOLB   C2D 3718  19.380   0.910  31.190
  155BOLB   C3D 3719  19.600   0.570  30.880
  155BOLB   C4D 3720  19.770   0.470  30.470
  156BOLB   NC1 3721  27.115  16.700  32.140
  156BOLB   PO1 3722  27.245  16.980  31.780
  156BOLB   GL1 3723  27.485  17.330  31.610
  156BOLB   GL2 3724  27.415  17.610  31.590
  156BOLB   C1A 3725  27.745  17.360  31.280
  156BOLB   C2A 3726  28.215  17.610  31.270
  156BOLB   C3A 3727  28.525  17.900  31.270
  156BOLB   C4A 3728  28.625  18.270  30.980
  156BOLB   C1B 3729  27.625  18.000  31.440
  156BOLB   C2B 3730  27.605  18.480  31.580
  156BOLB   C3B 3731  28.015  18.670  31.680
  156BOLB   C4B 3732  28.455  18.810  31.710
  156BOLB   NC2 3733  31.095  18.620  30.190
  156BOLB   PO2 3734  30.955  18.730  29.730
  156BOLB   GL3 3735  30.545  18.560  29.810
  156BOLB   GL4 3736  30.335  18.500  29.630
  156BOLB   C1C 3737  30.055  18.590  30.000
  156BOLB   C2C 3738  29.565  18.580  29.980
  156BOLB   C3C 3739  29.285  18.440  30.450
  156BOLB   C4C 3740  28.825  18.500  30.630
  156BOLB   C1D 3741  30.255  18.170  29.860
  156BOLB   C2D 3742  29.845  18.030  30.070
  156BOLB   C3D 3743  29.425  18.050  29.960
  156BOLB   C4D 3744  29.085  17.770  30.040
  157BOLB   NC1 3745  11.710  13.420  25.420
  157BOLB   PO1 3746  11.720  13.730  25.770
  157BOLB   GL1 3747  12.010  13.930  25.540
  157BOLB   GL2 3748  12.200  13.620  25.600
  157BOLB   C1A 3749  12.380  14.150  25.420
  157BOLB   C2A 3750  12.770  14.020  25.590
  157BOLB   C3A 3751  13.200  13.950  25.720
  157BOLB   C4A 3752  13.450  14.220  26.010
  157BOLB   C1B 3753  12.390  13.870  25.980
  157BOLB   C2B 3754  12.880  13.890  26.180
  157BOLB   C3B 3755  13.400  13.760  26.210
  157BOLB   C4B 3756  13.890  13.700  26.080
  157BOLB   NC2 3757  11.490  13.720  26.380
  157BOLB   PO2 3758  11.250  13.960  26.670
  157BOLB   GL3 3759  11.670  14.080  26.850
  157BOLB   GL4 3760  11.660  14.320  26.890
  157BOLB   C1C 3761  12.140  14.210  26.800
  157BOLB   C2C 3762  12.520  14.420  26.970
  157BOLB   C3C 3763  12.960  14.440  26.740
  157BOLB   C4C 3764  13.210  14.290  26.360
  157BOLB   C1D 3765  11.980  14.530  27.140
  157BOLB   C2D 3766  12.250  14.710  27.400
  157BOLB   C3D 3767  12.570  15.000  27.300
  157BOLB   C4D 3768  12.630  15.480  27.400
  158BOLB   NC1 3769  19.170  11.980  39.390
  158BOLB   PO1 3770  18.930  11.900  38.880
  158BOLB   GL1 3771  18.850  11.490  38.990
  158BOLB   GL2 3772  18.940  11.510  39.250
  158BOLB   C1A 3773  18.700  11.070  39.010
  158BOLB   C2A 3774  18.550  10.740  38.980
  158BOLB   C3A 3775  18.580  10.300  39.060
  158BOLB   C4A 3776  18.240  10.020  39.350
  158BOLB   C1B 3777  19.100  11.070  39.420
  158BOLB   C2B 3778  18.820  10.610  39.440
  158BOLB   C3B 3779  18.790  10.370  39.800
  158BOLB   C4B 3780  18.550  10.280  40.150
  158BOLB   NC2 3781  17.160   8.660  40.470
  158BOLB   PO2 3782  17.140   8.870  40.830
  158BOLB   GL3 3783  17.450   9.090  40.510
  158BOLB   GL4 3784  17.690   8.810  40.640
  158BOLB   C1C 3785  17.710   8.950  40.160
  158BOLB   C2C 3786  17.740   9.170  39.780
  158BOLB   C3C 3787  17.630   9.540  39.310
  158BOLB   C4C 3788  17.960   9.900  39.340
  158BOLB   C1D 3789  17.940   9.140  40.550
  158BOLB   C2D 3790  17.890   9.460  40.130
  158BOLB   C3D 3791  18.060   9.580  39.680
  158BOLB   C4D 3792  18.080   9.330  39.350
  159BOLB   NC1 3793  19.580   8.480  21.200
  159BOLB   PO1 3794  19.510   8.670  20.840
  159BOLB   GL1 3795  19.720   9.010  21.090
  159BOLB   GL2 3796  19.670   9.260  21.070
  159BOLB   C1A 3797  20.210   9.140  21.070
  159BOLB   C2A 3798  20.320   9.460  21.430
  159BOLB   C3A 3799  20.160   9.560  21.750
  159BOLB   C4A 3800  20.190   9.730  22.230
  159BOLB   C1B 3801  19.630   9.360  21.510
  159BOLB   C2B 3802  19.400   9.770  21.650
  159BOLB   C3B 3803  19.600  10.120  21.840
  159BOLB   C4B 3804  19.550  10.570  22.000
  159BOLB   NC2 3805  21.000  12.220  22.550
  159BOLB   PO2 3806  21.250  12.040  22.930
  159BOLB   GL3 3807  21.210  11.620  22.640
  159BOLB   GL4 3808  21.490  11.410  22.530
  159BOLB   C1C 3809  21.030  11.180  22.530
  159BOLB   C2C 3810  20.640  11.040  22.460
  159BOLB   C3C 3811  20.290  10.610  22.550
  159BOLB   C4C 3812  20.150  10.120  22.460
  159BOLB   C1D 3813  21.360  11.090  22.210
  159BOLB   C2D 3814  21.240  10.630  22.370
  159BOLB   C3D 3815  21.030  10.360  22.150
  159BOLB   C4D 3816  20.750  10.360  21.800
  160BOLB   NC1 3817  16.640  19.900  23.150
  160BOLB   PO1 3818  16.410  19.780  22.810
  160BOLB   GL1 3819  16.240  19.910  22.410
  160BOLB   GL2 3820  16.310  20.270  22.320
  160BOLB   C1A 3821  15.900  19.970  22.130
  160BOLB   C2A 3822  15.540  19.760  21.890
  160BOLB   C3A 3823  15.250  19.300  21.830
  160BOLB   C4A 3824  15.140  19.100  21.410
  160BOLB   C1B 3825  16.060  20.430  22.000
  160BOLB   C2B 3826  15.670  20.480  21.750
  160BOLB   C3B 3827  15.320  20.390  21.520
  160BOLB   C4B 3828  14.890  20.280  21.560
  160BOLB   NC2 3829  14.640  19.000  18.970
  160BOLB   PO2 3830  14.440  18.700  19.180
  160BOLB   GL3 3831  14.450  18.710  19.640
  160BOLB   GL4 3832  14.650  18.400  19.660
  160BOLB   C1C 3833  14.410  18.630  20.130
  160BOLB   C2C 3834  14.630  18.770  20.430
  160BOLB   C3C 3835  14.900  18.920  20.700
  160BOLB   C4C 3836  15.250  19.020  21.000
  160BOLB   C1D 3837  14.900  18.460  19.960
  160BOLB   C2D 3838  15.340  18.320  20.100
  160BOLB   C3D 3839  15.730  18.600  19.990
  160BOLB   C4D 3840  16.210  18.690  19.850
  161BOLB   NC1 3841  23.540  10.660  23.550
  161BOLB   PO1 3842  23.340  10.310  23.640
  161BOLB   GL1 3843  23.470  10.010  23.400
  161BOLB   GL2 3844  23.730  10.240  23.330
  161BOLB   C1A 3845  23.720   9.800  23.080
  161BOLB   C2A 3846  23.630   9.730  22.710
  161BOLB   C3A 3847  23.250   9.480  22.600
  161BOLB   C4A 3848  22.820   9.530  22.410
  161BOLB   C1B 3849  24.040  10.180  23.040
  161BOLB   C2B 3850  24.150   9.820  22.800
  161BOLB   C3B 3851  24.370   9.460  22.690
  161BOLB   C4B 3852  24.730   9.280  22.620
  161BOLB   NC2 3853  22.150   7.870  21.180
  161BOLB   PO2 3854  22.630   7.870  21.330
  161BOLB   GL3 3855  22.540   8.090  21.630
  161BOLB   GL4 3856  22.730   8.410  21.530
  161BOLB   C1C 3857  22.300   8.470  21.740
  161BOLB   C2C 3858  22.210   8.780  21.970
  161BOLB   C3C 3859  22.050   9.110  21.860
  161BOLB   C4C 3860  22.400   9.340  22.190
  161BOLB   C1D 3861  23.140   8.460  21.580
  161BOLB   C2D 3862  23.310   8.420  22.000
  161BOLB   C3D 3863  23.280   8.700  22.310
  161BOLB   C4D 3864  23.500   9.010  22.650
  162BOLB   NC1 3865  22.150  18.190  21.830
  162BOLB   PO1 3866  21.750  17.950  21.610
  162BOLB   GL1 3867  21.790  18.380  21.440
  162BOLB   GL2 3868  21.620  18.560  21.570
  162BOLB   C1A 3869  21.980  18.560  21.150
  162BOLB   C2A 3870  21.780  18.840  20.850
  162BOLB   C3A 3871  21.690  18.940  20.490
  162BOLB   C4A 3872  21.740  19.270  20.200
  162BOLB   C1B 3873  21.760  18.940  21.350
  162BOLB   C2B 3874  21.860  19.300  21.160
  162BOLB   C3B 3875  21.880  19.430  20.730
  162BOLB   C4B 3876  22.060  19.570  20.410
  162BOLB   NC2 3877  23.020  20.040  17.950
  162BOLB   PO2 3878  23.130  19.700  18.150
  162BOLB   GL3 3879  22.960  19.690  18.550
  162BOLB   GL4 3880  22.970  19.410  18.790
  162BOLB   C1C 3881  22.650  19.790  18.980
  162BOLB   C2C 3882  22.370  19.740  19.300
  162BOLB   C3C 3883  22.020  19.790  19.530
  162BOLB   C4C 3884  22.020  19.550  19.940
  162BOLB   C1D 3885  22.960  19.010  18.910
  162BOLB   C2D 3886  22.750  18.630  19.170
  162BOLB   C3D 3887  22.660  18.360  19.530
  162BOLB   C4D 3888  22.270  18.290  19.820
  163BOLB   NC1 3889  29.925  10.800  34.420
  163BOLB   PO1 3890  30.035  11.280  34.370
  163BOLB   GL1 3891  30.195  11.610  34.610
  163BOLB   GL2 3892  30.215  11.480  34.860
  163BOLB   C1A 3893  30.585  11.670  34.620
  163BOLB   C2A 3894  31.005  11.610  34.520
  163BOLB   C3A 3895  31.415  11.680  34.480
  163BOLB   C4A 3896  31.765  11.860  34.290
  163BOLB   C1B 3897  30.505  11.430  35.110
  163BOLB   C2B 3898  30.725  11.480  35.430
  163BOLB   C3B 3899  31.205  11.400  35.400
  163BOLB   C4B 3900  31.645  11.380  35.470
  163BOLB   NC2 3901  33.855  11.690  33.600
  163BOLB   PO2 3902  33.755  12.020  33.390
  163BOLB   GL3 3903  33.485  11.800  33.240
  163BOLB   GL4 3904  33.395  11.420  33.290
  163BOLB   C1C 3905  32.975  11.990  33.240
  163BOLB   C2C 3906  32.545  12.220  33.190
  163BOLB   C3C 3907  32.155  12.160  33.480
  163BOLB   C4C 3908  31.955  12.090  33.880
  163BOLB   C1D 3909  33.055  11.560  32.970
  163BOLB   C2D 3910  33.105  11.950  32.710
  163BOLB   C3D 3911  33.285  11.850  32.280
  163BOLB   C4D 3912  33.075  11.460  32.030
  164BOLB   NC1 3913  22.510  10.400  39.870
  164BOLB   PO1 3914  22.230  10.270  39.590
  164BOLB   GL1 3915  22.140  10.060  39.960
  164BOLB   GL2 3916  22.230  10.110  40.270
  164BOLB   C1A 3917  21.860   9.680  40.120
  164BOLB   C2A 3918  21.580   9.350  40.340
  164BOLB   C3A 3919  21.270   9.080  40.390
  164BOLB   C4A 3920  21.050   8.750  40.460
  164BOLB   C1B 3921  22.300   9.830  40.440
  164BOLB   C2B 3922  22.430   9.650  40.760
  164BOLB   C3B 3923  22.440   9.210  40.780
  164BOLB   C4B 3924  22.650   8.910  41.100
  164BOLB   NC2 3925  20.970   7.120  42.730
  164BOLB   PO2 3926  20.860   7.550  42.610
  164BOLB   GL3 3927  20.890   7.780  42.260
  164BOLB   GL4 3928  21.270   7.760  42.110
  164BOLB   C1C 3929  20.800   7.970  41.880
  164BOLB   C2C 3930  20.730   8.190  41.570
  164BOLB   C3C 3931  20.740   8.300  41.170
  164BOLB   C4C 3932  20.780   8.570  40.780
  164BOLB   C1D 3933  21.190   8.250  42.000
  164BOLB   C2D 3934  21.070   8.490  41.690
  164BOLB   C3D 3935  20.820   8.690  41.520
  164BOLB   C4D 3936  20.630   8.930  41.170
  165BOLB   NC1 3937  15.490  16.640  37.830
  165BOLB   PO1 3938  15.160  16.550  38.120
  165BOLB   GL1 3939  14.610  16.560  38.160
  165BOLB   GL2 3940  14.510  16.300  38.490
  165BOLB   C1A 3941  14.110  16.480  38.280
  165BOLB   C2A 3942  13.760  16.220  38.330
  165BOLB   C3A 3943  13.320  16.360  38.430
  165BOLB   C4A 3944  12.880  16.300  38.310
  165BOLB   C1B 3945  14.140  16.270  38.720
  165BOLB   C2B 3946  13.670  16.240  38.860
  165BOLB   C3B 3947  13.310  16.090  38.860
  165BOLB   C4B 3948  12.930  15.890  38.650
  165BOLB   NC2 3949  11.050  16.320  39.700
  165BOLB   PO2 3950  10.980  16.490  39.280
  165BOLB   GL3 3951  11.190  16.240  38.910
  165BOLB   GL4 3952  11.460  15.950  38.890
  165BOLB   C1C 3953  11.490  16.280  38.500
  165BOLB   C2C 3954  11.740  16.350  38.220
  165BOLB   C3C 3955  12.090  16.410  38.220
  165BOLB   C4C 3956  12.420  16.380  38.140
  165BOLB   C1D 3957  11.620  16.560  38.840
  165BOLB   C2D 3958  12.130  16.560  39.020
  165BOLB   C3D 3959  12.460  16.700  39.260
  165BOLB   C4D 3960  12.480  16.640  39.710
  166BOLB   NC1 3961  27.555   8.450  29.020
  166BOLB   PO1 3962  27.455   8.660  28.590
  166BOLB   GL1 3963  27.785   8.300  28.510
  166BOLB   GL2 3964  27.775   7.970  28.670
  166BOLB   C1A 3965  28.175   8.200  28.310
  166BOLB   C2A 3966  28.275   8.330  27.920
  166BOLB   C3A 3967  28.585   8.280  27.690
  166BOLB   C4A 3968  28.865   8.370  27.290
  166BOLB   C1B 3969  27.855   7.540  28.680
  166BOLB   C2B 3970  28.225   7.320  28.730
  166BOLB   C3B 3971  28.435   7.070  29.010
  166BOLB   C4B 3972  28.785   6.880  28.980
  166BOLB   NC2 3973  29.905   6.250  26.270
  166BOLB   PO2 3974  30.075   6.630  26.320
  166BOLB   GL3 3975  29.885   7.020  26.080
  166BOLB   GL4 3976  29.585   6.900  25.870
  166BOLB   C1C 3977  29.605   7.290  26.160
  166BOLB   C2C 3978  29.315   7.610  26.310
  166BOLB   C3C 3979  29.345   8.010  26.560
  166BOLB   C4C 3980  29.175   8.160  26.960
  166BOLB   C1D 3981  29.405   7.160  25.550
  166BOLB   C2D 3982  29.535   7.570  25.250
  166BOLB   C3D 3983  29.575   7.900  25.480
  166BOLB   C4D 3984  29.555   8.280  25.660
  167BOLB   NC1 3985  25.570   3.870  37.510
  167BOLB   PO1 3986  25.110   3.910  37.650
  167BOLB   GL1 3987  25.330   4.300  37.580
  167BOLB   GL2 3988  25.150   4.490  37.810
  167BOLB   C1A 3989  25.490   4.620  37.280
  167BOLB   C2A 3990  25.360   4.930  36.970
  167BOLB   C3A 3991  25.180   4.990  36.530
  167BOLB   C4A 3992  25.080   5.200  36.110
  167BOLB   C1B 3993  25.000   4.720  37.500
  167BOLB   C2B 3994  24.670   5.010  37.530
  167BOLB   C3B 3995  24.650   5.390  37.440
  167BOLB   C4B 3996  24.600   5.770  37.390
  167BOLB   NC2 3997  24.400   3.520  36.020
  167BOLB   PO2 3998  24.100   3.610  35.820
  167BOLB   GL3 3999  23.920   3.960  35.490
  167BOLB   GL4 4000  23.690   3.940  35.200
  167BOLB   C1C 4001  23.970   4.420  35.500
  167BOLB   C2C 4002  24.360   4.610  35.410
  167BOLB   C3C 4003  24.580   4.840  35.660
  167BOLB   C4C 4004  24.900   5.210  35.750
  167BOLB   C1D 4005  23.410   4.220  35.480
  167BOLB   C2D 4006  23.530   4.710  35.610
  167BOLB   C3D 4007  23.990   4.950  35.450
  167BOLB   C4D 4008  24.200   5.260  35.160
  168BOLB   NC1 4009  15.250  23.090  28.650
  168BOLB   PO1 4010  14.880  23.270  28.810
  168BOLB   GL1 4011  14.770  23.590  28.650
  168BOLB   GL2 4012  14.520  23.600  28.570
  168BOLB   C1A 4013  14.800  24.050  28.750
  168BOLB   C2A 4014  14.640  24.450  28.790
  168BOLB   C3A 4015  14.510  24.630  29.130
  168BOLB   C4A 4016  14.540  25.000  29.100
  168BOLB   C1B 4017  14.130  23.670  28.490
  168BOLB   C2B 4018  13.870  24.020  28.340
  168BOLB   C3B 4019  13.430  24.250  28.240
  168BOLB   C4B 4020  13.000  24.190  28.470
  168BOLB   NC2 4021  12.380   0.040  28.730
  168BOLB   PO2 4022  12.590   0.210  28.940
  168BOLB   GL3 4023  12.870  26.290  29.170
  168BOLB   GL4 4024  13.060  26.310  29.380
  168BOLB   C1C 4025  13.230  26.090  28.990
  168BOLB   C2C 4026  13.650  25.800  29.110
  168BOLB   C3C 4027  14.150  25.630  29.140
  168BOLB   C4C 4028  14.470  25.410  29.170
  168BOLB   C1D 4029  13.260  26.010  29.660
  168BOLB   C2D 4030  13.470  25.680  29.550
  168BOLB   C3D 4031  13.630  25.380  29.350
  168BOLB   C4D 4032  13.850  25.190  29.020
  169BOLB   NC1 4033  19.960  11.880  40.180
  169BOLB   PO1 4034  20.190  11.540  40.060
  169BOLB   GL1 4035  20.070  11.310  40.540
  169BOLB   GL2 4036  20.220  11.090  40.560
  169BOLB   C1A 4037  19.760  10.990  40.720
  169BOLB   C2A 4038  19.340  10.840  40.840
  169BOLB   C3A 4039  19.050  10.540  40.980
  169BOLB   C4A 4040  19.150  10.290  41.320
  169BOLB   C1B 4041  20.130  10.660  40.510
  169BOLB   C2B 4042  19.890  10.280  40.650
  169BOLB   C3B 4043  19.710   9.760  40.650
  169BOLB   C4B 4044  19.440   9.540  40.910
  169BOLB   NC2 4045  18.340   8.270  42.850
  169BOLB   PO2 4046  18.430   8.370  42.320
  169BOLB   GL3 4047  18.680   8.650  42.000
  169BOLB   GL4 4048  18.780   8.990  42.020
  169BOLB   C1C 4049  18.990   8.670  41.630
  169BOLB   C2C 4050  19.360   9.000  41.670
  169BOLB   C3C 4051  19.330   9.350  41.470
  169BOLB   C4C 4052  19.160   9.800  41.420
  169BOLB   C1D 4053  18.920   9.290  41.810
  169BOLB   C2D 4054  19.070   9.700  41.900
  169BOLB   C3D 4055  18.830  10.050  41.910
  169BOLB   C4D 4056  18.810  10.400  41.620
  170BOLB   NC1 4057  28.305  12.520  39.340
  170BOLB   PO1 4058  27.925  12.550  39.530
  170BOLB   GL1 4059  28.195  12.510  39.850
  170BOLB   GL2 4060  28.255  12.730  40.210
  170BOLB   C1A 4061  28.625  12.450  40.080
  170BOLB   C2A 4062  29.005  12.200  40.190
  170BOLB   C3A 4063  29.415  12.100  40.270
  170BOLB   C4A 4064  29.815  12.330  40.260
  170BOLB   C1B 4065  28.525  12.860  40.620
  170BOLB   C2B 4066  28.885  13.050  40.910
  170BOLB   C3B 4067  29.015  13.250  41.370
  170BOLB   C4B 4068  29.045  13.660  41.600
  170BOLB   NC2 4069  32.115  11.890  41.300
  170BOLB   PO2 4070  31.795  11.550  41.260
  170BOLB   GL3 4071  31.375  11.680  41.260
  170BOLB   GL4 4072  31.205  11.930  41.560
  170BOLB   C1C 4073  31.175  11.980  41.050
  170BOLB   C2C 4074  31.045  12.230  40.770
  170BOLB   C3C 4075  30.775  12.290  40.430
  170BOLB   C4C 4076  30.255  12.350  40.270
  170BOLB   C1D 4077  30.775  11.670  41.330
  170BOLB   C2D 4078  30.385  11.470  41.530
  170BOLB   C3D 4079  29.995  11.410  41.230
  170BOLB   C4D 4080  29.865  11.380  40.790
  171BOLB   NC1 4081  25.200   7.470  21.510
  171BOLB   PO1 4082  24.830   7.440  21.720
  171BOLB   GL1 4083  24.740   7.300  22.240
  171BOLB   GL2 4084  24.530   7.190  22.300
  171BOLB   C1A 4085  24.500   7.600  22.550
  171BOLB   C2A 4086  24.440   7.860  22.860
  171BOLB   C3A 4087  24.300   8.080  23.210
  171BOLB   C4A 4088  24.260   8.190  23.740
  171BOLB   C1B 4089  24.180   7.240  22.410
  171BOLB   C2B 4090  24.000   7.600  22.690
  171BOLB   C3B 4091  23.620   7.910  22.650
  171BOLB   C4B 4092  23.290   8.060  22.430
  171BOLB   NC2 4093  24.940   9.090  26.540
  171BOLB   PO2 4094  24.830   8.810  26.260
  171BOLB   GL3 4095  24.660   8.600  25.900
  171BOLB   GL4 4096  24.850   8.470  25.690
  171BOLB   C1C 4097  24.500   8.610  25.430
  171BOLB   C2C 4098  24.380   8.450  24.990
  171BOLB   C3C 4099  24.240   8.160  24.680
  171BOLB   C4C 4100  24.190   8.150  24.160
  171BOLB   C1D 4101  24.740   8.180  25.390
  171BOLB   C2D 4102  24.470   7.920  25.190
  171BOLB   C3D 4103  24.570   7.680  24.780
  171BOLB   C4D 4104  24.540   7.800  24.400
  172BOLB   NC1 4105  26.220  17.570  18.470
  172BOLB   PO1 4106  25.950  17.800  18.750
  172BOLB   GL1 4107  25.860  17.760  19.130
  172BOLB   GL2 4108  26.180  17.630  19.330
  172BOLB   C1A 4109  25.840  17.900  19.580
  172BOLB   C2A 4110  25.710  17.760  20.010
  172BOLB   C3A 4111  25.920  17.740  20.420
  172BOLB   C4A 4112  25.940  17.920  20.950
  172BOLB   C1B 4113  26.420  17.360  19.480
  172BOLB   C2B 4114  26.340  17.010  19.750
  172BOLB   C3B 4115  26.200  16.880  20.180
  172BOLB   C4B 4116  25.730  16.810  20.250
  172BOLB   NC2 4117  28.135  18.690  20.650
  172BOLB   PO2 4118  28.035  18.500  20.340
  172BOLB   GL3 4119  27.785  18.430  20.790
  172BOLB   GL4 4120  27.925  18.420  21.090
  172BOLB   C1C 4121  27.465  18.130  20.740
  172BOLB   C2C 4122  27.095  17.810  20.810
  172BOLB   C3C 4123  26.705  17.950  20.920
  172BOLB   C4C 4124  26.330  17.850  21.220
  172BOLB   C1D 4125  27.485  18.290  21.200
  172BOLB   C2D 4126  27.225  17.920  21.250
  172BOLB   C3D 4127  26.845  18.000  21.420
  172BOLB   C4D 4128  26.645  17.780  21.740
  173BOLB   NC1 4129  24.230   8.130  20.610
  173BOLB   PO1 4130  23.760   8.270  20.620
  173BOLB   GL1 4131  23.520   8.500  20.920
  173BOLB   GL2 4132  23.160   8.560  20.890
  173BOLB   C1A 4133  23.420   8.770  21.300
  173BOLB   C2A 4134  23.620   8.960  21.570
  173BOLB   C3A 4135  24.050   9.070  21.830
  173BOLB   C4A 4136  24.510   9.090  21.780
  173BOLB   C1B 4137  22.890   8.720  21.230
  173BOLB   C2B 4138  22.890   8.940  21.640
  173BOLB   C3B 4139  23.170   8.910  21.830
  173BOLB   C4B 4140  23.210   9.180  22.220
  173BOLB   NC2 4141  26.725   7.990  21.190
  173BOLB   PO2 4142  26.515   8.390  21.210
  173BOLB   GL3 4143  26.445   8.590  21.560
  173BOLB   GL4 4144  26.675   8.740  21.740
  173BOLB   C1C 4145  26.180   8.990  21.730
  173BOLB   C2C 4146  25.800   9.160  21.980
  173BOLB   C3C 4147  25.320   9.100  21.970
  173BOLB   C4C 4148  24.920   9.120  21.950
  173BOLB   C1D 4149  26.645   9.140  21.660
  173BOLB   C2D 4150  26.400   9.480  21.780
  173BOLB   C3D 4151  26.160   9.480  22.040
  173BOLB   C4D 4152  26.020   9.830  22.180
  174BOLB   NC1 4153  25.560  19.500  40.560
  174BOLB   PO1 4154  25.430  19.650  40.230
  174BOLB   GL1 4155  25.590  20.040  40.330
  174BOLB   GL2 4156  25.510  20.230  40.580
  174BOLB   C1A 4157  25.940  20.350  40.490
  174BOLB   C2A 4158  26.380  20.450  40.550
  174BOLB   C3A 4159  26.785  20.680  40.500
  174BOLB   C4A 4160  26.895  21.090  40.410
  174BOLB   C1B 4161  25.760  20.340  40.920
  174BOLB   C2B 4162  26.240  20.340  41.100
  174BOLB   C3B 4163  26.635  20.420  41.160
  174BOLB   C4B 4164  27.035  20.460  40.890
  174BOLB   NC2 4165  29.035  21.670  41.350
  174BOLB   PO2 4166  28.875  21.720  41.810
  174BOLB   GL3 4167  28.565  21.550  41.590
  174BOLB   GL4 4168  28.505  21.880  41.340
  174BOLB   C1C 4169  28.285  21.380  41.430
  174BOLB   C2C 4170  27.925  21.100  41.270
  174BOLB   C3C 4171  27.615  21.140  40.930
  174BOLB   C4C 4172  27.255  21.190  40.580
  174BOLB   C1D 4173  28.035  22.040  41.270
  174BOLB   C2D 4174  27.795  22.120  40.850
  174BOLB   C3D 4175  27.965  22.320  40.440
  174BOLB   C4D 4176  28.305  22.220  40.130
  175BOLB   NC1 4177  14.630  16.790  29.100
  175BOLB   PO1 4178  14.470  16.680  28.770
  175BOLB   GL1 4179  14.090  16.360  28.700
  175BOLB   GL2 4180  14.340  16.150  28.800
  175BOLB   C1A 4181  13.670  16.280  28.520
  175BOLB   C2A 4182  13.210  16.190  28.560
  175BOLB   C3A 4183  12.960  15.870  28.580
  175BOLB   C4A 4184  12.570  15.540  28.630
  175BOLB   C1B 4185  14.020  15.910  28.580
  175BOLB   C2B 4186  13.630  15.820  28.310
  175BOLB   C3B 4187  13.100  15.830  28.110
  175BOLB   C4B 4188  12.720  15.700  27.980
  175BOLB   NC2 4189  10.770  14.990  27.540
  175BOLB   PO2 4190  10.760  15.090  27.940
  175BOLB   GL3 4191  11.090  15.100  27.980
  175BOLB   GL4 4192  11.140  15.360  28.010
  175BOLB   C1C 4193  11.340  14.800  28.090
  175BOLB   C2C 4194  11.540  14.880  28.340
  175BOLB   C3C 4195  11.870  14.960  28.440
  175BOLB   C4C 4196  12.190  15.220  28.590
  175BOLB   C1D 4197  11.440  15.620  27.890
  175BOLB   C2D 4198  11.840  15.620  27.730
  175BOLB   C3D 4199  12.260  15.820  27.720
  175BOLB   C4D 4200  12.540  16.250  27.860
  176BOLB   NC1 4201  21.120  14.390  42.080
  176BOLB   PO1 4202  20.900  14.290  42.400
  176BOLB   GL1 4203  20.830  14.260  42.860
  176BOLB   GL2 4204  20.550  14.250  42.920
  176BOLB   C1A 4205  20.590  13.980  43.300
  176BOLB   C2A 4206  20.440  13.670  43.390
  176BOLB   C3A 4207  20.280  13.330  43.730
  176BOLB   C4A 4208  19.930  12.940  43.720
  176BOLB   C1B 4209  20.180  14.250  43.160
  176BOLB   C2B 4210  20.070  14.090  43.530
  176BOLB   C3B 4211  19.750  14.160  43.700
  176BOLB   C4B 4212  19.530  14.180  44.050
  176BOLB   NC2 4213  18.170  12.230  45.280
  176BOLB   PO2 4214  18.260  12.730  45.160
  176BOLB   GL3 4215  18.190  12.870  44.710
  176BOLB   GL4 4216  18.000  12.560  44.410
  176BOLB   C1C 4217  18.380  12.880  44.300
  176BOLB   C2C 4218  18.790  12.840  44.000
  176BOLB   C3C 4219  19.100  12.610  43.760
  176BOLB   C4C 4220  19.590  12.750  43.800
  176BOLB   C1D 4221  18.440  12.360  44.380
  176BOLB   C2D 4222  18.830  12.430  44.230
  176BOLB   C3D 4223  19.170  12.160  44.240
  176BOLB   C4D 4224  19.300  11.760  44.210
  177BOLB   NC1 4225  15.920  23.140  25.930
  177BOLB   PO1 4226  15.510  23.210  25.710
  177BOLB   GL1 4227  15.200  23.530  25.780
  177BOLB   GL2 4228  15.150  23.520  25.390
  177BOLB   C1A 4229  14.890  23.850  25.560
  177BOLB   C2A 4230  14.820  23.910  25.090
  177BOLB   C3A 4231  14.740  24.180  24.700
  177BOLB   C4A 4232  14.570  24.240  24.370
  177BOLB   C1B 4233  15.310  23.960  25.390
  177BOLB   C2B 4234  15.310  24.140  24.930
  177BOLB   C3B 4235  15.440  24.500  24.860
  177BOLB   C4B 4236  15.740  24.800  25.030
  177BOLB   NC2 4237  12.860  24.710  22.700
  177BOLB   PO2 4238  13.030  25.160  22.970
  177BOLB   GL3 4239  13.350  24.840  23.110
  177BOLB   GL4 4240  13.120  24.600  23.220
  177BOLB   C1C 4241  13.750  24.820  23.260
  177BOLB   C2C 4242  14.040  24.600  23.550
  177BOLB   C3C 4243  14.340  24.450  23.790
  177BOLB   C4C 4244  14.610  24.250  23.970
  177BOLB   C1D 4245  13.310  24.140  23.280
  177BOLB   C2D 4246  13.380  23.700  23.190
  177BOLB   C3D 4247  13.480  23.440  23.480
  177BOLB   C4D 4248  13.780  23.160  23.800
  178BOLB   NC1 4249  18.470  24.160  36.720
  178BOLB   PO1 4250  18.460  24.200  37.080
  178BOLB   GL1 4251  18.540  24.540  37.460
  178BOLB   GL2 4252  18.550  24.380  37.820
  178BOLB   C1A 4253  18.460  24.960  37.510
  178BOLB   C2A 4254  18.250  25.350  37.650
  178BOLB   C3A 4255  18.270  25.760  37.790
  178BOLB   C4A 4256  18.590  25.930  38.080
  178BOLB   C1B 4257  18.620  24.760  38.010
  178BOLB   C2B 4258  18.700  25.000  38.310
  178BOLB   C3B 4259  18.690  25.300  38.520
  178BOLB   C4B 4260  18.690  25.530  38.850
  178BOLB   NC2 4261  18.450   1.660  38.550
  178BOLB   PO2 4262  18.930   1.820  38.490
  178BOLB   GL3 4263  18.970   1.490  38.250
  178BOLB   GL4 4264  18.910   1.480  37.900
  178BOLB   C1C 4265  18.960   1.110  38.350
  178BOLB   C2C 4266  18.790   0.800  38.600
  178BOLB   C3C 4267  18.780   0.380  38.480
  178BOLB   C4C 4268  18.820  26.350  38.350
  178BOLB   C1D 4269  18.820   1.040  37.840
  178BOLB   C2D 4270  18.830   0.670  38.000
  178BOLB   C3D 4271  18.650   0.330  37.960
  178BOLB   C4D 4272  18.710  26.380  37.820
  179BOLB   NC1 4273  30.495  19.960  27.730
  179BOLB   PO1 4274  30.305  19.540  27.760
  179BOLB   GL1 4275  30.205  19.110  27.770
  179BOLB   GL2 4276  30.145  19.040  28.090
  179BOLB   C1A 4277  30.105  18.590  27.920
  179BOLB   C2A 4278  30.015  18.170  28.100
  179BOLB   C3A 4279  29.815  17.820  28.240
  179BOLB   C4A 4280  29.565  17.570  28.480
  179BOLB   C1B 4281  29.715  18.910  28.180
  179BOLB   C2B 4282  29.385  18.790  28.470
  179BOLB   C3B 4283  29.365  18.750  28.850
  179BOLB   C4B 4284  29.195  19.070  29.160
  179BOLB   NC2 4285  27.975  15.710  28.590
  179BOLB   PO2 4286  27.995  15.640  29.050
  179BOLB   GL3 4287  28.395  15.840  28.930
  179BOLB   GL4 4288  28.465  15.960  28.700
  179BOLB   C1C 4289  28.685  16.100  29.200
  179BOLB   C2C 4290  28.905  16.530  29.080
  179BOLB   C3C 4291  29.275  16.840  29.090
  179BOLB   C4C 4292  29.395  17.270  28.800
  179BOLB   C1D 4293  28.865  16.130  28.710
  179BOLB   C2D 4294  29.215  16.300  28.750
  179BOLB   C3D 4295  29.585  16.520  28.570
  179BOLB   C4D 4296  29.925  16.670  28.420
  180BOLB   NC1 4297  19.280  15.970  22.680
  180BOLB   PO1 4298  19.430  16.040  22.230
  180BOLB   GL1 4299  19.140  16.110  21.990
  180BOLB   GL2 4300  19.010  16.390  21.910
  180BOLB   C1A 4301  19.240  16.200  21.500
  180BOLB   C2A 4302  19.060  16.360  21.070
  180BOLB   C3A 4303  19.060  16.460  20.690
  180BOLB   C4A 4304  19.150  16.400  20.250
  180BOLB   C1B 4305  18.710  16.170  21.580
  180BOLB   C2B 4306  18.530  16.170  21.160
  180BOLB   C3B 4307  18.660  16.060  20.740
  180BOLB   C4B 4308  18.720  15.860  20.310
  180BOLB   NC2 4309  18.980  15.770  17.660
  180BOLB   PO2 4310  18.500  15.820  17.820
  180BOLB   GL3 4311  18.660  16.170  18.140
  180BOLB   GL4 4312  18.920  16.200  18.160
  180BOLB   C1C 4313  18.590  16.290  18.620
  180BOLB   C2C 4314  18.520  16.330  19.100
  180BOLB   C3C 4315  18.700  16.130  19.520
  180BOLB   C4C 4316  18.780  16.230  20.010
  180BOLB   C1D 4317  19.030  16.400  18.380
  180BOLB   C2D 4318  19.080  16.610  18.790
  180BOLB   C3D 4319  18.910  16.670  19.240
  180BOLB   C4D 4320  18.900  16.650  19.750
  181BOLB   NC1 4321  33.515   9.170  34.140
  181BOLB   PO1 4322  33.285   9.090  34.520
  181BOLB   GL1 4323  32.925   9.260  34.360
  181BOLB   GL2 4324  32.955   9.140  34.010
  181BOLB   C1A 4325  32.435   9.340  34.280
  181BOLB   C2A 4326  31.995   9.190  34.030
  181BOLB   C3A 4327  31.805   9.070  33.670
  181BOLB   C4A 4328  31.525   8.860  33.490
  181BOLB   C1B 4329  32.605   9.200  33.830
  181BOLB   C2B 4330  32.285   9.170  33.440
  181BOLB   C3B 4331  32.205   9.350  33.040
  181BOLB   C4B 4332  31.925   9.580  32.990
  181BOLB   NC2 4333  32.665   6.850  32.890
  181BOLB   PO2 4334  32.625   6.700  33.340
  181BOLB   GL3 4335  32.165   6.930  33.090
  181BOLB   GL4 4336  32.085   7.100  32.780
  181BOLB   C1C 4337  32.115   7.350  33.240
  181BOLB   C2C 4338  31.825   7.660  33.300
  181BOLB   C3C 4339  31.515   8.080  33.370
  181BOLB   C4C 4340  31.465   8.530  33.350
  181BOLB   C1D 4341  31.745   7.370  32.910
  181BOLB   C2D 4342  31.345   7.600  33.190
  181BOLB   C3D 4343  31.045   7.920  33.280
  181BOLB   C4D 4344  30.725   8.060  33.050
  182BOLB   NC1 4345  16.350  23.380  36.860
  182BOLB   PO1 4346  16.190  23.420  37.240
  182BOLB   GL1 4347  15.940  23.750  37.130
  182BOLB   GL2 4348  15.970  23.860  37.410
  182BOLB   C1A 4349  15.710  24.160  37.040
  182BOLB   C2A 4350  15.460  24.440  37.200
  182BOLB   C3A 4351  15.240  24.590  37.470
  182BOLB   C4A 4352  14.830  24.680  37.340
  182BOLB   C1B 4353  15.930  24.290  37.490
  182BOLB   C2B 4354  15.710  24.660  37.680
  182BOLB   C3B 4355  15.640  24.940  37.940
  182BOLB   C4B 4356  15.360  25.030  38.220
  182BOLB   NC2 4357  12.440  25.130  38.070
  182BOLB   PO2 4358  12.680  24.920  38.440
  182BOLB   GL3 4359  12.940  24.910  37.940
  182BOLB   GL4 4360  12.820  24.670  37.740
  182BOLB   C1C 4361  13.350  24.960  37.830
  182BOLB   C2C 4362  13.780  25.190  37.660
  182BOLB   C3C 4363  14.130  24.980  37.510
  182BOLB   C4C 4364  14.510  24.840  37.360
  182BOLB   C1D 4365  13.240  24.490  37.760
  182BOLB   C2D 4366  13.550  24.120  37.750
  182BOLB   C3D 4367  13.710  23.650  37.660
  182BOLB   C4D 4368  13.850  23.260  37.750
  183BOLB   NC1 4369  29.295  10.200  35.630
  183BOLB   PO1 4370  29.165  10.170  36.090
  183BOLB   GL1 4371  29.665  10.300  35.980
  183BOLB   GL2 4372  29.825  10.350  35.700
  183BOLB   C1A 4373  30.025  10.410  36.180
  183BOLB   C2A 4374  30.355  10.260  36.050
  183BOLB   C3A 4375  30.495   9.830  36.170
  183BOLB   C4A 4376  30.705   9.490  36.170
  183BOLB   C1B 4377  30.235  10.600  35.780
  183BOLB   C2B 4378  30.685  10.710  35.830
  183BOLB   C3B 4379  31.055  10.590  35.770
  183BOLB   C4B 4380  31.205  10.250  35.540
  183BOLB   NC2 4381  32.685   7.860  37.260
  183BOLB   PO2 4382  32.665   8.190  37.000
  183BOLB   GL3 4383  32.265   8.440  36.780
  183BOLB   GL4 4384  31.935   8.170  36.700
  183BOLB   C1C 4385  32.045   8.820  36.870
  183BOLB   C2C 4386  31.655   9.010  36.740
  183BOLB   C3C 4387  31.225   9.080  36.580
  183BOLB   C4C 4388  30.845   9.200  36.530
  183BOLB   C1D 4389  31.965   8.470  36.350
  183BOLB   C2D 4390  31.645   8.770  36.340
  183BOLB   C3D 4391  31.185   8.760  36.140
  183BOLB   C4D 4392  30.725   8.940  36.050
  184BOLB   NC1 4393  20.610  14.690  42.570
  184BOLB   PO1 4394  21.140  14.670  42.680
  184BOLB   GL1 4395  20.860  14.720  43.130
  184BOLB   GL2 4396  21.080  14.520  43.350
  184BOLB   C1A 4397  20.620  14.600  43.480
  184BOLB   C2A 4398  20.510  14.210  43.710
  184BOLB   C3A 4399  20.330  13.820  43.880
  184BOLB   C4A 4400  20.370  13.550  44.240
  184BOLB   C1B 4401  20.930  14.630  43.820
  184BOLB   C2B 4402  20.830  14.790  44.150
  184BOLB   C3B 4403  20.510  14.840  44.340
  184BOLB   C4B 4404  20.480  15.050  44.740
  184BOLB   NC2 4405  20.250  12.560  46.420
  184BOLB   PO2 4406  20.590  12.420  46.140
  184BOLB   GL3 4407  20.860  12.450  45.800
  184BOLB   GL4 4408  21.000  12.060  45.740
  184BOLB   C1C 4409  20.790  12.610  45.390
  184BOLB   C2C 4410  20.550  12.730  45.160
  184BOLB   C3C 4411  20.440  13.030  44.930
  184BOLB   C4C 4412  20.440  13.150  44.460
  184BOLB   C1D 4413  21.080  12.160  45.340
  184BOLB   C2D 4414  21.070  12.390  44.960
  184BOLB   C3D 4415  21.420  12.590  44.740
  184BOLB   C4D 4416  21.700  12.890  44.870
  185BOLB   NC1 4417  20.080  13.970  41.570
  185BOLB   PO1 4418  19.650  13.930  41.860
  185BOLB   GL1 4419  19.600  13.580  42.190
  185BOLB   GL2 4420  19.550  13.310  41.990
  185BOLB   C1A 4421  19.780  13.500  42.570
  185BOLB   C2A 4422  19.690  13.180  42.780
  185BOLB   C3A 4423  19.660  12.710  42.750
  185BOLB   C4A 4424  19.730  12.370  42.940
  185BOLB   C1B 4425  19.500  12.960  42.320
  185BOLB   C2B 4426  19.190  12.870  42.780
  185BOLB   C3B 4427  18.920  12.850  43.100
  185BOLB   C4B 4428  18.810  12.870  43.500
  185BOLB   NC2 4429  19.590  10.530  44.820
  185BOLB   PO2 4430  19.560  10.970  44.980
  185BOLB   GL3 4431  19.630  11.070  44.600
  185BOLB   GL4 4432  19.870  10.790  44.480
  185BOLB   C1C 4433  19.500  11.320  44.140
  185BOLB   C2C 4434  19.320  11.490  43.770
  185BOLB   C3C 4435  19.400  11.730  43.370
  185BOLB   C4C 4436  19.590  11.920  43.050
  185BOLB   C1D 4437  19.930  10.420  44.140
  185BOLB   C2D 4438  19.770  10.190  43.750
  185BOLB   C3D 4439  19.810  10.220  43.300
  185BOLB   C4D 4440  19.880  10.250  42.840
  186BOLB   NC1 4441  19.710  15.510  42.570
  186BOLB   PO1 4442  19.500  15.170  42.290
  186BOLB   GL1 4443  19.680  15.000  42.630
  186BOLB   GL2 4444  19.500  14.750  42.700
  186BOLB   C1A 4445  19.670  15.070  43.080
  186BOLB   C2A 4446  19.500  14.910  43.440
  186BOLB   C3A 4447  19.370  14.640  43.780
  186BOLB   C4A 4448  19.020  14.310  43.880
  186BOLB   C1B 4449  19.160  14.830  43.010
  186BOLB   C2B 4450  19.080  14.500  43.360
  186BOLB   C3B 4451  19.010  14.070  43.390
  186BOLB   C4B 4452  18.840  13.740  43.660
  186BOLB   NC2 4453  17.860  12.970  45.350
  186BOLB   PO2 4454  17.690  13.450  45.470
  186BOLB   GL3 4455  17.730  13.760  45.210
  186BOLB   GL4 4456  17.490  13.570  44.960
  186BOLB   C1C 4457  18.060  13.990  44.970
  186BOLB   C2C 4458  18.210  14.270  44.690
  186BOLB   C3C 4459  18.630  14.420  44.580
  186BOLB   C4C 4460  18.730  14.310  44.090
  186BOLB   C1D 4461  17.770  13.650  44.700
  186BOLB   C2D 4462  18.120  13.860  44.430
  186BOLB   C3D 4463  18.240  14.200  44.190
  186BOLB   C4D 4464  18.160  14.450  43.820
  187BOLB   NC1 4465  15.740  13.910  30.530
  187BOLB   PO1 4466  15.820  13.530  30.430
  187BOLB   GL1 4467  15.620  13.110  30.640
  187BOLB   GL2 4468  15.550  12.980  30.990
  187BOLB   C1A 4469  15.410  12.640  30.490
  187BOLB   C2A 4470  15.090  12.390  30.250
  187BOLB   C3A 4471  14.990  12.140  29.970
  187BOLB   C4A 4472  14.740  11.900  29.770
  187BOLB   C1B 4473  15.270  12.630  30.960
  187BOLB   C2B 4474  15.080  12.230  30.750
  187BOLB   C3B 4475  14.810  11.880  30.710
  187BOLB   C4B 4476  14.300  11.730  30.820
  187BOLB   NC2 4477  12.680  10.510  29.830
  187BOLB   PO2 4478  13.090  10.300  29.920
  187BOLB   GL3 4479  13.400  10.540  29.990
  187BOLB   GL4 4480  13.520  10.510  30.240
  187BOLB   C1C 4481  13.500  10.940  29.880
  187BOLB   C2C 4482  13.760  11.180  29.650
  187BOLB   C3C 4483  14.110  11.440  29.590
  187BOLB   C4C 4484  14.310  11.790  29.860
  187BOLB   C1D 4485  13.990  10.760  30.070
  187BOLB   C2D 4486  14.140  11.110  30.020
  187BOLB   C3D 4487  14.540  11.330  30.030
  187BOLB   C4D 4488  14.700  11.700  30.200
  188BOLB   NC1 4489  23.120  14.130  21.340
  188BOLB   PO1 4490  23.450  13.990  21.590
  188BOLB   GL1 4491  23.650  13.870  21.250
  188BOLB   GL2 4492  23.580  14.130  21.070
  188BOLB   C1A 4493  23.670  13.670  20.790
  188BOLB   C2A 4494  23.980  13.490  20.370
  188BOLB   C3A 4495  23.970  13.410  19.930
  188BOLB   C4A 4496  24.120  13.570  19.610
  188BOLB   C1B 4497  23.400  14.070  20.680
  188BOLB   C2B 4498  23.420  14.220  20.220
  188BOLB   C3B 4499  23.080  14.390  19.960
  188BOLB   C4B 4500  22.620  14.280  19.860
  188BOLB   NC2 4501  25.820  12.670  18.320
  188BOLB   PO2 4502  25.910  12.200  18.500
  188BOLB   GL3 4503  25.670  12.490  18.800
  188BOLB   GL4 4504  25.340  12.470  18.740
  188BOLB   C1C 4505  25.570  12.910  18.970
  188BOLB   C2C 4506  25.290  13.210  19.150
  188BOLB   C3C 4507  24.980  13.340  19.390
  188BOLB   C4C 4508  24.530  13.490  19.300
  188BOLB   C1D 4509  25.320  12.550  19.200
  188BOLB   C2D 4510  25.530  12.830  19.430
  188BOLB   C3D 4511  25.340  13.080  19.850
  188BOLB   C4D 4512  25.310  13.510  20.050
  189BOLB   NC1 4513  14.580  17.960  37.560
  189BOLB   PO1 4514  14.370  18.170  37.220
  189BOLB   GL1 4515  14.040  17.950  37.240
  189BOLB   GL2 4516  14.110  17.830  37.600
  189BOLB   C1A 4517  13.720  17.580  37.120
  189BOLB   C2A 4518  13.370  17.530  36.890
  189BOLB   C3A 4519  13.040  17.130  36.970
  189BOLB   C4A 4520  12.570  17.220  37.000
  189BOLB   C1B 4521  13.800  17.630  37.680
  189BOLB   C2B 4522  13.420  17.510  37.850
  189BOLB   C3B 4523  13.040  17.460  37.920
  189BOLB   C4B 4524  12.630  17.400  37.950
  189BOLB   NC2 4525  10.380  16.270  37.450
  189BOLB   PO2 4526  10.610  16.650  37.590
  189BOLB   GL3 4527  10.950  16.910  37.390
  189BOLB   GL4 4528  11.220  16.670  37.370
  189BOLB   C1C 4529  11.280  17.000  37.050
  189BOLB   C2C 4530  11.580  17.170  36.780
  189BOLB   C3C 4531  11.950  17.460  36.530
  189BOLB   C4C 4532  12.340  17.520  36.690
  189BOLB   C1D 4533  11.710  16.740  37.400
  189BOLB   C2D 4534  12.040  16.950  37.230
  189BOLB   C3D 4535  12.010  17.350  37.090
  189BOLB   C4D 4536  11.640  17.620  37.020
  190BOLB   NC1 4537  20.460   9.970  35.240
  190BOLB   PO1 4538  20.180   9.800  34.950
  190BOLB   GL1 4539  19.810   9.410  34.970
  190BOLB   GL2 4540  19.690   9.330  34.770
  190BOLB   C1A 4541  19.440   9.230  35.400
  190BOLB   C2A 4542  18.980   9.030  35.370
  190BOLB   C3A 4543  18.670   8.790  35.210
  190BOLB   C4A 4544  18.310   8.540  35.310
  190BOLB   C1B 4545  19.560   8.980  34.460
  190BOLB   C2B 4546  19.480   8.450  34.410
  190BOLB   C3B 4547  19.300   8.070  34.550
  190BOLB   C4B 4548  19.070   7.920  34.820
  190BOLB   NC2 4549  17.440   6.310  35.150
  190BOLB   PO2 4550  17.830   6.030  35.190
  190BOLB   GL3 4551  17.970   6.430  35.200
  190BOLB   GL4 4552  17.870   6.500  34.860
  190BOLB   C1C 4553  17.880   6.860  35.420
  190BOLB   C2C 4554  17.840   7.330  35.420
  190BOLB   C3C 4555  17.820   7.800  35.630
  190BOLB   C4C 4556  18.020   8.240  35.610
  190BOLB   C1D 4557  17.820   6.960  34.900
  190BOLB   C2D 4558  17.610   7.410  34.920
  190BOLB   C3D 4559  17.370   7.750  34.740
  190BOLB   C4D 4560  17.040   8.040  34.600
  191BOLB   NC1 4561  13.130  21.650  30.230
  191BOLB   PO1 4562  13.080  21.330  30.450
  191BOLB   GL1 4563  12.600  21.250  30.440
  191BOLB   GL2 4564  12.510  21.300  30.780
  191BOLB   C1A 4565  12.210  21.070  30.290
  191BOLB   C2A 4566  11.780  20.890  30.240
  191BOLB   C3A 4567  11.470  20.610  30.290
  191BOLB   C4A 4568  11.220  20.360  30.080
  191BOLB   C1B 4569  12.170  21.570  31.000
  191BOLB   C2B 4570  11.790  21.380  31.300
  191BOLB   C3B 4571  11.350  21.400  31.330
  191BOLB   C4B 4572  11.070  21.720  31.460
  191BOLB   NC2 4573   8.980  20.940  30.190
  191BOLB   PO2 4574   9.030  21.020  30.580
  191BOLB   GL3 4575   9.390  20.880  30.590
  191BOLB   GL4 4576   9.330  20.770  30.910
  191BOLB   C1C 4577   9.870  20.900  30.400
  191BOLB   C2C 4578  10.220  20.740  30.320
  191BOLB   C3C 4579  10.440  20.380  30.220
  191BOLB   C4C 4580  10.840  20.370  30.000
  191BOLB   C1D 4581   9.520  20.330  30.940
  191BOLB   C2D 4582   9.930  20.110  31.150
  191BOLB   C3D 4583  10.350  19.930  31.170
  191BOLB   C4D 4584  10.790  19.810  31.050
  192BOLB   NC1 4585  24.900  12.550  41.530
  192BOLB   PO1 4586  24.770  12.150  41.330
  192BOLB   GL1 4587  24.880  11.970  41.750
  192BOLB   GL2 4588  24.660  11.940  41.960
  192BOLB   C1A 4589  25.260  11.830  42.070
  192BOLB   C2A 4590  25.610  11.620  42.140
  192BOLB   C3A 4591  25.970  11.330  42.290
  192BOLB   C4A 4592  26.160  11.120  42.630
  192BOLB   C1B 4593  24.470  11.870  42.300
  192BOLB   C2B 4594  24.600  11.910  42.730
  192BOLB   C3B 4595  24.930  11.970  42.980
  192BOLB   C4B 4596  25.130  11.580  43.160
  192BOLB   NC2 4597  27.535   8.980  43.650
  192BOLB   PO2 4598  27.215   9.090  43.680
  192BOLB   GL3 4599  27.185   9.470  43.400
  192BOLB   GL4 4600  27.445   9.520  43.280
  192BOLB   C1C 4601  26.855   9.950  43.450
  192BOLB   C2C 4602  26.805  10.340  43.350
  192BOLB   C3C 4603  26.515  10.690  43.210
  192BOLB   C4C 4604  26.430  10.860  42.820
  192BOLB   C1D 4605  27.305   9.890  43.060
  192BOLB   C2D 4606  27.385   9.930  42.670
  192BOLB   C3D 4607  27.375  10.200  42.230
  192BOLB   C4D 4608  27.285   9.890  41.870
  193BOLB   NC1 4609  23.550   8.600  27.450
  193BOLB   PO1 4610  23.920   8.430  27.690
  193BOLB   GL1 4611  23.840   8.090  27.460
  193BOLB   GL2 4612  23.580   8.140  27.180
  193BOLB   C1A 4613  23.640   7.730  27.400
  193BOLB   C2A 4614  23.460   7.300  27.280
  193BOLB   C3A 4615  23.400   6.820  27.300
  193BOLB   C4A 4616  23.200   6.580  26.960
  193BOLB   C1B 4617  23.470   7.820  26.880
  193BOLB   C2B 4618  23.500   7.450  26.800
  193BOLB   C3B 4619  23.260   7.070  26.880
  193BOLB   C4B 4620  22.940   7.100  27.300
  193BOLB   NC2 4621  23.550   4.750  25.060
  193BOLB   PO2 4622  23.260   5.160  25.080
  193BOLB   GL3 4623  23.070   5.390  25.440
  193BOLB   GL4 4624  22.800   5.560  25.390
  193BOLB   C1C 4625  23.120   5.510  25.860
  193BOLB   C2C 4626  23.160   5.820  26.040
  193BOLB   C3C 4627  23.130   6.080  26.270
  193BOLB   C4C 4628  23.240   6.260  26.680
  193BOLB   C1D 4629  22.970   5.940  25.570
  193BOLB   C2D 4630  23.010   6.260  25.710
  193BOLB   C3D 4631  23.280   6.470  25.990
  193BOLB   C4D 4632  23.670   6.710  26.010
  194BOLB   NC1 4633  14.660  23.230  33.490
  194BOLB   PO1 4634  14.220  23.420  33.720
  194BOLB   GL1 4635  13.860  23.600  33.720
  194BOLB   GL2 4636  13.740  23.530  33.390
  194BOLB   C1A 4637  13.510  23.930  33.550
  194BOLB   C2A 4638  13.000  23.890  33.580
  194BOLB   C3A 4639  12.610  23.680  33.360
  194BOLB   C4A 4640  12.180  23.890  33.500
  194BOLB   C1B 4641  13.410  23.240  33.440
  194BOLB   C2B 4642  12.980  23.400  33.390
  194BOLB   C3B 4643  12.460  23.220  33.410
  194BOLB   C4B 4644  12.180  23.460  33.210
  194BOLB   NC2 4645   9.800  24.990  33.160
  194BOLB   PO2 4646  10.100  24.800  32.800
  194BOLB   GL3 4647  10.480  24.560  32.850
  194BOLB   GL4 4648  10.560  24.230  32.890
  194BOLB   C1C 4649  10.950  24.560  32.790
  194BOLB   C2C 4650  11.280  24.430  32.970
  194BOLB   C3C 4651  11.610  24.330  33.230
  194BOLB   C4C 4652  11.840  24.090  33.640
  194BOLB   C1D 4653  10.830  24.070  32.800
  194BOLB   C2D 4654  11.190  24.060  32.670
  194BOLB   C3D 4655  11.630  24.120  32.720
  194BOLB   C4D 4656  12.020  24.100  33.020
  195BOLB   NC1 4657  28.135  13.320  19.340
  195BOLB   PO1 4658  27.995  13.150  19.670
  195BOLB   GL1 4659  27.875  13.540  19.910
  195BOLB   GL2 4660  27.565  13.540  19.940
  195BOLB   C1A 4661  27.775  13.900  20.300
  195BOLB   C2A 4662  27.355  14.060  20.390
  195BOLB   C3A 4663  26.935  14.130  20.450
  195BOLB   C4A 4664  26.715  14.480  20.690
  195BOLB   C1B 4665  27.545  13.440  20.340
  195BOLB   C2B 4666  27.535  13.660  20.730
  195BOLB   C3B 4667  27.275  13.900  21.020
  195BOLB   C4B 4668  26.995  14.190  21.030
  195BOLB   NC2 4669  27.975  15.430  19.330
  195BOLB   PO2 4670  27.665  15.480  19.080
  195BOLB   GL3 4671  27.245  15.430  19.300
  195BOLB   GL4 4672  27.285  15.520  19.660
  195BOLB   C1C 4673  27.035  15.190  19.460
  195BOLB   C2C 4674  26.815  15.330  19.880
  195BOLB   C3C 4675  26.585  15.220  20.310
  195BOLB   C4C 4676  26.445  14.810  20.440
  195BOLB   C1D 4677  27.325  15.070  19.920
  195BOLB   C2D 4678  27.335  14.650  20.010
  195BOLB   C3D 4679  27.475  14.260  20.010
  195BOLB   C4D 4680  27.125  13.950  19.960
  196BOLB   NC1 4681  16.700  12.990  37.940
  196BOLB   PO1 4682  16.780  13.290  38.320
  196BOLB   GL1 4683  16.400  13.230  38.510
  196BOLB   GL2 4684  16.350  13.350  38.770
  196BOLB   C1A 4685  16.100  12.880  38.710
  196BOLB   C2A 4686  15.600  12.830  38.760
  196BOLB   C3A 4687  15.230  12.850  38.820
  196BOLB   C4A 4688  14.910  12.700  38.840
  196BOLB   C1B 4689  15.900  13.300  38.840
  196BOLB   C2B 4690  15.560  13.360  38.600
  196BOLB   C3B 4691  15.160  13.330  38.620
  196BOLB   C4B 4692  14.880  13.180  38.890
  196BOLB   NC2 4693  13.130  10.890  39.130
  196BOLB   PO2 4694  12.890  10.980  38.800
  196BOLB   GL3 4695  13.240  11.320  38.720
  196BOLB   GL4 4696  13.470  11.100  38.810
  196BOLB   C1C 4697  13.540  11.600  38.930
  196BOLB   C2C 4698  13.950  11.810  39.020
  196BOLB   C3C 4699  14.420  11.940  39.000
  196BOLB   C4C 4700  14.600  12.320  38.740
  196BOLB   C1D 4701  13.980  11.350  38.820
  196BOLB   C2D 4702  14.360  11.500  38.710
  196BOLB   C3D 4703  14.720  11.710  38.640
  196BOLB   C4D 4704  15.030  11.960  38.630
  197BOLB   NC1 4705  26.455  17.100  30.970
  197BOLB   PO1 4706  26.805  17.040  30.890
  197BOLB   GL1 4707  26.875  17.410  31.030
  197BOLB   GL2 4708  27.165  17.430  31.090
  197BOLB   C1A 4709  26.845  17.770  30.830
  197BOLB   C2A 4710  27.005  18.190  30.900
  197BOLB   C3A 4711  27.205  18.600  30.740
  197BOLB   C4A 4712  26.895  18.930  30.440
  197BOLB   C1B 4713  27.315  17.900  31.060
  197BOLB   C2B 4714  27.605  18.410  30.990
  197BOLB   C3B 4715  27.655  18.780  30.930
  197BOLB   C4B 4716  27.585  19.090  30.670
  197BOLB   NC2 4717  25.830  16.380  29.700
  197BOLB   PO2 4718  25.880  16.830  29.730
  197BOLB   GL3 4719  25.920  17.270  29.770
  197BOLB   GL4 4720  25.810  17.370  30.060
  197BOLB   C1C 4721  26.330  17.450  29.700
  197BOLB   C2C 4722  26.565  17.830  29.910
  197BOLB   C3C 4723  26.545  18.290  29.980
  197BOLB   C4C 4724  26.565  18.700  30.190
  197BOLB   C1D 4725  25.940  17.770  29.780
  197BOLB   C2D 4726  26.210  18.110  29.680
  197BOLB   C3D 4727  26.200  18.530  29.780
  197BOLB   C4D 4728  26.370  18.880  29.710
  198BOLB   NC1 4729  13.110  19.800  33.190
  198BOLB   PO1 4730  13.210  19.440  33.070
  198BOLB   GL1 4731  12.780  19.380  33.120
  198BOLB   GL2 4732  12.650  19.630  32.940
  198BOLB   C1A 4733  12.410  19.180  33.220
  198BOLB   C2A 4734  11.910  19.150  33.290
  198BOLB   C3A 4735  11.700  18.850  33.190
  198BOLB   C4A 4736  11.550  18.830  33.630
  198BOLB   C1B 4737  12.340  19.400  32.840
  198BOLB   C2B 4738  12.030  19.050  32.720
  198BOLB   C3B 4739  11.600  19.100  32.790
  198BOLB   C4B 4740  11.190  19.180  32.960
  198BOLB   NC2 4741   9.360  18.830  34.250
  198BOLB   PO2 4742   9.430  18.670  33.740
  198BOLB   GL3 4743   9.820  18.850  33.900
  198BOLB   GL4 4744   9.830  19.150  34.040
  198BOLB   C1C 4745  10.230  18.890  33.890
  198BOLB   C2C 4746  10.660  18.970  34.020
  198BOLB   C3C 4747  11.060  18.950  34.330
  198BOLB   C4C 4748  11.450  19.000  34.000
  198BOLB   C1D 4749  10.200  19.310  34.150
  198BOLB   C2D 4750  10.450  19.390  33.780
  198BOLB   C3D 4751  10.720  19.160  33.600
  198BOLB   C4D 4752  11.030  18.760  33.760
  199BOLB   NC1 4753  27.475  13.120  25.500
  199BOLB   PO1 4754  27.595  12.720  25.300
  199BOLB   GL1 4755  27.795  12.670  24.890
  199BOLB   GL2 4756  27.675  12.840  24.710
  199BOLB   C1A 4757  28.165  12.630  24.750
  199BOLB   C2A 4758  28.475  12.580  24.450
  199BOLB   C3A 4759  28.805  12.660  24.270
  199BOLB   C4A 4760  29.075  12.800  23.900
  199BOLB   C1B 4761  28.075  13.040  24.500
  199BOLB   C2B 4762  28.515  13.110  24.330
  199BOLB   C3B 4763  28.965  13.240  24.250
  199BOLB   C4B 4764  29.245  13.450  24.170
  199BOLB   NC2 4765  30.775  11.060  22.850
  199BOLB   PO2 4766  30.465  11.460  22.810
  199BOLB   GL3 4767  30.435  11.850  23.100
  199BOLB   GL4 4768  30.455  11.730  23.460
  199BOLB   C1C 4769  30.225  12.130  23.070
  199BOLB   C2C 4770  29.725  12.230  23.230
  199BOLB   C3C 4771  29.715  12.590  23.460
  199BOLB   C4C 4772  29.495  12.800  23.650
  199BOLB   C1D 4773  30.045  11.680  23.350
  199BOLB   C2D 4774  29.705  11.810  23.600
  199BOLB   C3D 4775  29.345  12.010  23.630
  199BOLB   C4D 4776  29.055  12.410  23.540
  200BOLB   NC1 4777  13.920  20.050  32.560
  200BOLB   PO1 4778  13.560  20.110  32.430
  200BOLB   GL1 4779  13.270  20.260  32.700
  200BOLB   GL2 4780  12.980  20.030  32.760
  200BOLB   C1A 4781  12.790  20.480  32.680
  200BOLB   C2A 4782  12.440  20.600  32.830
  200BOLB   C3A 4783  12.070  20.540  32.860
  200BOLB   C4A 4784  11.650  20.680  32.470
  200BOLB   C1B 4785  12.560  20.110  32.840
  200BOLB   C2B 4786  12.170  19.980  32.910
  200BOLB   C3B 4787  11.780  20.010  32.900
  200BOLB   C4B 4788  11.520  20.370  32.810
  200BOLB   NC2 4789   9.380  20.590  32.250
  200BOLB   PO2 4790   9.440  20.900  32.730
  200BOLB   GL3 4791   9.890  20.980  32.760
  200BOLB   GL4 4792  10.100  21.190  32.840
  200BOLB   C1C 4793  10.190  21.060  32.360
  200BOLB   C2C 4794  10.590  20.950  32.280
  200BOLB   C3C 4795  11.080  20.810  32.160
  200BOLB   C4C 4796  11.430  20.750  32.140
  200BOLB   C1D 4797  10.520  21.260  32.750
  200BOLB   C2D 4798  10.950  21.260  32.660
  200BOLB   C3D 4799  11.260  21.240  32.380
  200BOLB   C4D 4800  11.510  21.290  32.110
  201BOLB   NC1 4801  15.910  22.210  36.410
  201BOLB   PO1 4802  15.470  22.310  36.570
  201BOLB   GL1 4803  15.060  22.580  36.590
  201BOLB   GL2 4804  14.710  22.450  36.600
  201BOLB   C1A 4805  14.790  22.980  36.590
  201BOLB   C2A 4806  14.550  23.310  36.710
  201BOLB   C3A 4807  14.360  23.740  36.740
  201BOLB   C4A 4808  13.860  23.750  36.860
  201BOLB   C1B 4809  14.410  22.490  36.230
  201BOLB   C2B 4810  14.070  22.660  36.330
  201BOLB   C3B 4811  13.860  22.660  36.690
  201BOLB   C4B 4812  13.700  23.130  36.730
  201BOLB   NC2 4813  11.990  23.890  38.220
  201BOLB   PO2 4814  12.250  24.180  38.550
  201BOLB   GL3 4815  12.480  24.090  38.020
  201BOLB   GL4 4816  12.710  24.190  37.820
  201BOLB   C1C 4817  12.580  23.700  37.860
  201BOLB   C2C 4818  12.650  23.550  37.460
  201BOLB   C3C 4819  12.940  23.590  37.150
  201BOLB   C4C 4820  13.440  23.640  37.050
  201BOLB   C1D 4821  13.040  23.920  37.900
  201BOLB   C2D 4822  13.440  23.820  38.090
  201BOLB   C3D 4823  13.830  23.730  38.120
  201BOLB   C4D 4824  13.920  23.290  38.280
  202BOLB   NC1 4825  17.420  12.000  34.120
  202BOLB   PO1 4826  16.960  12.080  33.970
  202BOLB   GL1 4827  16.690  11.820  34.190
  202BOLB   GL2 4828  16.420  12.030  34.120
  202BOLB   C1A 4829  16.320  11.730  34.470
  202BOLB   C2A 4830  15.990  11.670  34.730
  202BOLB   C3A 4831  15.700  11.360  34.690
  202BOLB   C4A 4832  15.240  11.350  34.780
  202BOLB   C1B 4833  16.060  11.790  34.040
  202BOLB   C2B 4834  15.720  11.430  34.180
  202BOLB   C3B 4835  15.360  11.200  34.290
  202BOLB   C4B 4836  15.270  10.880  34.560
  202BOLB   NC2 4837  12.780  10.420  35.330
  202BOLB   PO2 4838  12.520  10.750  35.180
  202BOLB   GL3 4839  12.900  10.920  35.160
  202BOLB   GL4 4840  13.040  10.820  35.450
  202BOLB   C1C 4841  13.330  11.090  35.030
  202BOLB   C2C 4842  13.810  11.300  34.880
  202BOLB   C3C 4843  14.280  11.180  34.870
  202BOLB   C4C 4844  14.820  11.260  34.720
  202BOLB   C1D 4845  13.090  11.270  35.480
  202BOLB   C2D 4846  13.260  11.550  35.680
  202BOLB   C3D 4847  13.370  11.990  35.900
  202BOLB   C4D 4848  13.660  12.260  35.730
  203BOLB   NC1 4849  13.410  20.850  27.570
  203BOLB   PO1 4850  13.190  21.020  27.310
  203BOLB   GL1 4851  12.900  21.320  27.180
  203BOLB   GL2 4852  12.750  21.030  27.050
  203BOLB   C1A 4853  12.560  21.590  27.160
  203BOLB   C2A 4854  12.200  21.860  27.250
  203BOLB   C3A 4855  11.790  22.090  27.470
  203BOLB   C4A 4856  11.670  22.310  27.720
  203BOLB   C1B 4857  12.320  21.110  27.160
  203BOLB   C2B 4858  11.900  21.170  27.530
  203BOLB   C3B 4859  11.720  21.160  27.980
  203BOLB   C4B 4860  11.610  21.410  28.250
  203BOLB   NC2 4861  10.110  23.550  28.310
  203BOLB   PO2 4862   9.860  23.550  28.750
  203BOLB   GL3 4863  10.310  23.530  28.870
  203BOLB   GL4 4864  10.510  23.510  28.570
  203BOLB   C1C 4865  10.600  23.130  28.860
  203BOLB   C2C 4866  10.830  23.080  28.510
  203BOLB   C3C 4867  11.260  23.010  28.190
  203BOLB   C4C 4868  11.470  22.680  28.080
  203BOLB   C1D 4869  10.860  23.550  28.800
  203BOLB   C2D 4870  11.230  23.410  29.030
  203BOLB   C3D 4871  11.660  23.450  29.170
  203BOLB   C4D 4872  12.130  23.610  29.250
  204BOLB   NC1 4873  16.720  17.170  40.700
  204BOLB   PO1 4874  16.330  17.230  40.530
  204BOLB   GL1 4875  16.320  17.310  40.900
  204BOLB   GL2 4876  16.310  17.050  41.120
  204BOLB   C1A 4877  15.960  17.350  41.130
  204BOLB   C2A 4878  15.630  17.390  41.420
  204BOLB   C3A 4879  15.230  17.280  41.550
  204BOLB   C4A 4880  14.870  17.450  41.660
  204BOLB   C1B 4881  16.040  16.820  41.350
  204BOLB   C2B 4882  15.620  16.910  41.440
  204BOLB   C3B 4883  15.240  16.800  41.670
  204BOLB   C4B 4884  14.870  16.920  41.730
  204BOLB   NC2 4885  12.230  17.950  42.190
  204BOLB   PO2 4886  12.530  18.440  42.310
  204BOLB   GL3 4887  12.840  18.310  42.140
  204BOLB   GL4 4888  13.100  18.480  42.060
  204BOLB   C1C 4889  13.210  17.970  42.200
  204BOLB   C2C 4890  13.620  17.820  42.120
  204BOLB   C3C 4891  14.030  17.780  41.980
  204BOLB   C4C 4892  14.420  17.660  41.920
  204BOLB   C1D 4893  13.480  18.290  41.830
  204BOLB   C2D 4894  13.870  18.190  41.690
  204BOLB   C3D 4895  14.130  18.440  41.420
  204BOLB   C4D 4896  14.290  18.810  41.480
  205BOLB   NC1 4897  29.615  12.860  35.540
  205BOLB   PO1 4898  29.535  12.540  35.710
  205BOLB   GL1 4899  29.995  12.440  35.800
  205BOLB   GL2 4900  30.165  12.370  35.540
  205BOLB   C1A 4901  30.325  12.640  35.910
  205BOLB   C2A 4902  30.735  12.750  35.950
  205BOLB   C3A 4903  31.075  13.060  36.030
  205BOLB   C4A 4904  31.515  13.200  36.280
  205BOLB   C1B 4905  30.675  12.300  35.570
  205BOLB   C2B 4906  30.985  12.400  35.710
  205BOLB   C3B 4907  31.435  12.500  35.720
  205BOLB   C4B 4908  31.635  12.630  35.380
  205BOLB   NC2 4909  34.345  13.230  36.840
  205BOLB   PO2 4910  33.845  13.060  36.710
  205BOLB   GL3 4911  33.425  12.900  36.660
  205BOLB   GL4 4912  33.345  12.660  36.780
  205BOLB   C1C 4913  33.035  13.200  36.790
  205BOLB   C2C 4914  32.715  13.250  36.480
  205BOLB   C3C 4915  32.265  13.250  36.450
  205BOLB   C4C 4916  31.855  13.210  36.450
  205BOLB   C1D 4917  33.155  12.470  36.440
  205BOLB   C2D 4918  32.805  12.370  36.080
  205BOLB   C3D 4919  32.735  12.440  35.510
  205BOLB   C4D 4920  32.535  12.590  35.110
  206BOLB   NC1 4921  28.115  22.120  25.470
  206BOLB   PO1 4922  28.215  21.720  25.440
  206BOLB   GL1 4923  28.005  21.450  25.520
  206BOLB   GL2 4924  27.925  21.290  25.220
  206BOLB   C1A 4925  27.625  21.110  25.570
  206BOLB   C2A 4926  27.185  21.020  25.600
  206BOLB   C3A 4927  26.855  20.750  25.680
  206BOLB   C4A 4928  26.835  20.380  25.470
  206BOLB   C1B 4929  27.455  21.470  25.070
  206BOLB   C2B 4930  27.075  21.360  25.240
  206BOLB   C3B 4931  26.665  21.070  25.350
  206BOLB   C4B 4932  26.390  21.050  25.650
  206BOLB   NC2 4933  28.975  20.110  23.770
  206BOLB   PO2 4934  28.655  20.350  23.950
  206BOLB   GL3 4935  28.345  20.280  24.280
  206BOLB   GL4 4936  28.195  20.570  24.350
  206BOLB   C1C 4937  28.105  20.070  24.530
  206BOLB   C2C 4938  27.865  19.760  24.870
  206BOLB   C3C 4939  27.535  19.810  25.180
  206BOLB   C4C 4940  27.205  20.090  25.440
  206BOLB   C1D 4941  28.095  20.470  24.760
  206BOLB   C2D 4942  27.705  20.630  25.000
  206BOLB   C3D 4943  27.465  20.930  25.080
  206BOLB   C4D 4944  27.135  21.090  24.810
  207BOLB   NC1 4945  21.190   9.720  24.720
  207BOLB   PO1 4946  21.520   9.550  25.000
  207BOLB   GL1 4947  21.580   9.380  24.710
  207BOLB   GL2 4948  21.430   9.110  24.650
  207BOLB   C1A 4949  21.940   9.140  24.400
  207BOLB   C2A 4950  22.180   8.760  24.310
  207BOLB   C3A 4951  22.290   8.410  24.150
  207BOLB   C4A 4952  22.310   7.940  24.470
  207BOLB   C1B 4953  21.660   8.740  24.290
  207BOLB   C2B 4954  21.870   8.330  24.440
  207BOLB   C3B 4955  22.260   8.360  24.650
  207BOLB   C4B 4956  22.680   8.290  24.780
  207BOLB   NC2 4957  21.630   6.410  22.480
  207BOLB   PO2 4958  21.570   6.370  22.950
  207BOLB   GL3 4959  21.410   6.600  23.160
  207BOLB   GL4 4960  21.200   6.490  23.450
  207BOLB   C1C 4961  21.610   6.940  23.350
  207BOLB   C2C 4962  21.770   7.030  23.720
  207BOLB   C3C 4963  22.110   7.220  24.030
  207BOLB   C4C 4964  22.270   7.510  24.200
  207BOLB   C1D 4965  21.550   6.570  23.700
  207BOLB   C2D 4966  21.990   6.650  23.940
  207BOLB   C3D 4967  22.350   6.720  24.170
  207BOLB   C4D 4968  22.520   7.070  24.360
  208BOLB   NC1 4969  15.340  15.920  36.790
  208BOLB   PO1 4970  14.990  15.630  36.590
  208BOLB   GL1 4971  14.630  15.470  36.850
  208BOLB   GL2 4972  14.380  15.770  36.950
  208BOLB   C1A 4973  14.180  15.200  36.770
  208BOLB   C2A 4974  13.770  15.070  36.770
  208BOLB   C3A 4975  13.470  14.710  36.580
  208BOLB   C4A 4976  13.370  14.250  36.770
  208BOLB   C1B 4977  13.950  15.580  37.020
  208BOLB   C2B 4978  13.400  15.460  37.060
  208BOLB   C3B 4979  13.050  15.520  37.160
  208BOLB   C4B 4980  12.630  15.440  37.090
  208BOLB   NC2 4981  11.070  12.470  37.330
  208BOLB   PO2 4982  11.370  12.840  37.440
  208BOLB   GL3 4983  11.730  13.090  37.400
  208BOLB   GL4 4984  11.730  13.130  37.040
  208BOLB   C1C 4985  12.170  13.190  37.360
  208BOLB   C2C 4986  12.510  13.520  37.490
  208BOLB   C3C 4987  12.850  13.610  37.170
  208BOLB   C4C 4988  13.040  14.010  36.940
  208BOLB   C1D 4989  12.160  13.280  36.800
  208BOLB   C2D 4990  12.520  13.360  36.710
  208BOLB   C3D 4991  12.910  13.250  36.750
  208BOLB   C4D 4992  13.300  13.410  36.780
  209BOLB   NC1 4993  16.730   1.980  36.830
  209BOLB   PO1 4994  17.080   1.910  37.130
  209BOLB   GL1 4995  16.870   1.550  37.150
  209BOLB   GL2 4996  16.680   1.410  37.380
  209BOLB   C1A 4997  17.040   1.150  36.980
  209BOLB   C2A 4998  17.010   0.770  36.630
  209BOLB   C3A 4999  17.130   0.500  36.250
  209BOLB   C4A 5000  17.170   0.480  35.840
  209BOLB   C1B 5001  16.600   0.990  37.180
  209BOLB   C2B 5002  16.410   0.560  37.230
  209BOLB   C3B 5003  16.560   0.270  37.140
  209BOLB   C4B 5004  16.750  26.430  36.820
  209BOLB   NC2 5005  16.150   2.350  35.170
  209BOLB   PO2 5006  15.720   2.260  34.980
  209BOLB   GL3 5007  16.030   1.940  34.940
  209BOLB   GL4 5008  16.320   2.140  34.770
  209BOLB   C1C 5009  16.190   1.540  35.090
  209BOLB   C2C 5010  16.400   1.140  35.200
  209BOLB   C3C 5011  16.600   0.780  35.260
  209BOLB   C4C 5012  17.030   0.720  35.490
  209BOLB   C1D 5013  16.640   1.750  34.810
  209BOLB   C2D 5014  16.610   1.450  34.850
  209BOLB   C3D 5015  16.720   1.060  34.830
  209BOLB   C4D 5016  17.000   0.680  34.990
  210BOLB   NC1 5017  23.340  13.490  21.550
  210BOLB   PO1 5018  23.050  13.590  21.670
  210BOLB   GL1 5019  23.000  13.560  21.200
  210BOLB   GL2 5020  23.190  13.650  20.930
  210BOLB   C1A 5021  22.680  13.710  20.840
  210BOLB   C2A 5022  22.720  13.670  20.360
  210BOLB   C3A 5023  22.800  13.790  19.920
  210BOLB   C4A 5024  22.750  13.850  19.550
  210BOLB   C1B 5025  23.000  13.350  20.670
  210BOLB   C2B 5026  22.920  13.200  20.250
  210BOLB   C3B 5027  22.800  13.280  19.890
  210BOLB   C4B 5028  22.520  12.990  19.810
  210BOLB   NC2 5029  22.890  13.630  17.250
  210BOLB   PO2 5030  22.710  13.240  17.240
  210BOLB   GL3 5031  22.870  13.350  17.640
  210BOLB   GL4 5032  22.510  13.290  17.740
  210BOLB   C1C 5033  22.920  13.420  18.030
  210BOLB   C2C 5034  22.930  13.450  18.410
  210BOLB   C3C 5035  22.820  13.680  18.770
  210BOLB   C4C 5036  22.810  13.640  19.230
  210BOLB   C1D 5037  22.430  13.310  18.190
  210BOLB   C2D 5038  22.340  13.260  18.600
  210BOLB   C3D 5039  22.390  13.520  18.880
  210BOLB   C4D 5040  22.420  13.880  19.140
  211BOLB   NC1 5041  20.920   9.990  25.420
  211BOLB   PO1 5042  20.740   9.850  25.800
  211BOLB   GL1 5043  20.690   9.490  25.770
  211BOLB   GL2 5044  20.740   9.240  26.040
  211BOLB   C1A 5045  20.440   9.200  25.580
  211BOLB   C2A 5046  20.130   8.990  25.510
  211BOLB   C3A 5047  19.920   8.660  25.360
  211BOLB   C4A 5048  19.490   8.590  25.210
  211BOLB   C1B 5049  20.590   8.840  25.860
  211BOLB   C2B 5050  20.580   8.610  25.470
  211BOLB   C3B 5051  20.700   8.250  25.200
  211BOLB   C4B 5052  20.840   8.040  24.800
  211BOLB   NC2 5053  17.950   7.010  24.880
  211BOLB   PO2 5054  17.910   7.200  24.410
  211BOLB   GL3 5055  17.880   7.550  24.640
  211BOLB   GL4 5056  18.160   7.700  24.390
  211BOLB   C1C 5057  17.970   7.950  24.870
  211BOLB   C2C 5058  18.180   8.330  24.930
  211BOLB   C3C 5059  18.570   8.480  25.080
  211BOLB   C4C 5060  19.060   8.560  25.090
  211BOLB   C1D 5061  18.380   8.020  24.640
  211BOLB   C2D 5062  18.670   8.010  24.970
  211BOLB   C3D 5063  18.980   8.050  25.110
  211BOLB   C4D 5064  19.360   7.900  25.020
  212BOLB   NC1 5065  29.845  13.120  34.830
  212BOLB   PO1 5066  29.685  13.450  34.600
  212BOLB   GL1 5067  30.085  13.530  34.560
  212BOLB   GL2 5068  30.135  13.500  34.190
  212BOLB   C1A 5069  30.385  13.570  34.850
  212BOLB   C2A 5070  30.605  14.020  35.030
  212BOLB   C3A 5071  30.975  14.030  35.250
  212BOLB   C4A 5072  31.405  14.000  35.380
  212BOLB   C1B 5073  30.525  13.350  34.250
  212BOLB   C2B 5074  30.865  13.380  34.450
  212BOLB   C3B 5075  31.265  13.450  34.640
  212BOLB   C4B 5076  31.155  13.670  34.910
  212BOLB   NC2 5077  34.145  14.810  35.940
  212BOLB   PO2 5078  33.555  14.820  35.960
  212BOLB   GL3 5079  33.155  14.710  36.060
  212BOLB   GL4 5080  33.105  14.370  36.230
  212BOLB   C1C 5081  32.785  14.720  35.890
  212BOLB   C2C 5082  32.375  14.530  35.870
  212BOLB   C3C 5083  32.095  14.390  35.670
  212BOLB   C4C 5084  31.835  14.060  35.500
  212BOLB   C1D 5085  32.905  14.210  35.760
  212BOLB   C2D 5086  32.525  14.100  35.710
  212BOLB   C3D 5087  32.295  13.740  35.710
  212BOLB   C4D 5088  31.925  13.570  35.530
  213BOLB   NC1 5089  23.590   8.180  36.330
  213BOLB   PO1 5090  23.810   7.980  36.100
  213BOLB   GL1 5091  23.820   7.590  36.290
  213BOLB   GL2 5092  23.550   7.330  36.280
  213BOLB   C1A 5093  24.160   7.530  36.620
  213BOLB   C2A 5094  24.140   7.200  36.940
  213BOLB   C3A 5095  23.970   6.880  37.160
  213BOLB   C4A 5096  23.880   6.450  37.260
  213BOLB   C1B 5097  23.600   6.900  36.410
  213BOLB   C2B 5098  23.780   6.570  36.370
  213BOLB   C3B 5099  24.070   6.300  36.390
  213BOLB   C4B 5100  24.060   5.880  36.610
  213BOLB   NC2 5101  23.680   4.310  37.410
  213BOLB   PO2 5102  23.820   4.240  37.890
  213BOLB   GL3 5103  23.810   4.690  37.860
  213BOLB   GL4 5104  23.740   4.890  37.560
  213BOLB   C1C 5105  23.880   5.060  37.960
  213BOLB   C2C 5106  23.920   5.550  37.850
  213BOLB   C3C 5107  24.200   5.770  37.700
  213BOLB   C4C 5108  24.050   6.180  37.460
  213BOLB   C1D 5109  23.720   5.260  37.420
  213BOLB   C2D 5110  23.650   5.710  37.510
  213BOLB   C3D 5111  23.530   6.200  37.540
  213BOLB   C4D 5112  23.430   6.560  37.280
  214BOLB   NC1 5113  18.230  11.910  29.540
  214BOLB   PO1 5114  17.790  11.650  29.340
  214BOLB   GL1 5115  17.440  11.420  29.250
  214BOLB   GL2 5116  17.140  11.610  29.370
  214BOLB   C1A 5117  17.210  11.200  28.990
  214BOLB   C2A 5118  16.800  10.970  28.990
  214BOLB   C3A 5119  16.560  10.730  28.710
  214BOLB   C4A 5120  16.190  10.600  28.510
  214BOLB   C1B 5121  16.770  11.370  29.320
  214BOLB   C2B 5122  16.310  11.100  29.330
  214BOLB   C3B 5123  16.240  10.760  29.170
  214BOLB   C4B 5124  16.110  10.270  29.110
  214BOLB   NC2 5125  13.850   9.320  28.250
  214BOLB   PO2 5126  14.210   9.310  27.930
  214BOLB   GL3 5127  14.660   9.350  28.020
  214BOLB   GL4 5128  14.940   9.160  28.110
  214BOLB   C1C 5129  14.900   9.750  27.950
  214BOLB   C2C 5130  15.170  10.030  28.220
  214BOLB   C3C 5131  15.550  10.160  28.090
  214BOLB   C4C 5132  15.860  10.420  28.210
  214BOLB   C1D 5133  15.300   9.440  28.060
  214BOLB   C2D 5134  15.710   9.690  28.060
  214BOLB   C3D 5135  16.040   9.940  28.070
  214BOLB   C4D 5136  16.110  10.260  27.730
  215BOLB   NC1 5137  14.380  17.540  36.980
  215BOLB   PO1 5138  14.440  17.570  37.350
  215BOLB   GL1 5139  14.110  17.260  37.500
  215BOLB   GL2 5140  14.220  16.990  37.580
  215BOLB   C1A 5141  13.790  17.170  37.740
  215BOLB   C2A 5142  13.470  16.940  37.690
  215BOLB   C3A 5143  13.110  16.950  37.640
  215BOLB   C4A 5144  12.800  17.280  37.490
  215BOLB   C1B 5145  13.810  16.900  37.300
  215BOLB   C2B 5146  13.510  17.170  37.270
  215BOLB   C3B 5147  13.270  17.390  37.380
  215BOLB   C4B 5148  12.940  17.590  37.160
  215BOLB   NC2 5149  10.120  17.540  38.360
  215BOLB   PO2 5150  10.390  17.150  38.240
  215BOLB   GL3 5151  10.840  17.210  38.300
  215BOLB   GL4 5152  11.080  17.380  37.980
  215BOLB   C1C 5153  11.220  17.190  38.410
  215BOLB   C2C 5154  11.660  17.160  38.170
  215BOLB   C3C 5155  12.020  17.200  37.870
  215BOLB   C4C 5156  12.320  17.280  37.510
  215BOLB   C1D 5157  11.480  17.560  37.950
  215BOLB   C2D 5158  11.800  17.830  37.920
  215BOLB   C3D 5159  12.170  18.050  37.930
  215BOLB   C4D 5160  12.380  18.360  37.820
  216BOLB   NC1 5161  16.490  21.670  38.370
  216BOLB   PO1 5162  16.180  21.960  38.500
  216BOLB   GL1 5163  16.060  22.280  38.790
  216BOLB   GL2 5164  15.790  22.360  38.780
  216BOLB   C1A 5165  15.980  22.410  39.210
  216BOLB   C2A 5166  15.600  22.560  39.440
  216BOLB   C3A 5167  15.280  22.810  39.480
  216BOLB   C4A 5168  15.100  23.030  39.210
  216BOLB   C1B 5169  15.510  22.280  39.040
  216BOLB   C2B 5170  15.170  22.380  39.370
  216BOLB   C3B 5171  14.980  22.450  39.820
  216BOLB   C4B 5172  14.480  22.370  39.750
  216BOLB   NC2 5173  13.000  24.140  39.370
  216BOLB   PO2 5174  13.370  24.360  39.240
  216BOLB   GL3 5175  13.530  24.130  39.040
  216BOLB   GL4 5176  13.870  24.270  39.250
  216BOLB   C1C 5177  13.880  24.060  38.640
  216BOLB   C2C 5178  14.160  23.840  38.580
  216BOLB   C3C 5179  14.410  23.590  38.750
  216BOLB   C4C 5180  14.840  23.470  39.050
  216BOLB   C1D 5181  13.950  24.550  38.850
  216BOLB   C2D 5182  13.720  24.540  38.520
  216BOLB   C3D 5183  13.870  24.230  38.150
  216BOLB   C4D 5184  14.070  23.980  37.710
  217BOLB   NC1 5185  14.660  16.170  34.410
  217BOLB   PO1 5186  14.530  16.190  34.810
  217BOLB   GL1 5187  14.190  15.890  34.690
  217BOLB   GL2 5188  13.850  15.940  34.510
  217BOLB   C1A 5189  14.020  15.480  34.750
  217BOLB   C2A 5190  13.580  15.240  34.660
  217BOLB   C3A 5191  13.150  15.120  34.520
  217BOLB   C4A 5192  12.750  15.240  34.410
  217BOLB   C1B 5193  13.490  16.060  34.720
  217BOLB   C2B 5194  13.080  16.020  34.890
  217BOLB   C3B 5195  12.710  15.880  35.120
  217BOLB   C4B 5196  12.430  15.630  35.360
  217BOLB   NC2 5197  11.090  14.440  34.450
  217BOLB   PO2 5198  10.760  14.300  34.100
  217BOLB   GL3 5199  10.930  14.700  34.040
  217BOLB   GL4 5200  10.820  14.890  33.720
  217BOLB   C1C 5201  11.250  14.950  34.180
  217BOLB   C2C 5202  11.570  15.060  33.980
  217BOLB   C3C 5203  11.960  14.950  34.040
  217BOLB   C4C 5204  12.250  15.210  34.260
  217BOLB   C1D 5205  10.870  15.190  33.920
  217BOLB   C2D 5206  11.210  15.420  33.850
  217BOLB   C3D 5207  11.470  15.790  33.660
  217BOLB   C4D 5208  11.580  16.210  33.600
  218BOLB   NC1 5209  21.360  23.520  36.630
  218BOLB   PO1 5210  21.140  23.920  36.460
  218BOLB   GL1 5211  21.330  24.130  36.660
  218BOLB   GL2 5212  21.540  24.290  36.390
  218BOLB   C1A 5213  21.550  24.520  36.820
  218BOLB   C2A 5214  21.870  24.770  36.500
  218BOLB   C3A 5215  22.120  25.060  36.490
  218BOLB   C4A 5216  22.440  25.390  36.540
  218BOLB   C1B 5217  21.440  24.760  36.070
  218BOLB   C2B 5218  21.370  25.190  36.140
  218BOLB   C3B 5219  21.280  25.660  36.220
  218BOLB   C4B 5220  21.440  26.010  36.230
  218BOLB   NC2 5221  24.300   0.450  37.270
  218BOLB   PO2 5222  24.280   0.650  36.960
  218BOLB   GL3 5223  24.000   0.340  36.800
  218BOLB   GL4 5224  24.010   0.140  36.920
  218BOLB   C1C 5225  23.660   0.140  36.560
  218BOLB   C2C 5226  23.400  26.400  36.320
  218BOLB   C3C 5227  23.150  25.990  36.320
  218BOLB   C4C 5228  22.730  25.720  36.420
  218BOLB   C1D 5229  23.850  26.180  37.160
  218BOLB   C2D 5230  23.670  25.820  37.300
  218BOLB   C3D 5231  23.500  25.390  37.200
  218BOLB   C4D 5232  23.310  25.110  37.440
  219BOLB   NC1 5233  20.160  18.460  20.990
  219BOLB   PO1 5234  19.840  18.170  21.190
  219BOLB   GL1 5235  19.880  18.090  20.730
  219BOLB   GL2 5236  20.170  18.170  20.560
  219BOLB   C1A 5237  19.690  18.010  20.430
  219BOLB   C2A 5238  19.620  18.330  20.180
  219BOLB   C3A 5239  20.060  18.710  19.870
  219BOLB   C4A 5240  20.330  18.820  19.610
  219BOLB   C1B 5241  20.120  18.260  20.080
  219BOLB   C2B 5242  20.260  18.260  19.720
  219BOLB   C3B 5243  20.540  18.050  19.410
  219BOLB   C4B 5244  20.600  18.010  18.960
  219BOLB   NC2 5245  22.020  19.550  17.640
  219BOLB   PO2 5246  21.600  19.270  17.690
  219BOLB   GL3 5247  21.510  19.310  18.230
  219BOLB   GL4 5248  21.840  19.120  18.300
  219BOLB   C1C 5249  21.210  19.230  18.590
  219BOLB   C2C 5250  20.950  18.960  18.760
  219BOLB   C3C 5251  20.970  18.740  19.000
  219BOLB   C4C 5252  20.790  18.710  19.460
  219BOLB   C1D 5253  21.680  19.230  18.720
  219BOLB   C2D 5254  21.980  19.510  18.940
  219BOLB   C3D 5255  22.020  19.330  19.390
  219BOLB   C4D 5256  22.070  19.020  19.660
  220BOLB   NC1 5257  26.755  20.210  20.180
  220BOLB   PO1 5258  26.825  19.780  19.940
  220BOLB   GL1 5259  26.595  19.730  20.250
  220BOLB   GL2 5260  26.250  19.540  20.330
  220BOLB   C1A 5261  26.400  19.850  20.660
  220BOLB   C2A 5262  26.340  19.560  21.030
  220BOLB   C3A 5263  26.220  19.360  21.450
  220BOLB   C4A 5264  26.060  18.980  21.580
  220BOLB   C1B 5265  26.040  19.310  20.680
  220BOLB   C2B 5266  25.900  19.120  21.140
  220BOLB   C3B 5267  25.550  19.130  21.480
  220BOLB   C4B 5268  25.500  18.800  21.550
  220BOLB   NC2 5269  27.395  19.120  20.250
  220BOLB   PO2 5270  27.225  18.830  19.950
  220BOLB   GL3 5271  27.035  18.720  20.340
  220BOLB   GL4 5272  26.805  18.800  20.320
  220BOLB   C1C 5273  27.195  18.500  20.730
  220BOLB   C2C 5274  26.945  18.330  21.040
  220BOLB   C3C 5275  26.525  18.340  21.260
  220BOLB   C4C 5276  26.150  18.640  21.480
  220BOLB   C1D 5277  27.085  18.940  20.780
  220BOLB   C2D 5278  27.235  18.770  21.140
  220BOLB   C3D 5279  27.515  18.630  21.530
  220BOLB   C4D 5280  27.825  18.330  21.580
  221BOLB   NC1 5281  27.985  11.570  26.740
  221BOLB   PO1 5282  28.225  12.000  26.740
  221BOLB   GL1 5283  28.625  11.880  26.380
  221BOLB   GL2 5284  28.565  11.710  26.110
  221BOLB   C1A 5285  28.745  12.150  25.940
  221BOLB   C2A 5286  28.965  12.070  25.620
  221BOLB   C3A 5287  29.295  11.970  25.550
  221BOLB   C4A 5288  29.665  12.030  25.550
  221BOLB   C1B 5289  29.075  11.760  26.060
  221BOLB   C2B 5290  29.445  11.700  26.120
  221BOLB   C3B 5291  29.925  11.670  25.990
  221BOLB   C4B 5292  30.315  11.400  26.080
  221BOLB   NC2 5293  31.565  11.130  24.420
  221BOLB   PO2 5294  31.745  11.580  24.350
  221BOLB   GL3 5295  31.345  11.650  24.510
  221BOLB   GL4 5296  31.305  11.870  24.230
  221BOLB   C1C 5297  31.185  12.050  24.670
  221BOLB   C2C 5298  30.845  12.170  24.780
  221BOLB   C3C 5299  30.405  12.240  24.950
  221BOLB   C4C 5300  30.125  12.150  25.270
  221BOLB   C1D 5301  30.885  12.100  24.270
  221BOLB   C2D 5302  30.745  12.430  24.360
  221BOLB   C3D 5303  30.645  12.770  24.640
  221BOLB   C4D 5304  30.645  13.040  24.850
  222BOLB   NC1 5305  19.480  11.380  38.350
  222BOLB   PO1 5306  19.440  10.940  38.110
  222BOLB   GL1 5307  19.330  10.520  38.390
  222BOLB   GL2 5308  19.630  10.500  38.530
  222BOLB   C1A 5309  19.060  10.140  38.340
  222BOLB   C2A 5310  19.180   9.780  38.440
  222BOLB   C3A 5311  19.180   9.500  38.720
  222BOLB   C4A 5312  19.290   9.110  38.780
  222BOLB   C1B 5313  19.570  10.100  38.520
  222BOLB   C2B 5314  19.760   9.820  38.720
  222BOLB   C3B 5315  19.850   9.520  38.900
  222BOLB   C4B 5316  19.790   9.130  39.150
  222BOLB   NC2 5317  18.660   6.940  39.680
  222BOLB   PO2 5318  18.480   7.210  39.950
  222BOLB   GL3 5319  18.710   7.500  39.790
  222BOLB   GL4 5320  18.940   7.400  39.490
  222BOLB   C1C 5321  18.910   7.890  39.640
  222BOLB   C2C 5322  19.060   8.100  39.370
  222BOLB   C3C 5323  19.390   8.440  39.300
  222BOLB   C4C 5324  19.530   8.660  38.990
  222BOLB   C1D 5325  19.120   7.500  39.020
  222BOLB   C2D 5326  19.200   7.730  38.620
  222BOLB   C3D 5327  19.420   8.000  38.390
  222BOLB   C4D 5328  19.590   8.420  38.150
  223BOLB   NC1 5329  16.270  12.750  33.140
  223BOLB   PO1 5330  16.340  12.410  32.820
  223BOLB   GL1 5331  15.940  12.350  32.870
  223BOLB   GL2 5332  15.620  12.540  33.010
  223BOLB   C1A 5333  15.720  11.850  32.910
  223BOLB   C2A 5334  15.530  11.710  33.290
  223BOLB   C3A 5335  15.170  11.470  33.350
  223BOLB   C4A 5336  15.120  11.080  33.310
  223BOLB   C1B 5337  15.410  12.200  32.770
  223BOLB   C2B 5338  15.240  11.670  32.710
  223BOLB   C3B 5339  15.500  11.370  32.850
  223BOLB   C4B 5340  15.760  10.950  32.950
  223BOLB   NC2 5341  14.580   9.100  32.290
  223BOLB   PO2 5342  14.480   9.080  32.700
  223BOLB   GL3 5343  14.810   9.260  32.780
  223BOLB   GL4 5344  15.000   9.220  32.480
  223BOLB   C1C 5345  14.920   9.740  32.710
  223BOLB   C2C 5346  15.220   9.980  32.980
  223BOLB   C3C 5347  15.360  10.320  33.250
  223BOLB   C4C 5348  15.490  10.740  33.320
  223BOLB   C1D 5349  15.280   9.570  32.440
  223BOLB   C2D 5350  15.520   9.840  32.600
  223BOLB   C3D 5351  15.890   9.900  32.880
  223BOLB   C4D 5352  16.260   9.570  33.000
  224BOLB   NC1 5353  19.930  23.180  38.980
  224BOLB   PO1 5354  20.170  22.940  39.360
  224BOLB   GL1 5355  20.320  23.330  39.480
  224BOLB   GL2 5356  20.300  23.480  39.210
  224BOLB   C1A 5357  20.300  23.400  39.810
  224BOLB   C2A 5358  20.250  23.510  40.200
  224BOLB   C3A 5359  20.370  23.910  40.430
  224BOLB   C4A 5360  20.380  24.260  40.170
  224BOLB   C1B 5361  20.330  23.870  39.350
  224BOLB   C2B 5362  20.470  23.940  39.780
  224BOLB   C3B 5363  20.740  23.910  40.100
  224BOLB   C4B 5364  21.210  23.880  40.260
  224BOLB   NC2 5365  21.480   0.170  40.850
  224BOLB   PO2 5366  21.070   0.340  40.690
  224BOLB   GL3 5367  20.870  26.410  40.500
  224BOLB   GL4 5368  21.150  26.260  40.580
  224BOLB   C1C 5369  20.790  26.000  40.260
  224BOLB   C2C 5370  20.580  25.590  40.270
  224BOLB   C3C 5371  20.620  25.180  40.130
  224BOLB   C4C 5372  20.490  24.750  40.160
  224BOLB   C1D 5373  21.360  25.940  40.390
  224BOLB   C2D 5374  21.480  25.750  40.090
  224BOLB   C3D 5375  21.410  25.410  39.800
  224BOLB   C4D 5376  21.500  24.990  39.750
  225BOLB   NC1 5377  20.260  24.100  34.690
  225BOLB   PO1 5378  20.610  24.150  35.060
  225BOLB   GL1 5379  21.030  24.500  35.160
  225BOLB   GL2 5380  20.840  24.720  35.130
  225BOLB   C1A 5381  21.330  24.770  34.930
  225BOLB   C2A 5382  21.430  25.160  34.830
  225BOLB   C3A 5383  21.730  25.540  35.010
  225BOLB   C4A 5384  22.030  25.840  35.050
  225BOLB   C1B 5385  20.990  25.140  35.040
  225BOLB   C2B 5386  21.030  25.470  34.690
  225BOLB   C3B 5387  21.390  25.600  34.570
  225BOLB   C4B 5388  21.550  25.740  34.250
  225BOLB   NC2 5389  22.770   1.580  35.600
  225BOLB   PO2 5390  23.160   1.430  35.810
  225BOLB   GL3 5391  22.910   1.090  35.710
  225BOLB   GL4 5392  23.040   0.980  35.450
  225BOLB   C1C 5393  22.540   0.910  35.410
  225BOLB   C2C 5394  22.400   0.550  35.490
  225BOLB   C3C 5395  22.580   0.100  35.230
  225BOLB   C4C 5396  22.340  26.100  35.120
  225BOLB   C1D 5397  22.900   0.570  35.360
  225BOLB   C2D 5398  22.870   0.170  35.620
  225BOLB   C3D 5399  22.630  26.190  35.620
  225BOLB   C4D 5400  22.280  25.890  35.610
  226BOLB   NC1 5401  25.590  20.540  38.260
  226BOLB   PO1 5402  25.340  20.850  38.120
  226BOLB   GL1 5403  25.650  21.020  38.100
  226BOLB   GL2 5404  25.960  20.950  38.240
  226BOLB   C1A 5405  25.840  21.230  37.870
  226BOLB   C2A 5406  26.040  21.620  37.580
  226BOLB   C3A 5407  26.220  21.960  37.600
  226BOLB   C4A 5408  26.440  22.210  37.750
  226BOLB   C1B 5409  26.330  21.040  38.190
  226BOLB   C2B 5410  26.645  21.130  38.260
  226BOLB   C3B 5411  27.005  21.430  38.300
  226BOLB   C4B 5412  27.105  21.750  38.610
  226BOLB   NC2 5413  27.695  23.870  36.820
  226BOLB   PO2 5414  27.745  23.920  37.310
  226BOLB   GL3 5415  27.605  23.580  37.240
  226BOLB   GL4 5416  27.285  23.710  37.040
  226BOLB   C1C 5417  27.415  23.340  37.560
  226BOLB   C2C 5418  27.135  23.100  37.720
  226BOLB   C3C 5419  26.845  22.840  37.410
  226BOLB   C4C 5420  26.725  22.410  37.420
  226BOLB   C1D 5421  27.115  23.230  37.020
  226BOLB   C2D 5422  27.225  22.920  36.810
  226BOLB   C3D 5423  26.955  22.630  36.970
  226BOLB   C4D 5424  26.605  22.970  36.940
  227BOLB   NC1 5425  21.940  22.490  38.940
  227BOLB   PO1 5426  22.140  22.470  38.520
  227BOLB   GL1 5427  22.140  22.840  38.560
  227BOLB   GL2 5428  22.390  22.820  38.800
  227BOLB   C1A 5429  22.150  23.210  38.720
  227BOLB   C2A 5430  22.360  23.620  38.730
  227BOLB   C3A 5431  22.550  24.090  38.750
  227BOLB   C4A 5432  22.700  24.510  38.820
  227BOLB   C1B 5433  22.760  23.070  38.680
  227BOLB   C2B 5434  22.990  23.460  38.700
  227BOLB   C3B 5435  23.180  23.750  38.780
  227BOLB   C4B 5436  23.470  24.070  38.730
  227BOLB   NC2 5437  23.090   0.660  39.370
  227BOLB   PO2 5438  23.110   0.310  39.090
  227BOLB   GL3 5439  22.890   0.010  38.950
  227BOLB   GL4 5440  22.780  26.420  38.590
  227BOLB   C1C 5441  22.560  26.160  38.940
  227BOLB   C2C 5442  22.480  25.750  38.960
  227BOLB   C3C 5443  22.560  25.290  38.870
  227BOLB   C4C 5444  22.700  24.940  38.750
  227BOLB   C1D 5445  22.790  26.010  38.530
  227BOLB   C2D 5446  22.600  25.680  38.460
  227BOLB   C3D 5447  22.480  25.300  38.350
  227BOLB   C4D 5448  22.250  24.980  38.640
  228BOLB   NC1 5449  28.785   9.610  35.230
  228BOLB   PO1 5450  28.945   9.620  34.880
  228BOLB   GL1 5451  29.225   9.350  34.940
  228BOLB   GL2 5452  29.235   9.000  34.810
  228BOLB   C1A 5453  29.645   9.350  34.850
  228BOLB   C2A 5454  30.025   9.070  35.000
  228BOLB   C3A 5455  30.435   9.120  35.070
  228BOLB   C4A 5456  30.805   8.880  34.870
  228BOLB   C1B 5457  29.535   8.840  34.880
  228BOLB   C2B 5458  29.875   8.640  34.790
  228BOLB   C3B 5459  30.345   8.590  34.780
  228BOLB   C4B 5460  30.655   8.320  34.620
  228BOLB   NC2 5461  33.665   8.520  33.980
  228BOLB   PO2 5462  33.405   8.270  34.230
  228BOLB   GL3 5463  32.985   8.280  34.330
  228BOLB   GL4 5464  32.785   8.310  34.110
  228BOLB   C1C 5465  32.445   8.360  34.470
  228BOLB   C2C 5466  31.995   8.450  34.620
  228BOLB   C3C 5467  31.625   8.510  34.970
  228BOLB   C4C 5468  31.175   8.600  34.950
  228BOLB   C1D 5469  32.385   8.350  33.830
  228BOLB   C2D 5470  32.165   8.670  33.680
  228BOLB   C3D 5471  31.775   8.430  33.710
  228BOLB   C4D 5472  31.305   8.500  33.820
  229BOLB   NC1 5473  24.360  21.070  34.600
  229BOLB   PO1 5474  24.020  21.400  34.670
  229BOLB   GL1 5475  24.070  21.820  34.560
  229BOLB   GL2 5476  24.110  22.150  34.740
  229BOLB   C1A 5477  24.280  22.150  34.280
  229BOLB   C2A 5478  24.630  22.430  34.120
  229BOLB   C3A 5479  24.900  22.350  33.900
  229BOLB   C4A 5480  25.240  22.400  33.620
  229BOLB   C1B 5481  24.510  22.380  34.650
  229BOLB   C2B 5482  24.880  22.630  34.550
  229BOLB   C3B 5483  25.290  22.640  34.310
  229BOLB   C4B 5484  25.580  22.610  33.990
  229BOLB   NC2 5485  26.100  24.020  32.040
  229BOLB   PO2 5486  26.370  23.730  31.960
  229BOLB   GL3 5487  26.100  23.380  32.110
  229BOLB   GL4 5488  25.950  23.260  31.910
  229BOLB   C1C 5489  26.060  23.090  32.420
  229BOLB   C2C 5490  25.820  22.920  32.780
  229BOLB   C3C 5491  25.810  22.820  33.230
  229BOLB   C4C 5492  25.440  22.810  33.490
  229BOLB   C1D 5493  25.760  22.790  31.900
  229BOLB   C2D 5494  25.560  22.440  31.960
  229BOLB   C3D 5495  25.560  21.990  31.850
  229BOLB   C4D 5496  25.880  21.760  31.860
  230BOLB   NC1 5497  28.655  15.750  31.960
  230BOLB   PO1 5498  28.795  15.390  31.740
  230BOLB   GL1 5499  29.215  15.630  31.820
  230BOLB   GL2 5500  29.125  15.910  31.910
  230BOLB   C1A 5501  29.635  15.650  31.720
  230BOLB   C2A 5502  29.965  15.990  31.720
  230BOLB   C3A 5503  30.115  16.310  31.510
  230BOLB   C4A 5504  30.275  16.630  31.280
  230BOLB   C1B 5505  29.535  16.070  32.020
  230BOLB   C2B 5506  29.785  16.280  32.170
  230BOLB   C3B 5507  30.115  16.610  32.210
  230BOLB   C4B 5508  30.275  17.120  32.180
  230BOLB   NC2 5509  32.235  18.070  30.800
  230BOLB   PO2 5510  32.105  18.010  31.210
  230BOLB   GL3 5511  32.075  17.660  31.450
  230BOLB   GL4 5512  32.005  17.730  31.760
  230BOLB   C1C 5513  31.825  17.320  31.460
  230BOLB   C2C 5514  31.545  17.050  31.150
  230BOLB   C3C 5515  31.115  17.010  31.070
  230BOLB   C4C 5516  30.715  16.840  30.960
  230BOLB   C1D 5517  31.765  17.460  32.140
  230BOLB   C2D 5518  31.385  17.400  32.120
  230BOLB   C3D 5519  31.065  17.660  32.060
  230BOLB   C4D 5520  30.755  17.960  31.970
  231BOLB   NC1 5521  23.350  19.040  23.680
  231BOLB   PO1 5522  23.590  19.000  23.210
  231BOLB   GL1 5523  23.890  19.350  22.980
  231BOLB   GL2 5524  23.950  19.570  23.160
  231BOLB   C1A 5525  23.980  19.560  22.700
  231BOLB   C2A 5526  24.260  19.840  22.410
  231BOLB   C3A 5527  24.120  20.280  22.150
  231BOLB   C4A 5528  24.040  20.290  21.720
  231BOLB   C1B 5529  24.400  19.840  23.250
  231BOLB   C2B 5530  24.780  19.920  23.470
  231BOLB   C3B 5531  25.150  20.190  23.690
  231BOLB   C4B 5532  25.440  20.150  24.050
  231BOLB   NC2 5533  25.060  20.850  19.430
  231BOLB   PO2 5534  24.900  21.200  19.670
  231BOLB   GL3 5535  24.780  21.030  19.980
  231BOLB   GL4 5536  24.670  21.170  20.360
  231BOLB   C1C 5537  24.600  20.670  20.220
  231BOLB   C2C 5538  24.510  20.530  20.600
  231BOLB   C3C 5539  24.510  20.380  20.930
  231BOLB   C4C 5540  24.280  20.260  21.240
  231BOLB   C1D 5541  24.810  20.900  20.670
  231BOLB   C2D 5542  25.000  20.510  20.810
  231BOLB   C3D 5543  24.860  20.060  20.950
  231BOLB   C4D 5544  24.580  19.830  21.220
  232BOLB   NC1 5545  23.960  20.660  28.250
  232BOLB   PO1 5546  23.680  21.060  28.390
  232BOLB   GL1 5547  23.640  21.280  28.130
  232BOLB   GL2 5548  23.610  21.240  27.830
  232BOLB   C1A 5549  23.890  21.710  28.130
  232BOLB   C2A 5550  24.130  22.120  27.920
  232BOLB   C3A 5551  24.460  22.210  27.630
  232BOLB   C4A 5552  24.970  22.140  27.530
  232BOLB   C1B 5553  24.150  21.310  27.880
  232BOLB   C2B 5554  24.410  21.560  28.060
  232BOLB   C3B 5555  24.650  21.880  28.150
  232BOLB   C4B 5556  25.010  22.000  28.250
  232BOLB   NC2 5557  26.625  23.650  26.910
  232BOLB   PO2 5558  26.505  23.620  26.500
  232BOLB   GL3 5559  26.300  23.220  26.450
  232BOLB   GL4 5560  26.310  22.890  26.730
  232BOLB   C1C 5561  25.870  22.970  26.440
  232BOLB   C2C 5562  25.540  22.560  26.530
  232BOLB   C3C 5563  25.310  22.420  26.840
  232BOLB   C4C 5564  25.250  22.280  27.270
  232BOLB   C1D 5565  26.120  22.600  26.650
  232BOLB   C2D 5566  26.000  22.190  26.580
  232BOLB   C3D 5567  25.840  21.870  26.240
  232BOLB   C4D 5568  25.970  21.470  26.070
  233BOLB   NC1 5569  19.300  10.350  32.870
  233BOLB   PO1 5570  19.120  10.610  33.160
  233BOLB   GL1 5571  18.760  10.320  33.260
  233BOLB   GL2 5572  18.860  10.140  32.950
  233BOLB   C1A 5573  18.380  10.150  33.470
  233BOLB   C2A 5574  18.050   9.840  33.680
  233BOLB   C3A 5575  17.750   9.540  33.590
  233BOLB   C4A 5576  17.440   9.350  33.370
  233BOLB   C1B 5577  18.610   9.800  33.060
  233BOLB   C2B 5578  18.440   9.360  32.960
  233BOLB   C3B 5579  18.350   8.900  32.890
  233BOLB   C4B 5580  18.640   8.610  32.870
  233BOLB   NC2 5581  16.500   7.060  33.930
  233BOLB   PO2 5582  16.250   7.360  33.750
  233BOLB   GL3 5583  16.570   7.740  33.620
  233BOLB   GL4 5584  16.790   7.630  33.350
  233BOLB   C1C 5585  16.700   8.080  33.690
  233BOLB   C2C 5586  16.670   8.590  33.520
  233BOLB   C3C 5587  16.980   8.800  33.370
  233BOLB   C4C 5588  17.270   8.960  33.490
  233BOLB   C1D 5589  16.940   8.120  33.260
  233BOLB   C2D 5590  17.250   8.420  33.310
  233BOLB   C3D 5591  17.560   8.640  33.220
  233BOLB   C4D 5592  17.820   8.780  32.940
  234BOLB   NC1 5593  17.110  12.850  37.760
  234BOLB   PO1 5594  16.860  12.850  37.480
  234BOLB   GL1 5595  16.730  12.410  37.390
  234BOLB   GL2 5596  16.390  12.510  37.290
  234BOLB   C1A 5597  16.680  12.000  37.300
  234BOLB   C2A 5598  16.490  11.690  37.420
  234BOLB   C3A 5599  16.320  11.280  37.640
  234BOLB   C4A 5600  16.300  11.140  38.090
  234BOLB   C1B 5601  16.100  12.190  37.310
  234BOLB   C2B 5602  15.940  11.880  37.250
  234BOLB   C3B 5603  15.590  11.550  37.240
  234BOLB   C4B 5604  15.340  11.320  37.510
  234BOLB   NC2 5605  14.340   9.840  39.680
  234BOLB   PO2 5606  14.790   9.590  39.550
  234BOLB   GL3 5607  15.140   9.850  39.360
  234BOLB   GL4 5608  15.480   9.830  39.490
  234BOLB   C1C 5609  15.470  10.140  39.140
  234BOLB   C2C 5610  15.630  10.410  38.840
  234BOLB   C3C 5611  15.620  10.710  38.450
  234BOLB   C4C 5612  15.940  11.010  38.350
  234BOLB   C1D 5613  15.840  10.060  39.440
  234BOLB   C2D 5614  16.200  10.270  39.600
  234BOLB   C3D 5615  16.440  10.570  39.490
  234BOLB   C4D 5616  16.790  10.690  39.660
  235BOLB   NC1 5617  15.260  22.300  37.590
  235BOLB   PO1 5618  15.460  22.040  37.930
  235BOLB   GL1 5619  15.280  22.460  38.080
  235BOLB   GL2 5620  15.480  22.670  38.330
  235BOLB   C1A 5621  14.970  22.600  38.310
  235BOLB   C2A 5622  14.550  22.650  38.510
  235BOLB   C3A 5623  14.210  22.780  38.670
  235BOLB   C4A 5624  13.940  23.090  38.790
  235BOLB   C1B 5625  15.300  22.930  38.430
  235BOLB   C2B 5626  15.240  23.260  38.780
  235BOLB   C3B 5627  15.380  23.430  39.080
  235BOLB   C4B 5628  15.640  23.810  39.360
  235BOLB   NC2 5629  13.480  24.380  39.800
  235BOLB   PO2 5630  13.130  24.160  39.850
  235BOLB   GL3 5631  13.480  23.920  40.080
  235BOLB   GL4 5632  13.780  23.990  40.500
  235BOLB   C1C 5633  13.700  23.670  39.880
  235BOLB   C2C 5634  13.930  23.750  39.540
  235BOLB   C3C 5635  13.800  23.730  39.070
  235BOLB   C4C 5636  13.800  23.490  38.750
  235BOLB   C1D 5637  13.950  23.550  40.260
  235BOLB   C2D 5638  14.300  23.430  40.280
  235BOLB   C3D 5639  14.700  23.140  40.150
  235BOLB   C4D 5640  14.610  22.630  40.190
  236BOLB   NC1 5641  12.490  21.150  21.230
  236BOLB   PO1 5642  12.630  21.300  21.650
  236BOLB   GL1 5643  12.900  21.210  21.500
  236BOLB   GL2 5644  13.000  20.990  21.230
  236BOLB   C1A 5645  13.350  21.160  21.530
  236BOLB   C2A 5646  13.760  21.310  21.790
  236BOLB   C3A 5647  13.880  21.210  22.140
  236BOLB   C4A 5648  13.630  20.960  22.510
  236BOLB   C1B 5649  13.180  20.710  21.590
  236BOLB   C2B 5650  13.420  20.340  21.740
  236BOLB   C3B 5651  13.600  20.200  21.940
  236BOLB   C4B 5652  13.700  19.960  22.100
  236BOLB   NC2 5653  11.850  21.170  21.420
  236BOLB   PO2 5654  12.170  20.960  21.510
  236BOLB   GL3 5655  12.420  20.880  21.870
  236BOLB   GL4 5656  12.740  20.790  21.760
  236BOLB   C1C 5657  12.550  21.020  22.290
  236BOLB   C2C 5658  12.580  21.370  22.600
  236BOLB   C3C 5659  12.950  21.390  22.890
  236BOLB   C4C 5660  13.430  21.270  22.770
  236BOLB   C1D 5661  12.890  20.760  22.090
  236BOLB   C2D 5662  13.280  20.570  22.220
  236BOLB   C3D 5663  13.530  20.280  22.440
  236BOLB   C4D 5664  13.940  20.200  22.530
  237BOLB   NC1 5665  16.240  12.900  35.060
  237BOLB   PO1 5666  15.860  13.220  35.040
  237BOLB   GL1 5667  15.630  12.900  34.790
  237BOLB   GL2 5668  15.610  13.030  34.540
  237BOLB   C1A 5669  15.350  12.560  34.820
  237BOLB   C2A 5670  14.970  12.450  34.930
  237BOLB   C3A 5671  14.680  12.460  35.300
  237BOLB   C4A 5672  14.380  12.090  35.500
  237BOLB   C1B 5673  15.190  12.830  34.470
  237BOLB   C2B 5674  14.850  12.670  34.450
  237BOLB   C3B 5675  14.380  12.690  34.340
  237BOLB   C4B 5676  13.950  12.760  34.400
  237BOLB   NC2 5677  12.310  10.210  36.440
  237BOLB   PO2 5678  12.410  10.620  36.090
  237BOLB   GL3 5679  12.710  10.950  35.860
  237BOLB   GL4 5680  12.600  10.980  35.590
  237BOLB   C1C 5681  13.170  10.960  35.960
  237BOLB   C2C 5682  13.610  11.190  35.980
  237BOLB   C3C 5683  13.790  11.680  35.890
  237BOLB   C4C 5684  14.010  11.860  35.600
  237BOLB   C1D 5685  12.710  11.430  35.720
  237BOLB   C2D 5686  12.770  11.440  36.150
  237BOLB   C3D 5687  12.960  11.680  36.600
  237BOLB   C4D 5688  13.270  11.910  36.730
  238BOLB   NC1 5689  24.910   9.660  38.860
  238BOLB   PO1 5690  24.770   9.910  39.140
  238BOLB   GL1 5691  24.770   9.550  39.360
  238BOLB   GL2 5692  24.620   9.370  39.690
  238BOLB   C1A 5693  24.910   9.200  39.300
  238BOLB   C2A 5694  25.050   8.790  39.410
  238BOLB   C3A 5695  25.200   8.460  39.670
  238BOLB   C4A 5696  25.320   8.260  40.070
  238BOLB   C1B 5697  24.890   9.030  39.870
  238BOLB   C2B 5698  25.320   8.970  39.870
  238BOLB   C3B 5699  25.750   8.960  39.990
  238BOLB   C4B 5700  26.050   9.130  40.270
  238BOLB   NC2 5701  25.850   6.400  42.600
  238BOLB   PO2 5702  25.750   6.710  42.320
  238BOLB   GL3 5703  25.890   6.940  41.890
  238BOLB   GL4 5704  26.210   6.930  41.670
  238BOLB   C1C 5705  25.810   7.160  41.440
  238BOLB   C2C 5706  25.790   7.490  41.150
  238BOLB   C3C 5707  25.670   7.550  40.620
  238BOLB   C4C 5708  25.540   7.970  40.290
  238BOLB   C1D 5709  26.260   6.950  41.260
  238BOLB   C2D 5710  26.440   7.230  40.980
  238BOLB   C3D 5711  26.210   7.540  40.830
  238BOLB   C4D 5712  26.130   7.730  40.440
  239BOLB   NC1 5713  26.330  16.120  26.630
  239BOLB   PO1 5714  26.605  16.380  26.390
  239BOLB   GL1 5715  26.885  16.720  26.400
  239BOLB   GL2 5716  27.205  16.640  26.230
  239BOLB   C1A 5717  27.225  17.130  26.490
  239BOLB   C2A 5718  27.495  17.330  26.420
  239BOLB   C3A 5719  27.615  17.690  26.230
  239BOLB   C4A 5720  27.595  18.140  26.260
  239BOLB   C1B 5721  27.425  16.980  25.970
  239BOLB   C2B 5722  27.885  16.910  25.840
  239BOLB   C3B 5723  28.145  16.960  25.470
  239BOLB   C4B 5724  28.545  17.090  25.240
  239BOLB   NC2 5725  29.605  19.560  24.890
  239BOLB   PO2 5726  29.755  19.590  25.260
  239BOLB   GL3 5727  29.335  19.390  25.440
  239BOLB   GL4 5728  29.145  19.440  25.170
  239BOLB   C1C 5729  28.955  19.090  25.450
  239BOLB   C2C 5730  28.555  18.870  25.700
  239BOLB   C3C 5731  28.125  18.610  25.880
  239BOLB   C4C 5732  27.705  18.510  26.120
  239BOLB   C1D 5733  28.785  19.330  24.990
  239BOLB   C2D 5734  28.515  19.040  25.190
  239BOLB   C3D 5735  28.115  18.950  25.400
  239BOLB   C4D 5736  27.905  19.180  25.690
  240BOLB   NC1 5737  19.650  18.740  43.350
  240BOLB   PO1 5738  19.370  19.020  43.160
  240BOLB   GL1 5739  19.160  18.850  43.500
  240BOLB   GL2 5740  19.110  18.620  43.630
  240BOLB   C1A 5741  18.960  19.030  43.950
  240BOLB   C2A 5742  18.810  19.050  44.320
  240BOLB   C3A 5743  18.580  18.900  44.630
  240BOLB   C4A 5744  18.270  18.750  44.960
  240BOLB   C1B 5745  18.990  18.530  44.070
  240BOLB   C2B 5746  19.210  18.310  44.330
  240BOLB   C3B 5747  19.260  18.540  44.670
  240BOLB   C4B 5748  19.350  18.690  45.080
  240BOLB   NC2 5749  16.580  17.630  46.480
  240BOLB   PO2 5750  16.750  17.950  46.200
  240BOLB   GL3 5751  17.040  18.040  45.890
  240BOLB   GL4 5752  16.910  17.840  45.600
  240BOLB   C1C 5753  16.990  18.360  45.510
  240BOLB   C2C 5754  16.930  18.600  45.230
  240BOLB   C3C 5755  17.280  18.610  44.940
  240BOLB   C4C 5756  17.710  18.620  44.900
  240BOLB   C1D 5757  16.840  17.520  45.390
  240BOLB   C2D 5758  17.090  17.350  45.120
  240BOLB   C3D 5759  17.310  17.270  44.820
  240BOLB   C4D 5760  17.670  17.240  44.720
  241BOLB   NC1 5761  19.980  11.420  24.090
  241BOLB   PO1 5762  19.900  11.580  24.480
  241BOLB   GL1 5763  19.790  11.160  24.640
  241BOLB   GL2 5764  19.710  10.800  24.790
  241BOLB   C1A 5765  19.820  10.760  24.280
  241BOLB   C2A 5766  19.580  10.360  24.180
  241BOLB   C3A 5767  19.360  10.020  23.980
  241BOLB   C4A 5768  19.170   9.890  23.610
  241BOLB   C1B 5769  19.400  10.550  24.590
  241BOLB   C2B 5770  19.190  10.170  24.570
  241BOLB   C3B 5771  18.890   9.810  24.620
  241BOLB   C4B 5772  18.790   9.380  24.430
  241BOLB   NC2 5773  17.680   8.360  22.490
  241BOLB   PO2 5774  17.780   8.680  22.220
  241BOLB   GL3 5775  17.800   8.840  22.600
  241BOLB   GL4 5776  17.870   8.640  22.820
  241BOLB   C1C 5777  17.870   9.280  22.810
  241BOLB   C2C 5778  18.150   9.340  23.150
  241BOLB   C3C 5779  18.430   9.620  23.330
  241BOLB   C4C 5780  18.720   9.830  23.510
  241BOLB   C1D 5781  17.980   8.700  23.270
  241BOLB   C2D 5782  18.410   8.900  23.360
  241BOLB   C3D 5783  18.640   9.260  23.120
  241BOLB   C4D 5784  18.800   9.570  22.870
  242BOLB   NC1 5785  13.910  17.310  34.270
  242BOLB   PO1 5786  13.890  17.360  34.700
  242BOLB   GL1 5787  13.590  17.060  34.750
  242BOLB   GL2 5788  13.460  17.090  34.420
  242BOLB   C1A 5789  13.490  16.620  34.720
  242BOLB   C2A 5790  13.070  16.490  34.710
  242BOLB   C3A 5791  12.640  16.360  34.750
  242BOLB   C4A 5792  12.610  15.920  34.540
  242BOLB   C1B 5793  13.130  17.200  34.620
  242BOLB   C2B 5794  12.750  17.290  34.740
  242BOLB   C3B 5795  12.320  17.420  34.790
  242BOLB   C4B 5796  11.990  17.230  34.680
  242BOLB   NC2 5797  10.090  15.090  34.630
  242BOLB   PO2 5798  10.420  14.840  34.780
  242BOLB   GL3 5799  10.790  15.030  34.870
  242BOLB   GL4 5800  10.900  14.920  34.580
  242BOLB   C1C 5801  10.930  15.510  34.850
  242BOLB   C2C 5802  11.290  15.670  34.810
  242BOLB   C3C 5803  11.760  15.790  34.630
  242BOLB   C4C 5804  12.210  15.670  34.470
  242BOLB   C1D 5805  11.270  15.050  34.660
  242BOLB   C2D 5806  11.580  15.220  34.450
  242BOLB   C3D 5807  11.930  15.270  34.750
  242BOLB   C4D 5808  12.150  15.310  35.080
  243BOLB   NC1 5809  22.050  15.160  21.300
  243BOLB   PO1 5810  22.300  15.310  21.000
  243BOLB   GL1 5811  22.310  15.260  20.560
  243BOLB   GL2 5812  22.200  15.060  20.530
  243BOLB   C1A 5813  22.600  15.330  20.370
  243BOLB   C2A 5814  22.680  15.720  20.090
  243BOLB   C3A 5815  22.900  15.930  19.790
  243BOLB   C4A 5816  22.980  16.280  19.590
  243BOLB   C1B 5817  22.280  14.970  20.130
  243BOLB   C2B 5818  22.400  14.710  19.700
  243BOLB   C3B 5819  22.460  14.370  19.380
  243BOLB   C4B 5820  22.390  14.410  19.010
  243BOLB   NC2 5821  22.960  15.500  17.230
  243BOLB   PO2 5822  22.870  15.930  17.190
  243BOLB   GL3 5823  22.810  16.290  17.520
  243BOLB   GL4 5824  23.130  16.410  17.440
  243BOLB   C1C 5825  22.940  16.160  17.980
  243BOLB   C2C 5826  23.060  16.020  18.490
  243BOLB   C3C 5827  23.210  16.150  18.900
  243BOLB   C4C 5828  23.170  16.310  19.260
  243BOLB   C1D 5829  22.930  16.630  17.880
  243BOLB   C2D 5830  22.980  16.760  18.320
  243BOLB   C3D 5831  23.040  16.740  18.750
  243BOLB   C4D 5832  22.910  16.680  19.130
  244BOLB   NC1 5833  13.750  22.590  29.710
  244BOLB   PO1 5834  13.650  22.030  29.720
  244BOLB   GL1 5835  13.240  22.170  29.780
  244BOLB   GL2 5836  13.200  22.500  29.770
  244BOLB   C1A 5837  12.820  22.230  29.720
  244BOLB   C2A 5838  12.540  22.530  29.980
  244BOLB   C3A 5839  12.290  22.690  30.270
  244BOLB   C4A 5840  11.950  22.570  30.480
  244BOLB   C1B 5841  12.880  22.720  29.680
  244BOLB   C2B 5842  12.600  23.020  29.740
  244BOLB   C3B 5843  12.380  23.520  29.760
  244BOLB   C4B 5844  12.310  23.850  30.110
  244BOLB   NC2 5845  10.300  23.870  30.280
  244BOLB   PO2 5846  10.030  23.710  29.990
  244BOLB   GL3 5847  10.300  23.400  30.050
  244BOLB   GL4 5848  10.500  23.640  29.920
  244BOLB   C1C 5849  10.610  23.190  30.180
  244BOLB   C2C 5850  10.950  23.020  30.300
  244BOLB   C3C 5851  11.200  22.640  30.370
  244BOLB   C4C 5852  11.400  22.620  30.560
  244BOLB   C1D 5853  10.890  23.610  29.990
  244BOLB   C2D 5854  11.280  23.810  29.960
  244BOLB   C3D 5855  11.640  23.690  29.910
  244BOLB   C4D 5856  11.950  23.880  29.770
  245BOLB   NC1 5857  27.115  16.400  39.210
  245BOLB   PO1 5858  27.495  16.630  39.400
  245BOLB   GL1 5859  27.845  16.770  39.680
  245BOLB   GL2 5860  28.065  16.590  39.470
  245BOLB   C1A 5861  28.275  16.710  39.970
  245BOLB   C2A 5862  28.735  16.870  39.920
  245BOLB   C3A 5863  28.995  17.120  40.110
  245BOLB   C4A 5864  29.345  17.360  40.280
  245BOLB   C1B 5865  28.325  16.980  39.590
  245BOLB   C2B 5866  28.575  17.350  39.780
  245BOLB   C3B 5867  28.715  17.720  39.690
  245BOLB   C4B 5868  28.915  18.110  39.890
  245BOLB   NC2 5869  31.155  18.640  39.840
  245BOLB   PO2 5870  31.165  18.280  40.060
  245BOLB   GL3 5871  30.875  18.150  39.940
  245BOLB   GL4 5872  30.725  18.430  39.700
  245BOLB   C1C 5873  30.425  18.190  40.140
  245BOLB   C2C 5874  29.965  18.220  40.350
  245BOLB   C3C 5875  29.715  17.920  40.550
  245BOLB   C4C 5876  29.675  17.540  40.470
  245BOLB   C1D 5877  30.375  18.340  39.520
  245BOLB   C2D 5878  29.985  18.380  39.770
  245BOLB   C3D 5879  29.595  18.160  39.830
  245BOLB   C4D 5880  29.365  17.970  40.160
  246BOLB   NC1 5881  27.225  15.620  28.350
  246BOLB   PO1 5882  27.625  15.850  28.320
  246BOLB   GL1 5883  28.105  16.090  28.260
  246BOLB   GL2 5884  28.245  16.160  27.950
  246BOLB   C1A 5885  28.555  16.340  28.350
  246BOLB   C2A 5886  28.875  16.660  28.290
  246BOLB   C3A 5887  29.305  16.610  28.130
  246BOLB   C4A 5888  29.605  16.770  27.940
  246BOLB   C1B 5889  28.615  16.450  27.810
  246BOLB   C2B 5890  28.955  16.660  27.770
  246BOLB   C3B 5891  29.215  17.010  27.750
  246BOLB   C4B 5892  29.365  17.300  27.960
  246BOLB   NC2 5893  32.305  17.560  26.910
  246BOLB   PO2 5894  31.905  17.430  26.910
  246BOLB   GL3 5895  31.575  17.190  27.060
  246BOLB   GL4 5896  31.605  16.910  26.930
  246BOLB   C1C 5897  31.255  17.230  27.360
  246BOLB   C2C 5898  30.785  17.210  27.520
  246BOLB   C3C 5899  30.375  17.180  27.690
  246BOLB   C4C 5900  30.035  16.870  27.820
  246BOLB   C1D 5901  31.465  16.580  27.210
  246BOLB   C2D 5902  31.155  16.360  27.270
  246BOLB   C3D 5903  30.875  16.300  27.610
  246BOLB   C4D 5904  30.415  16.200  27.740
  247BOLB   NC1 5905  21.250  22.160  40.610
  247BOLB   PO1 5906  20.890  22.250  40.890
  247BOLB   GL1 5907  20.690  22.510  41.130
  247BOLB   GL2 5908  20.780  22.780  41.170
  247BOLB   C1A 5909  20.440  22.650  41.490
  247BOLB   C2A 5910  20.460  22.740  41.870
  247BOLB   C3A 5911  20.310  22.970  42.200
  247BOLB   C4A 5912  20.550  23.380  42.450
  247BOLB   C1B 5913  21.010  23.150  41.160
  247BOLB   C2B 5914  21.110  23.590  40.990
  247BOLB   C3B 5915  21.260  23.880  41.260
  247BOLB   C4B 5916  20.990  24.120  41.460
  247BOLB   NC2 5917  20.710  26.250  43.050
  247BOLB   PO2 5918  20.710  25.790  43.000
  247BOLB   GL3 5919  20.790  25.550  42.780
  247BOLB   GL4 5920  21.160  25.560  42.620
  247BOLB   C1C 5921  20.740  25.240  42.550
  247BOLB   C2C 5922  20.600  24.850  42.540
  247BOLB   C3C 5923  20.680  24.360  42.410
  247BOLB   C4C 5924  20.710  23.880  42.330
  247BOLB   C1D 5925  21.100  25.480  42.290
  247BOLB   C2D 5926  20.860  25.480  41.890
  247BOLB   C3D 5927  20.590  25.310  41.650
  247BOLB   C4D 5928  20.390  24.890  41.670
  248BOLB   NC1 5929  26.010  17.830  27.540
  248BOLB   PO1 5930  26.390  17.910  27.260
  248BOLB   GL1 5931  26.735  18.240  27.190
  248BOLB   GL2 5932  26.675  18.440  27.340
  248BOLB   C1A 5933  27.145  18.330  27.510
  248BOLB   C2A 5934  27.405  18.520  27.810
  248BOLB   C3A 5935  27.805  18.790  27.760
  248BOLB   C4A 5936  28.015  19.170  27.680
  248BOLB   C1B 5937  26.895  18.760  27.480
  248BOLB   C2B 5938  27.215  19.060  27.600
  248BOLB   C3B 5939  27.555  19.280  27.380
  248BOLB   C4B 5940  27.675  19.660  27.090
  248BOLB   NC2 5941  30.005  19.850  26.300
  248BOLB   PO2 5942  29.555  19.830  26.230
  248BOLB   GL3 5943  29.205  19.550  26.300
  248BOLB   GL4 5944  29.125  19.290  26.080
  248BOLB   C1C 5945  28.825  19.660  26.440
  248BOLB   C2C 5946  28.355  19.640  26.470
  248BOLB   C3C 5947  28.175  19.470  26.810
  248BOLB   C4C 5948  28.045  19.300  27.210
  248BOLB   C1D 5949  28.735  19.210  26.090
  248BOLB   C2D 5950  28.495  18.740  26.230
  248BOLB   C3D 5951  28.395  18.260  26.240
  248BOLB   C4D 5952  28.615  17.880  26.250
  249BOLB   NC1 5953  13.780  19.800  36.500
  249BOLB   PO1 5954  13.660  19.650  36.110
  249BOLB   GL1 5955  13.330  19.490  36.010
  249BOLB   GL2 5956  13.410  19.310  35.750
  249BOLB   C1A 5957  12.900  19.420  36.000
  249BOLB   C2A 5958  12.470  19.550  36.020
  249BOLB   C3A 5959  12.050  19.500  35.920
  249BOLB   C4A 5960  11.660  19.600  35.710
  249BOLB   C1B 5961  13.020  19.190  35.530
  249BOLB   C2B 5962  12.620  19.120  35.590
  249BOLB   C3B 5963  12.170  19.080  35.720
  249BOLB   C4B 5964  11.790  19.070  35.910
  249BOLB   NC2 5965   8.930  20.480  35.630
  249BOLB   PO2 5966   9.360  20.430  35.420
  249BOLB   GL3 5967   9.800  20.370  35.620
  249BOLB   GL4 5968   9.890  20.410  35.930
  249BOLB   C1C 5969  10.100  20.070  35.500
  249BOLB   C2C 5970  10.520  20.100  35.420
  249BOLB   C3C 5971  10.870  20.150  35.590
  249BOLB   C4C 5972  11.390  19.930  35.550
  249BOLB   C1D 5973  10.290  20.470  35.760
  249BOLB   C2D 5974  10.690  20.570  35.820
  249BOLB   C3D 5975  11.030  20.760  35.690
  249BOLB   C4D 5976  11.400  20.930  35.880
  250BOLB   NC1 5977  15.060  14.750  36.090
  250BOLB   PO1 5978  14.790  15.020  35.880
  250BOLB   GL1 5979  14.410  14.870  35.760
  250BOLB   GL2 5980  14.150  14.850  35.440
  250BOLB   C1A 5981  14.030  14.680  35.920
  250BOLB   C2A 5982  13.670  14.650  36.120
  250BOLB   C3A 5983  13.430  14.280  36.260
  250BOLB   C4A 5984  12.960  14.180  36.340
  250BOLB   C1B 5985  13.890  14.650  35.130
  250BOLB   C2B 5986  13.640  14.310  34.960
  250BOLB   C3B 5987  13.730  14.100  34.590
  250BOLB   C4B 5988  13.760  14.080  34.270
  250BOLB   NC2 5989  11.240  13.720  37.950
  250BOLB   PO2 5990  11.090  13.700  37.530
  250BOLB   GL3 5991  11.510  13.670  37.350
  250BOLB   GL4 5992  11.670  13.630  37.580
  250BOLB   C1C 5993  11.790  14.020  37.190
  250BOLB   C2C 5994  12.120  14.360  37.080
  250BOLB   C3C 5995  12.470  14.350  36.880
  250BOLB   C4C 5996  12.740  14.280  36.630
  250BOLB   C1D 5997  12.100  13.580  37.710
  250BOLB   C2D 5998  12.310  13.400  37.960
  250BOLB   C3D 5999  12.700  13.400  37.980
  250BOLB   C4D 6000  12.950  13.720  37.730
  251BOLB   NC1 6001  29.465  19.470  23.970
  251BOLB   PO1 6002  29.465  19.340  23.540
  251BOLB   GL1 6003  29.225  19.040  23.790
  251BOLB   GL2 6004  28.985  19.140  24.070
  251BOLB   C1A 6005  28.895  18.690  23.620
  251BOLB   C2A 6006  28.505  18.710  23.340
  251BOLB   C3A 6007  28.305  18.430  23.330
  251BOLB   C4A 6008  27.905  18.420  23.450
  251BOLB   C1B 6009  28.605  19.220  24.240
  251BOLB   C2B 6010  28.155  19.070  24.310
  251BOLB   C3B 6011  27.875  18.870  24.400
  251BOLB   C4B 6012  27.825  18.540  24.170
  251BOLB   NC2 6013  28.255  20.650  22.250
  251BOLB   PO2 6014  28.035  20.330  22.100
  251BOLB   GL3 6015  27.765  20.080  22.300
  251BOLB   GL4 6016  27.725  20.200  22.670
  251BOLB   C1C 6017  27.495  19.750  22.490
  251BOLB   C2C 6018  27.255  19.450  22.770
  251BOLB   C3C 6019  27.375  19.010  23.080
  251BOLB   C4C 6020  27.565  18.740  23.330
  251BOLB   C1D 6021  27.315  20.290  22.540
  251BOLB   C2D 6022  26.885  20.450  22.670
  251BOLB   C3D 6023  26.495  20.120  22.610
  251BOLB   C4D 6024  26.180  20.140  22.370
  252BOLB   NC1 6025  15.090  17.150  28.310
  252BOLB   PO1 6026  14.580  17.070  28.450
  252BOLB   GL1 6027  14.180  16.880  28.310
  252BOLB   GL2 6028  14.010  16.820  28.630
  252BOLB   C1A 6029  13.760  16.680  28.090
  252BOLB   C2A 6030  13.370  16.460  28.120
  252BOLB   C3A 6031  12.920  16.360  28.210
  252BOLB   C4A 6032  12.590  16.140  28.410
  252BOLB   C1B 6033  13.610  16.780  28.600
  252BOLB   C2B 6034  13.210  16.690  28.700
  252BOLB   C3B 6035  12.860  16.490  28.730
  252BOLB   C4B 6036  12.340  16.440  28.710
  252BOLB   NC2 6037  10.780  14.180  28.730
  252BOLB   PO2 6038  10.790  14.560  28.380
  252BOLB   GL3 6039  11.070  14.970  28.440
  252BOLB   GL4 6040  11.160  14.930  28.660
  252BOLB   C1C 6041  11.400  15.320  28.460
  252BOLB   C2C 6042  11.720  15.420  28.600
  252BOLB   C3C 6043  12.080  15.690  28.650
  252BOLB   C4C 6044  12.240  16.040  28.400
  252BOLB   C1D 6045  11.560  15.000  28.850
  252BOLB   C2D 6046  11.880  14.890  29.010
  252BOLB   C3D 6047  12.240  14.980  29.210
  252BOLB   C4D 6048  12.650  15.000  29.320
  253BOLB   NC1 6049  21.010  18.490  21.080
  253BOLB   PO1 6050  20.680  18.600  20.800
  253BOLB   GL1 6051  20.430  18.600  20.490
  253BOLB   GL2 6052  20.050  18.690  20.520
  253BOLB   C1A 6053  20.560  18.570  20.050
  253BOLB   C2A 6054  20.950  18.390  19.910
  253BOLB   C3A 6055  21.210  18.410  19.620
  253BOLB   C4A 6056  21.510  18.190  19.420
  253BOLB   C1B 6057  19.840  18.790  20.290
  253BOLB   C2B 6058  19.520  18.790  20.010
  253BOLB   C3B 6059  19.610  18.590  19.690
  253BOLB   C4B 6060  19.310  18.100  19.550
  253BOLB   NC2 6061  21.070  17.920  17.270
  253BOLB   PO2 6062  21.500  18.050  17.140
  253BOLB   GL3 6063  21.430  17.910  17.590
  253BOLB   GL4 6064  21.570  18.190  17.790
  253BOLB   C1C 6065  21.290  17.750  17.880
  253BOLB   C2C 6066  21.340  17.730  18.270
  253BOLB   C3C 6067  21.350  17.940  18.710
  253BOLB   C4C 6068  21.560  18.010  19.070
  253BOLB   C1D 6069  21.530  18.190  18.210
  253BOLB   C2D 6070  21.650  18.290  18.590
  253BOLB   C3D 6071  21.900  18.460  18.960
  253BOLB   C4D 6072  22.160  18.640  19.310
  254BOLB   NC1 6073  28.395  12.410  38.690
  254BOLB   PO1 6074  28.375  12.120  39.060
  254BOLB   GL1 6075  28.655  12.130  39.360
  254BOLB   GL2 6076  28.795  12.490  39.550
  254BOLB   C1A 6077  29.075  12.160  39.210
  254BOLB   C2A 6078  29.475  12.150  39.300
  254BOLB   C3A 6079  29.845  11.870  39.410
  254BOLB   C4A 6080  30.125  11.610  39.380
  254BOLB   C1B 6081  29.085  12.790  39.340
  254BOLB   C2B 6082  29.515  12.620  39.160
  254BOLB   C3B 6083  29.845  12.500  39.210
  254BOLB   C4B 6084  30.095  12.760  39.450
  254BOLB   NC2 6085  32.115  11.210  39.810
  254BOLB   PO2 6086  32.195  10.980  40.150
  254BOLB   GL3 6087  31.775  10.920  40.110
  254BOLB   GL4 6088  31.535  11.180  40.160
  254BOLB   C1C 6089  31.415  10.750  39.870
  254BOLB   C2C 6090  30.905  10.740  39.980
  254BOLB   C3C 6091  30.525  10.970  39.840
  254BOLB   C4C 6092  30.355  11.200  39.490
  254BOLB   C1D 6093  31.485  11.350  39.730
  254BOLB   C2D 6094  31.195  11.420  39.430
  254BOLB   C3D 6095  31.035  11.620  39.030
  254BOLB   C4D 6096  30.655  11.790  38.860
  255BOLB   NC1 6097  28.695  14.860  34.170
  255BOLB   PO1 6098  28.995  15.260  33.970
  255BOLB   GL1 6099  29.365  15.330  33.790
  255BOLB   GL2 6100  29.555  15.380  34.160
  255BOLB   C1A 6101  29.695  15.550  33.540
  255BOLB   C2A 6102  30.055  15.680  33.550
  255BOLB   C3A 6103  30.355  15.990  33.440
  255BOLB   C4A 6104  30.765  16.240  33.610
  255BOLB   C1B 6105  29.955  15.400  33.960
  255BOLB   C2B 6106  30.135  15.190  33.650
  255BOLB   C3B 6107  30.555  15.280  33.610
  255BOLB   C4B 6108  30.965  15.130  33.520
  255BOLB   NC2 6109  32.735  17.080  33.400
  255BOLB   PO2 6110  32.605  17.170  33.030
  255BOLB   GL3 6111  32.105  17.190  32.960
  255BOLB   GL4 6112  32.095  17.200  32.600
  255BOLB   C1C 6113  31.715  17.070  32.920
  255BOLB   C2C 6114  31.425  16.940  33.170
  255BOLB   C3C 6115  31.325  16.680  33.470
  255BOLB   C4C 6116  31.005  16.550  33.700
  255BOLB   C1D 6117  31.585  17.080  32.470
  255BOLB   C2D 6118  31.445  16.890  32.260
  255BOLB   C3D 6119  30.985  16.630  32.190
  255BOLB   C4D 6120  30.605  16.740  32.020
  256BOLB   NC1 6121  20.020  15.970  42.850
  256BOLB   PO1 6122  20.430  15.770  42.950
  256BOLB   GL1 6123  20.440  15.550  43.320
  256BOLB   GL2 6124  20.570  15.170  43.310
  256BOLB   C1A 6125  20.360  15.480  43.800
  256BOLB   C2A 6126  20.330  15.520  44.220
  256BOLB   C3A 6127  20.130  15.430  44.550
  256BOLB   C4A 6128  19.930  15.310  44.950
  256BOLB   C1B 6129  20.420  15.030  43.680
  256BOLB   C2B 6130  20.130  15.100  44.150
  256BOLB   C3B 6131  19.980  14.950  44.550
  256BOLB   C4B 6132  19.800  14.680  44.860
  256BOLB   NC2 6133  17.900  14.860  46.570
  256BOLB   PO2 6134  17.900  14.730  46.200
  256BOLB   GL3 6135  18.250  14.820  45.950
  256BOLB   GL4 6136  18.400  15.170  45.840
  256BOLB   C1C 6137  18.490  14.730  45.570
  256BOLB   C2C 6138  18.850  14.780  45.280
  256BOLB   C3C 6139  19.200  14.980  45.410
  256BOLB   C4C 6140  19.670  15.040  45.180
  256BOLB   C1D 6141  18.520  15.570  45.710
  256BOLB   C2D 6142  18.440  16.000  45.870
  256BOLB   C3D 6143  18.530  16.450  45.930
  256BOLB   C4D 6144  18.490  16.860  45.730
  257BOLB   NC1 6145  28.825  12.530  27.720
  257BOLB   PO1 6146  29.185  12.800  27.760
  257BOLB   GL1 6147  29.455  12.880  27.360
  257BOLB   GL2 6148  29.395  13.070  27.170
  257BOLB   C1A 6149  29.955  13.000  27.250
  257BOLB   C2A 6150  30.275  13.360  27.290
  257BOLB   C3A 6151  30.445  13.550  27.580
  257BOLB   C4A 6152  30.765  13.780  27.640
  257BOLB   C1B 6153  29.715  12.970  26.810
  257BOLB   C2B 6154  30.045  13.040  26.390
  257BOLB   C3B 6155  30.355  13.080  26.010
  257BOLB   C4B 6156  30.745  13.330  25.840
  257BOLB   NC2 6157  33.325  14.310  27.590
  257BOLB   PO2 6158  33.005  14.090  27.630
  257BOLB   GL3 6159  32.555  14.150  27.710
  257BOLB   GL4 6160  32.385  13.830  27.870
  257BOLB   C1C 6161  32.335  14.320  28.050
  257BOLB   C2C 6162  31.975  14.260  28.050
  257BOLB   C3C 6163  31.525  14.170  27.850
  257BOLB   C4C 6164  31.155  13.940  27.830
  257BOLB   C1D 6165  31.975  13.780  27.830
  257BOLB   C2D 6166  31.895  13.450  28.160
  257BOLB   C3D 6167  31.955  13.030  28.220
  257BOLB   C4D 6168  31.855  12.600  28.240
  258BOLB   NC1 6169  22.900   8.710  37.050
  258BOLB   PO1 6170  23.110   8.320  37.140
  258BOLB   GL1 6171  22.930   8.080  37.330
  258BOLB   GL2 6172  22.900   8.080  37.610
  258BOLB   C1A 6173  22.930   7.670  37.350
  258BOLB   C2A 6174  23.230   7.330  37.620
  258BOLB   C3A 6175  23.470   7.250  37.900
  258BOLB   C4A 6176  23.450   6.870  38.170
  258BOLB   C1B 6177  22.880   7.800  37.880
  258BOLB   C2B 6178  22.690   7.550  38.180
  258BOLB   C3B 6179  22.430   7.170  38.170
  258BOLB   C4B 6180  22.310   6.910  37.730
  258BOLB   NC2 6181  23.410   4.440  37.990
  258BOLB   PO2 6182  23.250   4.560  37.570
  258BOLB   GL3 6183  23.170   5.050  37.520
  258BOLB   GL4 6184  22.880   5.000  37.340
  258BOLB   C1C 6185  23.190   5.490  37.440
  258BOLB   C2C 6186  23.060   5.880  37.440
  258BOLB   C3C 6187  23.020   6.280  37.630
  258BOLB   C4C 6188  23.320   6.470  37.870
  258BOLB   C1D 6189  22.940   5.320  37.080
  258BOLB   C2D 6190  23.140   5.390  36.630
  258BOLB   C3D 6191  23.260   5.280  36.180
  258BOLB   C4D 6192  23.540   4.930  36.110
  259BOLB   NC1 6193  18.530  11.340  37.170
  259BOLB   PO1 6194  18.640  11.330  37.560
  259BOLB   GL1 6195  18.400  11.050  37.560
  259BOLB   GL2 6196  18.050  11.080  37.550
  259BOLB   C1A 6197  18.290  10.680  37.620
  259BOLB   C2A 6198  18.020  10.350  37.640
  259BOLB   C3A 6199  17.750  10.150  38.010
  259BOLB   C4A 6200  17.380   9.880  38.110
  259BOLB   C1B 6201  17.790  10.780  37.520
  259BOLB   C2B 6202  17.530  10.540  37.610
  259BOLB   C3B 6203  17.220  10.230  37.580
  259BOLB   C4B 6204  17.210   9.760  37.530
  259BOLB   NC2 6205  15.440   8.410  39.300
  259BOLB   PO2 6206  15.690   8.520  38.850
  259BOLB   GL3 6207  15.980   8.750  38.690
  259BOLB   GL4 6208  16.070   9.120  38.900
  259BOLB   C1C 6209  16.040   8.950  38.220
  259BOLB   C2C 6210  16.380   9.090  38.110
  259BOLB   C3C 6211  16.780   9.330  38.130
  259BOLB   C4C 6212  17.230   9.570  38.080
  259BOLB   C1D 6213  16.350   9.510  39.080
  259BOLB   C2D 6214  16.310   9.910  39.230
  259BOLB   C3D 6215  16.110  10.240  39.050
  259BOLB   C4D 6216  16.450  10.680  39.010
  260BOLB   NC1 6217  18.330  23.510  37.680
  260BOLB   PO1 6218  18.320  23.940  37.610
  260BOLB   GL1 6219  17.990  24.300  37.520
  260BOLB   GL2 6220  17.770  24.500  37.770
  260BOLB   C1A 6221  17.970  24.840  37.480
  260BOLB   C2A 6222  17.730  25.300  37.470
  260BOLB   C3A 6223  17.790  25.480  37.860
  260BOLB   C4A 6224  17.780  25.500  38.310
  260BOLB   C1B 6225  17.660  24.380  38.190
  260BOLB   C2B 6226  17.870  24.420  38.570
  260BOLB   C3B 6227  17.800  24.810  38.750
  260BOLB   C4B 6228  17.560  25.220  38.620
  260BOLB   NC2 6229  17.820   1.220  39.850
  260BOLB   PO2 6230  17.980   0.740  39.920
  260BOLB   GL3 6231  17.970   0.440  39.740
  260BOLB   GL4 6232  18.280   0.450  39.590
  260BOLB   C1C 6233  17.870   0.180  39.330
  260BOLB   C2C 6234  17.920   0.040  38.910
  260BOLB   C3C 6235  18.080  26.110  38.690
  260BOLB   C4C 6236  17.950  25.730  38.680
  260BOLB   C1D 6237  18.370   0.270  39.160
  260BOLB   C2D 6238  18.280   0.310  38.640
  260BOLB   C3D 6239  18.290  26.430  38.320
  260BOLB   C4D 6240  18.100  26.060  38.140
  261BOLB   NC1 6241  24.600  17.820  22.390
  261BOLB   PO1 6242  24.960  17.830  22.660
  261BOLB   GL1 6243  25.320  17.620  22.470
  261BOLB   GL2 6244  25.640  17.370  22.500
  261BOLB   C1A 6245  25.640  17.720  22.100
  261BOLB   C2A 6246  25.380  18.010  21.830
  261BOLB   C3A 6247  25.310  18.370  21.580
  261BOLB   C4A 6248  25.470  18.500  21.170
  261BOLB   C1B 6249  26.000  17.440  22.450
  261BOLB   C2B 6250  26.390  17.570  22.260
  261BOLB   C3B 6251  26.635  17.890  22.310
  261BOLB   C4B 6252  26.420  18.260  22.190
  261BOLB   NC2 6253  27.935  19.500  19.990
  261BOLB   PO2 6254  27.615  19.570  20.380
  261BOLB   GL3 6255  27.165  19.400  20.580
  261BOLB   GL4 6256  27.215  19.580  20.890
  261BOLB   C1C 6257  26.645  19.400  20.650
  261BOLB   C2C 6258  26.430  19.060  20.480
  261BOLB   C3C 6259  26.130  18.730  20.540
  261BOLB   C4C 6260  25.780  18.700  20.800
  261BOLB   C1D 6261  27.035  19.310  21.080
  261BOLB   C2D 6262  26.765  19.060  21.220
  261BOLB   C3D 6263  26.595  18.940  21.610
  261BOLB   C4D 6264  26.505  18.620  21.850
  262BOLB   NC1 6265  20.820   5.300  24.200
  262BOLB   PO1 6266  20.890   5.510  24.670
  262BOLB   GL1 6267  21.060   5.870  24.770
  262BOLB   GL2 6268  20.850   6.120  24.840
  262BOLB   C1A 6269  21.260   6.340  25.010
  262BOLB   C2A 6270  21.260   6.340  25.390
  262BOLB   C3A 6271  21.250   6.790  25.540
  262BOLB   C4A 6272  21.250   7.080  25.840
  262BOLB   C1B 6273  20.740   6.520  24.880
  262BOLB   C2B 6274  20.680   6.950  25.020
  262BOLB   C3B 6275  20.700   7.410  24.770
  262BOLB   C4B 6276  20.530   7.710  24.420
  262BOLB   NC2 6277  19.680   6.150  24.920
  262BOLB   PO2 6278  19.510   5.850  25.310
  262BOLB   GL3 6279  19.890   6.070  25.420
  262BOLB   GL4 6280  19.700   6.220  25.690
  262BOLB   C1C 6281  20.130   6.430  25.500
  262BOLB   C2C 6282  20.360   6.750  25.780
  262BOLB   C3C 6283  20.520   7.080  26.030
  262BOLB   C4C 6284  20.960   7.220  26.010
  262BOLB   C1D 6285  19.780   6.630  25.790
  262BOLB   C2D 6286  19.780   7.070  25.890
  262BOLB   C3D 6287  20.100   7.280  25.850
  262BOLB   C4D 6288  20.460   7.510  25.810
  263BOLB   NC1 6289  15.100  14.310  33.850
  263BOLB   PO1 6290  15.050  13.960  34.180
  263BOLB   GL1 6291  14.670  13.790  34.380
  263BOLB   GL2 6292  14.680  13.500  34.120
  263BOLB   C1A 6293  14.200  13.760  34.280
  263BOLB   C2A 6294  13.880  13.630  34.530
  263BOLB   C3A 6295  13.580  13.320  34.480
  263BOLB   C4A 6296  13.580  12.990  34.770
  263BOLB   C1B 6297  14.320  13.220  34.070
  263BOLB   C2B 6298  13.960  13.260  34.110
  263BOLB   C3B 6299  13.620  13.600  34.040
  263BOLB   C4B 6300  13.230  13.700  33.810
  263BOLB   NC2 6301  11.140  12.080  35.540
  263BOLB   PO2 6302  11.430  12.350  35.260
  263BOLB   GL3 6303  11.900  12.390  35.450
  263BOLB   GL4 6304  12.210  12.160  35.270
  263BOLB   C1C 6305  12.330  12.520  35.560
  263BOLB   C2C 6306  12.640  12.320  35.330
  263BOLB   C3C 6307  12.930  12.460  35.120
  263BOLB   C4C 6308  13.260  12.660  34.870
  263BOLB   C1D 6309  12.320  12.330  34.890
  263BOLB   C2D 6310  12.510  12.680  34.970
  263BOLB   C3D 6311  12.900  12.990  34.920
  263BOLB   C4D 6312  13.120  13.060  34.580
  264BOLB   NC1 6313  22.580  18.720  43.190
  264BOLB   PO1 6314  22.470  18.660  43.570
  264BOLB   GL1 6315  22.700  18.590  43.890
  264BOLB   GL2 6316  22.450  18.460  44.140
  264BOLB   C1A 6317  22.810  18.570  44.430
  264BOLB   C2A 6318  23.100  18.410  44.760
  264BOLB   C3A 6319  23.460  18.170  44.880
  264BOLB   C4A 6320  23.760  18.100  45.050
  264BOLB   C1B 6321  22.210  18.590  44.510
  264BOLB   C2B 6322  22.200  18.820  44.890
  264BOLB   C3B 6323  22.090  18.980  45.240
  264BOLB   C4B 6324  21.600  18.900  45.460
  264BOLB   NC2 6325  24.640  18.390  47.390
  264BOLB   PO2 6326  25.030  18.440  47.170
  264BOLB   GL3 6327  24.730  18.210  46.890
  264BOLB   GL4 6328  24.480  18.380  46.770
  264BOLB   C1C 6329  24.640  18.000  46.480
  264BOLB   C2C 6330  24.400  18.000  46.170
  264BOLB   C3C 6331  24.140  18.090  45.780
  264BOLB   C4C 6332  23.930  18.080  45.380
  264BOLB   C1D 6333  24.630  18.510  46.300
  264BOLB   C2D 6334  24.500  18.400  45.890
  264BOLB   C3D 6335  24.390  18.530  45.590
  264BOLB   C4D 6336  23.950  18.570  45.480
  265BOLB   NC1 6337  21.760  12.200  22.340
  265BOLB   PO1 6338  21.540  11.910  22.470
  265BOLB   GL1 6339  21.310  11.840  22.140
  265BOLB   GL2 6340  21.550  11.670  22.020
  265BOLB   C1A 6341  21.400  11.950  21.670
  265BOLB   C2A 6342  21.370  11.900  21.230
  265BOLB   C3A 6343  21.390  11.680  20.800
  265BOLB   C4A 6344  21.230  11.410  20.550
  265BOLB   C1B 6345  21.330  11.420  21.740
  265BOLB   C2B 6346  21.270  11.460  21.390
  265BOLB   C3B 6347  21.250  11.070  21.130
  265BOLB   C4B 6348  21.410  10.770  20.790
  265BOLB   NC2 6349  19.610   9.700  19.880
  265BOLB   PO2 6350  19.800   9.770  19.460
  265BOLB   GL3 6351  19.970  10.030  19.790
  265BOLB   GL4 6352  19.890  10.030  20.140
  265BOLB   C1C 6353  20.410  10.120  19.990
  265BOLB   C2C 6354  20.480  10.430  20.390
  265BOLB   C3C 6355  20.850  10.530  20.560
  265BOLB   C4C 6356  21.070  10.880  20.480
  265BOLB   C1D 6357  19.960  10.350  20.480
  265BOLB   C2D 6358  20.200  10.620  20.820
  265BOLB   C3D 6359  20.560  10.640  20.920
  265BOLB   C4D 6360  20.920  10.650  21.040
  266BOLB   NC1 6361  18.550  10.750  30.010
  266BOLB   PO1 6362  18.160  10.610  30.180
  266BOLB   GL1 6363  18.080  10.300  30.040
  266BOLB   GL2 6364  18.270  10.100  30.060
  266BOLB   C1A 6365  17.750  10.070  30.180
  266BOLB   C2A 6366  17.560   9.790  30.510
  266BOLB   C3A 6367  17.430   9.570  30.880
  266BOLB   C4A 6368  17.360   9.230  30.960
  266BOLB   C1B 6369  18.200   9.590  30.110
  266BOLB   C2B 6370  17.800   9.300  30.160
  266BOLB   C3B 6371  17.670   9.050  30.550
  266BOLB   C4B 6372  17.450   8.650  30.620
  266BOLB   NC2 6373  15.830   7.390  30.970
  266BOLB   PO2 6374  15.960   7.390  30.560
  266BOLB   GL3 6375  16.290   7.620  30.800
  266BOLB   GL4 6376  16.290   7.610  31.140
  266BOLB   C1C 6377  16.610   7.860  30.650
  266BOLB   C2C 6378  16.740   8.280  30.570
  266BOLB   C3C 6379  16.900   8.670  30.480
  266BOLB   C4C 6380  17.070   8.990  30.830
  266BOLB   C1D 6381  16.710   7.670  31.110
  266BOLB   C2D 6382  17.160   7.570  31.330
  266BOLB   C3D 6383  17.630   7.670  31.160
  266BOLB   C4D 6384  17.910   8.050  31.100
  267BOLB   NC1 6385  18.190  15.710  23.350
  267BOLB   PO1 6386  18.430  15.500  23.030
  267BOLB   GL1 6387  18.150  15.230  22.600
  267BOLB   GL2 6388  18.150  15.370  22.280
  267BOLB   C1A 6389  17.900  14.920  22.380
  267BOLB   C2A 6390  17.500  14.820  22.120
  267BOLB   C3A 6391  17.160  14.540  21.980
  267BOLB   C4A 6392  17.060  14.290  21.640
  267BOLB   C1B 6393  17.810  15.330  21.960
  267BOLB   C2B 6394  17.640  15.120  21.670
  267BOLB   C3B 6395  17.320  14.790  21.600
  267BOLB   C4B 6396  17.100  14.720  21.270
  267BOLB   NC2 6397  15.280  13.690  19.720
  267BOLB   PO2 6398  15.270  13.800  20.120
  267BOLB   GL3 6399  15.660  14.020  20.270
  267BOLB   GL4 6400  15.780  14.330  20.130
  267BOLB   C1C 6401  16.030  13.930  20.470
  267BOLB   C2C 6402  16.280  13.770  20.850
  267BOLB   C3C 6403  16.450  13.790  21.270
  267BOLB   C4C 6404  16.680  14.020  21.510
  267BOLB   C1D 6405  15.770  14.410  20.600
  267BOLB   C2D 6406  16.050  14.290  20.900
  267BOLB   C3D 6407  16.400  14.240  21.170
  267BOLB   C4D 6408  16.650  14.510  21.410
  268BOLB   NC1 6409  25.460  13.250  41.600
  268BOLB   PO1 6410  25.090  13.380  42.000
  268BOLB   GL1 6411  25.330  13.040  42.230
  268BOLB   GL2 6412  25.600  13.080  42.070
  268BOLB   C1A 6413  25.370  12.740  42.560
  268BOLB   C2A 6414  25.550  12.730  42.960
  268BOLB   C3A 6415  25.700  13.050  43.350
  268BOLB   C4A 6416  25.790  13.150  43.720
  268BOLB   C1B 6417  25.830  12.720  42.220
  268BOLB   C2B 6418  25.960  12.480  42.540
  268BOLB   C3B 6419  26.170  12.160  42.740
  268BOLB   C4B 6420  26.515  11.910  42.830
  268BOLB   NC2 6421  26.715  12.750  45.830
  268BOLB   PO2 6422  26.655  12.410  45.670
  268BOLB   GL3 6423  26.505  12.740  45.300
  268BOLB   GL4 6424  26.380  12.560  45.100
  268BOLB   C1C 6425  26.350  13.200  45.080
  268BOLB   C2C 6426  25.970  13.350  44.900
  268BOLB   C3C 6427  25.820  13.460  44.480
  268BOLB   C4C 6428  25.670  13.250  44.130
  268BOLB   C1D 6429  26.320  12.810  44.810
  268BOLB   C2D 6430  26.000  12.920  44.570
  268BOLB   C3D 6431  25.910  12.770  44.190
  268BOLB   C4D 6432  25.860  12.480  43.870
  269BOLB   NC1 6433  25.260  13.240  23.330
  269BOLB   PO1 6434  25.340  12.960  23.090
  269BOLB   GL1 6435  25.590  12.790  22.580
  269BOLB   GL2 6436  25.910  12.600  22.720
  269BOLB   C1A 6437  25.750  12.510  22.220
  269BOLB   C2A 6438  25.780  12.190  21.920
  269BOLB   C3A 6439  25.890  11.790  21.850
  269BOLB   C4A 6440  25.840  11.490  21.440
  269BOLB   C1B 6441  26.230  12.480  22.540
  269BOLB   C2B 6442  26.220  12.310  22.190
  269BOLB   C3B 6443  26.330  12.170  21.800
  269BOLB   C4B 6444  26.400  12.410  21.390
  269BOLB   NC2 6445  27.155   9.520  19.710
  269BOLB   PO2 6446  27.055   9.770  20.040
  269BOLB   GL3 6447  26.635  10.140  20.020
  269BOLB   GL4 6448  26.330   9.950  20.110
  269BOLB   C1C 6449  26.360  10.650  20.150
  269BOLB   C2C 6450  25.940  10.770  20.330
  269BOLB   C3C 6451  25.790  10.970  20.760
  269BOLB   C4C 6452  25.790  11.260  21.090
  269BOLB   C1D 6453  26.120  10.210  20.300
  269BOLB   C2D 6454  25.870  10.360  20.660
  269BOLB   C3D 6455  25.740  10.240  21.070
  269BOLB   C4D 6456  25.380  10.290  21.330
  270BOLB   NC1 6457  13.760  17.760  30.050
  270BOLB   PO1 6458  13.500  18.070  30.260
  270BOLB   GL1 6459  13.150  17.890  30.210
  270BOLB   GL2 6460  13.240  17.610  30.230
  270BOLB   C1A 6461  12.850  17.800  29.960
  270BOLB   C2A 6462  12.540  18.000  29.850
  270BOLB   C3A 6463  12.060  17.860  29.750
  270BOLB   C4A 6464  11.700  17.800  29.450
  270BOLB   C1B 6465  12.830  17.580  30.410
  270BOLB   C2B 6466  12.480  17.880  30.410
  270BOLB   C3B 6467  12.110  17.890  30.300
  270BOLB   C4B 6468  11.730  18.070  30.020
  270BOLB   NC2 6469   9.280  18.060  29.580
  270BOLB   PO2 6470   9.410  18.440  29.390
  270BOLB   GL3 6471   9.790  18.240  29.200
  270BOLB   GL4 6472   9.870  18.130  28.900
  270BOLB   C1C 6473  10.140  18.090  29.460
  270BOLB   C2C 6474  10.480  17.990  29.350
  270BOLB   C3C 6475  10.930  17.970  29.300
  270BOLB   C4C 6476  11.330  17.850  29.200
  270BOLB   C1D 6477  10.250  18.310  28.980
  270BOLB   C2D 6478  10.450  18.620  29.260
  270BOLB   C3D 6479  10.470  18.480  29.700
  270BOLB   C4D 6480  10.380  18.640  30.110
  271BOLB   NC1 6481  20.430  10.040  26.120
  271BOLB   PO1 6482  20.170  10.260  25.820
  271BOLB   GL1 6483  20.220   9.830  25.590
  271BOLB   GL2 6484  20.380   9.810  25.340
  271BOLB   C1A 6485  20.030   9.470  25.670
  271BOLB   C2A 6486  19.770   9.270  25.700
  271BOLB   C3A 6487  19.550   8.920  25.620
  271BOLB   C4A 6488  19.240   8.570  25.680
  271BOLB   C1B 6489  20.190   9.450  25.190
  271BOLB   C2B 6490  20.040   9.210  24.820
  271BOLB   C3B 6491  20.060   9.060  24.420
  271BOLB   C4B 6492  20.020   9.250  24.080
  271BOLB   NC2 6493  18.970   6.440  24.650
  271BOLB   PO2 6494  18.530   6.620  24.600
  271BOLB   GL3 6495  18.380   7.130  24.510
  271BOLB   GL4 6496  18.720   7.070  24.410
  271BOLB   C1C 6497  18.380   7.500  24.790
  271BOLB   C2C 6498  18.340   7.770  25.210
  271BOLB   C3C 6499  18.520   8.070  25.560
  271BOLB   C4C 6500  18.890   8.330  25.560
  271BOLB   C1D 6501  18.810   7.390  24.550
  271BOLB   C2D 6502  18.960   7.820  24.570
  271BOLB   C3D 6503  19.200   8.190  24.600
  271BOLB   C4D 6504  19.450   8.590  24.720
  272BOLB   NC1 6505  13.420  19.080  30.080
  272BOLB   PO1 6506  13.230  19.200  29.720
  272BOLB   GL1 6507  12.690  19.080  29.620
  272BOLB   GL2 6508  12.470  19.280  29.730
  272BOLB   C1A 6509  12.290  18.960  29.410
  272BOLB   C2A 6510  11.970  18.840  29.510
  272BOLB   C3A 6511  11.580  18.740  29.560
  272BOLB   C4A 6512  11.260  18.730  29.770
  272BOLB   C1B 6513  12.110  19.340  29.610
  272BOLB   C2B 6514  11.760  19.760  29.560
  272BOLB   C3B 6515  11.530  19.980  29.880
  272BOLB   C4B 6516  11.800  20.070  30.270
  272BOLB   NC2 6517   9.020  18.440  30.700
  272BOLB   PO2 6518   9.240  18.650  30.970
  272BOLB   GL3 6519   9.590  18.810  30.710
  272BOLB   GL4 6520   9.460  18.720  30.390
  272BOLB   C1C 6521   9.970  19.060  30.560
  272BOLB   C2C 6522  10.440  19.120  30.460
  272BOLB   C3C 6523  10.750  19.090  30.180
  272BOLB   C4C 6524  10.870  18.710  29.910
  272BOLB   C1D 6525   9.910  18.750  30.160
  272BOLB   C2D 6526  10.060  18.800  29.710
  272BOLB   C3D 6527  10.080  19.140  29.450
  272BOLB   C4D 6528  10.270  19.520  29.530
  273BOLB   NC1 6529  21.130  23.380  27.150
  273BOLB   PO1 6530  21.090  23.220  27.550
  273BOLB   GL1 6531  20.930  23.630  27.530
  273BOLB   GL2 6532  20.760  23.840  27.750
  273BOLB   C1A 6533  21.040  24.070  27.370
  273BOLB   C2A 6534  20.970  24.430  27.080
  273BOLB   C3A 6535  21.200  24.730  26.760
  273BOLB   C4A 6536  21.640  25.010  26.560
  273BOLB   C1B 6537  20.910  24.260  27.790
  273BOLB   C2B 6538  20.980  24.650  27.620
  273BOLB   C3B 6539  21.110  24.880  27.260
  273BOLB   C4B 6540  21.360  25.200  27.090
  273BOLB   NC2 6541  23.440  26.150  26.320
  273BOLB   PO2 6542  23.200   0.090  26.400
  273BOLB   GL3 6543  22.900  26.280  26.400
  273BOLB   GL4 6544  22.930  26.090  26.170
  273BOLB   C1C 6545  22.630  26.070  26.770
  273BOLB   C2C 6546  22.480  25.630  26.810
  273BOLB   C3C 6547  22.450  25.170  26.670
  273BOLB   C4C 6548  22.080  24.940  26.530
  273BOLB   C1D 6549  22.960  25.760  26.530
  273BOLB   C2D 6550  22.930  25.420  26.800
  273BOLB   C3D 6551  22.910  24.890  26.600
  273BOLB   C4D 6552  22.640  24.550  26.650
  274BOLB   NC1 6553  16.650  23.880  35.690
  274BOLB   PO1 6554  16.720  24.280  35.850
  274BOLB   GL1 6555  16.530  24.510  36.030
  274BOLB   GL2 6556  16.380  24.680  35.720
  274BOLB   C1A 6557  16.420  24.940  36.180
  274BOLB   C2A 6558  16.610  25.250  36.240
  274BOLB   C3A 6559  16.600  25.590  36.200
  274BOLB   C4A 6560  16.480  25.980  36.380
  274BOLB   C1B 6561  15.970  24.870  35.790
  274BOLB   C2B 6562  15.600  25.210  35.830
  274BOLB   C3B 6563  15.290  25.480  36.010
  274BOLB   C4B 6564  14.960  25.770  36.000
  274BOLB   NC2 6565  16.280   1.810  37.650
  274BOLB   PO2 6566  16.420   1.800  37.190
  274BOLB   GL3 6567  16.490   1.420  36.870
  274BOLB   GL4 6568  16.780   1.500  36.660
  274BOLB   C1C 6569  16.220   1.230  36.690
  274BOLB   C2C 6570  16.030   0.830  36.660
  274BOLB   C3C 6571  16.160   0.350  36.690
  274BOLB   C4C 6572  16.290  26.380  36.540
  274BOLB   C1D 6573  16.650   1.170  36.410
  274BOLB   C2D 6574  16.540   0.810  36.690
  274BOLB   C3D 6575  16.670   0.390  36.590
  274BOLB   C4D 6576  16.690   0.160  36.240
  275BOLB   NC1 6577  24.060  10.480  39.990
  275BOLB   PO1 6578  23.590  10.500  39.930
  275BOLB   GL1 6579  23.370  10.230  40.180
  275BOLB   GL2 6580  23.250   9.940  40.060
  275BOLB   C1A 6581  23.330   9.940  40.560
  275BOLB   C2A 6582  23.360   9.520  40.770
  275BOLB   C3A 6583  23.470   9.230  41.060
  275BOLB   C4A 6584  23.330   8.910  41.000
  275BOLB   C1B 6585  23.260   9.530  40.210
  275BOLB   C2B 6586  23.010   9.300  40.430
  275BOLB   C3B 6587  22.940   9.250  40.910
  275BOLB   C4B 6588  23.030   9.190  41.340
  275BOLB   NC2 6589  23.480   7.000  42.340
  275BOLB   PO2 6590  23.960   7.060  42.160
  275BOLB   GL3 6591  24.060   7.240  41.870
  275BOLB   GL4 6592  24.040   7.620  41.910
  275BOLB   C1C 6593  23.870   7.480  41.470
  275BOLB   C2C 6594  24.020   7.780  41.240
  275BOLB   C3C 6595  23.850   8.070  41.030
  275BOLB   C4C 6596  23.520   8.440  41.080
  275BOLB   C1D 6597  24.050   8.060  41.880
  275BOLB   C2D 6598  23.940   8.510  41.840
  275BOLB   C3D 6599  24.010   9.010  41.690
  275BOLB   C4D 6600  24.190   8.910  41.250
  276BOLB   NC1 6601  23.330  21.720  38.560
  276BOLB   PO1 6602  23.430  21.970  38.210
  276BOLB   GL1 6603  23.670  22.390  38.260
  276BOLB   GL2 6604  23.620  22.490  37.960
  276BOLB   C1A 6605  24.060  22.500  38.490
  276BOLB   C2A 6606  24.290  22.900  38.690
  276BOLB   C3A 6607  24.560  23.320  38.770
  276BOLB   C4A 6608  24.700  23.670  38.810
  276BOLB   C1B 6609  23.660  22.870  38.130
  276BOLB   C2B 6610  23.860  23.020  38.570
  276BOLB   C3B 6611  24.060  23.410  38.760
  276BOLB   C4B 6612  24.260  23.670  39.050
  276BOLB   NC2 6613  24.760  26.140  38.570
  276BOLB   PO2 6614  25.040  26.190  38.150
  276BOLB   GL3 6615  24.930  25.790  38.210
  276BOLB   GL4 6616  24.740  25.860  37.960
  276BOLB   C1C 6617  24.610  25.400  38.410
  276BOLB   C2C 6618  24.620  24.900  38.510
  276BOLB   C3C 6619  24.760  24.530  38.630
  276BOLB   C4C 6620  24.580  24.140  38.780
  276BOLB   C1D 6621  24.620  25.390  37.890
  276BOLB   C2D 6622  24.270  25.200  37.970
  276BOLB   C3D 6623  24.170  24.870  37.820
  276BOLB   C4D 6624  23.880  24.570  37.960
  277BOLB   NC1 6625  22.910   9.530  39.350
  277BOLB   PO1 6626  23.080   9.480  38.910
  277BOLB   GL1 6627  23.070   9.090  39.140
  277BOLB   GL2 6628  23.050   9.040  39.400
  277BOLB   C1A 6629  22.980   8.580  39.260
  277BOLB   C2A 6630  22.690   8.330  39.490
  277BOLB   C3A 6631  22.580   8.210  39.850
  277BOLB   C4A 6632  22.620   8.040  40.280
  277BOLB   C1B 6633  23.180   8.740  39.670
  277BOLB   C2B 6634  23.150   8.330  39.750
  277BOLB   C3B 6635  22.970   7.920  39.580
  277BOLB   C4B 6636  23.100   7.510  39.400
  277BOLB   NC2 6637  23.050   6.280  41.730
  277BOLB   PO2 6638  22.790   6.570  41.880
  277BOLB   GL3 6639  22.870   6.980  41.820
  277BOLB   GL4 6640  23.210   7.090  41.970
  277BOLB   C1C 6641  22.960   7.490  41.700
  277BOLB   C2C 6642  22.690   7.840  41.470
  277BOLB   C3C 6643  22.480   8.020  41.110
  277BOLB   C4C 6644  22.650   7.890  40.750
  277BOLB   C1D 6645  23.410   7.460  41.900
  277BOLB   C2D 6646  23.530   7.770  41.650
  277BOLB   C3D 6647  23.690   8.080  41.530
  277BOLB   C4D 6648  23.430   8.420  41.600
  278BOLB   NC1 6649  16.860  23.160  35.380
  278BOLB   PO1 6650  16.410  23.290  35.430
  278BOLB   GL1 6651  16.140  23.550  35.720
  278BOLB   GL2 6652  16.010  23.880  35.640
  278BOLB   C1A 6653  15.820  23.830  36.100
  278BOLB   C2A 6654  15.620  24.190  36.200
  278BOLB   C3A 6655  15.230  24.420  36.330
  278BOLB   C4A 6656  15.160  24.720  36.770
  278BOLB   C1B 6657  15.830  24.260  35.750
  278BOLB   C2B 6658  15.560  24.680  35.940
  278BOLB   C3B 6659  15.230  24.870  36.090
  278BOLB   C4B 6660  14.860  25.110  35.960
  278BOLB   NC2 6661  13.970   0.510  37.480
  278BOLB   PO2 6662  13.970   0.670  36.980
  278BOLB   GL3 6663  13.930   0.140  37.020
  278BOLB   GL4 6664  13.930  26.440  37.340
  278BOLB   C1C 6665  14.190  26.170  36.780
  278BOLB   C2C 6666  14.550  25.760  36.820
  278BOLB   C3C 6667  14.910  25.520  36.830
  278BOLB   C4C 6668  15.110  25.190  36.580
  278BOLB   C1D 6669  14.210  26.230  37.270
  278BOLB   C2D 6670  14.570  26.330  37.140
  278BOLB   C3D 6671  14.710  26.340  36.760
  278BOLB   C4D 6672  14.790   0.200  36.600
  279BOLB   NC1 6673  22.300  23.320  36.300
  279BOLB   PO1 6674  22.720  23.220  36.080
  279BOLB   GL1 6675  23.120  23.570  36.170
  279BOLB   GL2 6676  23.230  23.450  36.390
  279BOLB   C1A 6677  23.330  23.900  36.080
  279BOLB   C2A 6678  23.760  23.930  36.190
  279BOLB   C3A 6679  24.140  24.150  36.350
  279BOLB   C4A 6680  24.360  24.480  36.680
  279BOLB   C1B 6681  23.380  23.680  36.640
  279BOLB   C2B 6682  23.570  24.090  36.640
  279BOLB   C3B 6683  23.860  24.210  36.830
  279BOLB   C4B 6684  24.000  24.580  37.040
  279BOLB   NC2 6685  26.010  25.730  37.850
  279BOLB   PO2 6686  25.840  25.410  37.940
  279BOLB   GL3 6687  25.530  25.210  38.110
  279BOLB   GL4 6688  25.540  25.170  38.490
  279BOLB   C1C 6689  25.270  24.920  37.970
  279BOLB   C2C 6690  25.020  24.970  37.520
  279BOLB   C3C 6691  24.770  24.780  37.280
  279BOLB   C4C 6692  24.460  24.750  36.920
  279BOLB   C1D 6693  25.260  24.810  38.480
  279BOLB   C2D 6694  24.930  24.580  38.150
  279BOLB   C3D 6695  24.680  24.870  37.930
  279BOLB   C4D 6696  24.530  25.090  37.540
  280BOLB   NC1 6697  18.990  13.380  23.710
  280BOLB   PO1 6698  18.770  13.700  23.510
  280BOLB   GL1 6699  18.570  13.380  23.430
  280BOLB   GL2 6700  18.200  13.290  23.460
  280BOLB   C1A 6701  18.480  13.240  22.990
  280BOLB   C2A 6702  18.150  12.940  22.650
  280BOLB   C3A 6703  18.220  12.760  22.270
  280BOLB   C4A 6704  18.030  12.410  22.050
  280BOLB   C1B 6705  17.980  13.030  23.160
  280BOLB   C2B 6706  17.590  12.960  22.950
  280BOLB   C3B 6707  17.260  12.750  22.740
  280BOLB   C4B 6708  16.990  12.520  22.490
  280BOLB   NC2 6709  17.260  10.650  19.860
  280BOLB   PO2 6710  17.300  11.150  20.160
  280BOLB   GL3 6711  17.610  11.460  20.270
  280BOLB   GL4 6712  17.630  11.770  20.120
  280BOLB   C1C 6713  17.380  11.720  20.600
  280BOLB   C2C 6714  17.390  11.900  21.020
  280BOLB   C3C 6715  17.580  12.040  21.470
  280BOLB   C4C 6716  17.670  12.230  21.850
  280BOLB   C1D 6717  17.770  11.990  20.430
  280BOLB   C2D 6718  17.810  12.160  20.840
  280BOLB   C3D 6719  18.040  12.400  21.050
  280BOLB   C4D 6720  18.470  12.550  21.180
  281BOLB   NC1 6721  28.525   9.360  36.330
  281BOLB   PO1 6722  28.505   9.570  36.660
  281BOLB   GL1 6723  28.785   9.230  36.770
  281BOLB   GL2 6724  28.935   9.220  36.530
  281BOLB   C1A 6725  29.305   9.060  36.840
  281BOLB   C2A 6726  29.745   9.030  36.790
  281BOLB   C3A 6727  30.085   8.850  36.860
  281BOLB   C4A 6728  30.545   8.930  36.850
  281BOLB   C1B 6729  29.395   9.220  36.390
  281BOLB   C2B 6730  29.815   9.200  36.260
  281BOLB   C3B 6731  30.195   9.050  36.040
  281BOLB   C4B 6732  30.385   8.710  35.810
  281BOLB   NC2 6733  32.005   7.500  37.920
  281BOLB   PO2 6734  31.775   7.440  37.520
  281BOLB   GL3 6735  31.545   7.760  37.530
  281BOLB   GL4 6736  31.175   7.590  37.680
  281BOLB   C1C 6737  31.705   8.100  37.290
  281BOLB   C2C 6738  31.695   8.420  37.020
  281BOLB   C3C 6739  31.335   8.680  36.850
  281BOLB   C4C 6740  30.965   8.770  36.950
  281BOLB   C1D 6741  31.065   7.950  37.550
  281BOLB   C2D 6742  30.835   8.230  37.710
  281BOLB   C3D 6743  30.555   8.530  37.670
  281BOLB   C4D 6744  30.315   8.730  37.300
  282BOLB   NC1 6745  25.640  19.300  35.360
  282BOLB   PO1 6746  25.880  19.690  35.340
  282BOLB   GL1 6747  26.330  19.470  35.220
  282BOLB   GL2 6748  26.430  19.210  35.020
  282BOLB   C1A 6749  26.755  19.600  35.060
  282BOLB   C2A 6750  27.055  19.850  34.720
  282BOLB   C3A 6751  27.295  20.240  34.670
  282BOLB   C4A 6752  27.455  20.570  34.890
  282BOLB   C1B 6753  26.735  19.400  34.620
  282BOLB   C2B 6754  27.075  19.430  34.370
  282BOLB   C3B 6755  27.405  19.700  34.350
  282BOLB   C4B 6756  27.665  20.020  34.340
  282BOLB   NC2 6757  29.255  22.300  33.840
  282BOLB   PO2 6758  29.325  21.920  33.970
  282BOLB   GL3 6759  29.245  21.710  34.410
  282BOLB   GL4 6760  29.255  21.400  34.310
  282BOLB   C1C 6761  28.715  21.640  34.570
  282BOLB   C2C 6762  28.515  21.310  34.650
  282BOLB   C3C 6763  28.125  21.130  34.770
  282BOLB   C4C 6764  27.755  20.890  34.850
  282BOLB   C1D 6765  28.975  21.240  34.280
  282BOLB   C2D 6766  28.665  20.920  34.230
  282BOLB   C3D 6767  28.275  20.810  34.440
  282BOLB   C4D 6768  27.875  20.620  34.480
  283BOLB   NC1 6769  25.020   7.390  35.120
  283BOLB   PO1 6770  25.110   7.570  35.510
  283BOLB   GL1 6771  25.030   7.120  35.500
  283BOLB   GL2 6772  24.880   7.060  35.720
  283BOLB   C1A 6773  25.280   6.740  35.790
  283BOLB   C2A 6774  25.260   6.530  36.180
  283BOLB   C3A 6775  25.300   6.360  36.560
  283BOLB   C4A 6776  25.360   5.980  36.830
  283BOLB   C1B 6777  24.930   6.650  35.460
  283BOLB   C2B 6778  25.050   6.300  35.540
  283BOLB   C3B 6779  25.190   5.940  35.180
  283BOLB   C4B 6780  25.200   5.590  34.960
  283BOLB   NC2 6781  26.190   4.080  38.420
  283BOLB   PO2 6782  26.180   4.130  38.000
  283BOLB   GL3 6783  25.990   4.510  38.090
  283BOLB   GL4 6784  25.950   4.500  38.360
  283BOLB   C1C 6785  26.150   4.910  37.900
  283BOLB   C2C 6786  26.040   5.330  37.790
  283BOLB   C3C 6787  25.720   5.540  37.510
  283BOLB   C4C 6788  25.490   5.800  37.200
  283BOLB   C1D 6789  25.790   4.900  38.310
  283BOLB   C2D 6790  25.930   5.270  38.380
  283BOLB   C3D 6791  26.230   5.470  38.250
  283BOLB   C4D 6792  26.430   5.890  38.480
  284BOLB   NC1 6793  26.420   9.260  38.110
  284BOLB   PO1 6794  26.685   9.020  37.870
  284BOLB   GL1 6795  26.725   8.740  38.190
  284BOLB   GL2 6796  26.350   8.530  38.190
  284BOLB   C1A 6797  26.675   8.370  38.560
  284BOLB   C2A 6798  26.865   8.010  38.810
  284BOLB   C3A 6799  27.185   7.770  38.990
  284BOLB   C4A 6800  27.565   7.610  39.030
  284BOLB   C1B 6801  26.430   8.110  38.180
  284BOLB   C2B 6802  26.455   7.800  38.430
  284BOLB   C3B 6803  26.380   7.400  38.700
  284BOLB   C4B 6804  26.535   7.130  39.070
  284BOLB   NC2 6805  29.435   6.600  39.880
  284BOLB   PO2 6806  29.665   6.500  39.460
  284BOLB   GL3 6807  29.315   6.830  39.370
  284BOLB   GL4 6808  29.125   6.950  39.700
  284BOLB   C1C 6809  28.975   7.020  39.100
  284BOLB   C2C 6810  28.555   7.010  38.970
  284BOLB   C3C 6811  28.115   6.940  39.130
  284BOLB   C4C 6812  27.715   7.250  39.170
  284BOLB   C1D 6813  28.965   7.370  39.530
  284BOLB   C2D 6814  28.515   7.580  39.670
  284BOLB   C3D 6815  28.285   7.930  39.520
  284BOLB   C4D 6816  28.045   8.270  39.860
  285BOLB   NC1 6817  28.645  13.370  19.780
  285BOLB   PO1 6818  28.325  13.130  20.050
  285BOLB   GL1 6819  28.165  13.420  20.290
  285BOLB   GL2 6820  28.335  13.690  20.210
  285BOLB   C1A 6821  27.995  13.630  20.650
  285BOLB   C2A 6822  27.865  13.990  20.850
  285BOLB   C3A 6823  27.575  14.270  21.050
  285BOLB   C4A 6824  27.295  14.250  21.440
  285BOLB   C1B 6825  28.305  14.030  20.530
  285BOLB   C2B 6826  28.105  14.340  20.570
  285BOLB   C3B 6827  28.085  14.740  20.340
  285BOLB   C4B 6828  27.945  15.150  20.110
  285BOLB   NC2 6829  26.040  14.810  23.400
  285BOLB   PO2 6830  25.860  14.440  23.090
  285BOLB   GL3 6831  25.920  14.680  22.800
  285BOLB   GL4 6832  26.090  14.900  22.840
  285BOLB   C1C 6833  26.010  14.620  22.340
  285BOLB   C2C 6834  26.330  14.540  22.080
  285BOLB   C3C 6835  26.525  14.600  21.660
  285BOLB   C4C 6836  26.985  14.490  21.510
  285BOLB   C1D 6837  26.455  14.860  22.530
  285BOLB   C2D 6838  26.785  14.640  22.300
  285BOLB   C3D 6839  26.775  14.270  22.030
  285BOLB   C4D 6840  26.725  14.120  21.570
  286BOLB   NC1 6841  20.220   9.440  35.330
  286BOLB   PO1 6842  20.170   9.740  35.690
  286BOLB   GL1 6843  20.050   9.390  35.870
  286BOLB   GL2 6844  20.000   9.330  36.140
  286BOLB   C1A 6845  19.730   8.990  35.830
  286BOLB   C2A 6846  19.300   8.830  35.780
  286BOLB   C3A 6847  18.970   8.580  35.580
  286BOLB   C4A 6848  18.650   8.310  35.660
  286BOLB   C1B 6849  19.930   9.020  36.470
  286BOLB   C2B 6850  19.760   8.680  36.600
  286BOLB   C3B 6851  19.810   8.250  36.460
  286BOLB   C4B 6852  19.690   7.820  36.440
  286BOLB   NC2 6853  17.430   6.080  35.720
  286BOLB   PO2 6854  17.390   6.480  35.660
  286BOLB   GL3 6855  17.840   6.570  35.790
  286BOLB   GL4 6856  17.810   6.890  35.940
  286BOLB   C1C 6857  18.310   6.790  35.720
  286BOLB   C2C 6858  18.440   7.130  35.920
  286BOLB   C3C 6859  18.360   7.610  35.930
  286BOLB   C4C 6860  18.380   7.950  35.850
  286BOLB   C1D 6861  17.960   7.240  35.890
  286BOLB   C2D 6862  17.920   7.650  36.130
  286BOLB   C3D 6863  17.970   8.050  36.060
  286BOLB   C4D 6864  18.130   8.550  36.110
  287BOLB   NC1 6865  16.140  24.320  34.970
  287BOLB   PO1 6866  16.570  24.390  35.090
  287BOLB   GL1 6867  16.350  24.780  35.210
  287BOLB   GL2 6868  16.240  24.870  34.920
  287BOLB   C1A 6869  16.260  25.240  35.200
  287BOLB   C2A 6870  16.420  25.590  35.220
  287BOLB   C3A 6871  16.650  25.980  35.170
  287BOLB   C4A 6872  16.710  26.340  35.420
  287BOLB   C1B 6873  15.890  25.200  34.830
  287BOLB   C2B 6874  15.790  25.580  35.000
  287BOLB   C3B 6875  15.780  26.030  34.930
  287BOLB   C4B 6876  15.910  26.400  34.770
  287BOLB   NC2 6877  15.460   2.140  35.420
  287BOLB   PO2 6878  15.730   2.370  35.490
  287BOLB   GL3 6879  15.960   1.910  35.480
  287BOLB   GL4 6880  16.070   1.750  35.850
  287BOLB   C1C 6881  15.880   1.410  35.440
  287BOLB   C2C 6882  16.090   1.030  35.620
  287BOLB   C3C 6883  16.330   0.690  35.640
  287BOLB   C4C 6884  16.700   0.380  35.670
  287BOLB   C1D 6885  15.750   1.440  35.950
  287BOLB   C2D 6886  15.510   1.170  35.660
  287BOLB   C3D 6887  15.580   0.880  35.460
  287BOLB   C4D 6888  15.310   0.440  35.380
  288BOLB   NC1 6889  19.900  23.220  37.400
  288BOLB   PO1 6890  20.020  23.730  37.250
  288BOLB   GL1 6891  20.030  24.250  37.130
  288BOLB   GL2 6892  19.770  24.270  36.850
  288BOLB   C1A 6893  20.220  24.580  37.390
  288BOLB   C2A 6894  20.070  24.640  37.830
  288BOLB   C3A 6895  19.980  24.950  38.130
  288BOLB   C4A 6896  19.990  25.300  38.360
  288BOLB   C1B 6897  19.850  24.730  37.000
  288BOLB   C2B 6898  20.050  24.990  37.260
  288BOLB   C3B 6899  20.220  25.350  37.370
  288BOLB   C4B 6900  20.570  25.580  37.550
  288BOLB   NC2 6901  19.670   1.310  38.940
  288BOLB   PO2 6902  19.460   1.000  38.720
  288BOLB   GL3 6903  19.780   0.680  38.500
  288BOLB   GL4 6904  20.070   0.700  38.370
  288BOLB   C1C 6905  19.750   0.250  38.380
  288BOLB   C2C 6906  19.650  26.440  38.020
  288BOLB   C3C 6907  19.640  26.000  37.860
  288BOLB   C4C 6908  19.640  25.490  38.110
  288BOLB   C1D 6909  19.910   0.930  37.890
  288BOLB   C2D 6910  19.930   0.720  37.480
  288BOLB   C3D 6911  19.870   0.390  37.200
  288BOLB   C4D 6912  19.800   0.020  36.970
  289BOLB   NC1 6913  14.830  16.760  36.410
  289BOLB   PO1 6914  14.310  16.740  36.580
  289BOLB   GL1 6915  14.060  16.400  36.450
  289BOLB   GL2 6916  13.980  16.180  36.680
  289BOLB   C1A 6917  13.550  16.400  36.600
  289BOLB   C2A 6918  13.170  16.400  36.830
  289BOLB   C3A 6919  12.800  16.180  37.130
  289BOLB   C4A 6920  12.710  15.880  37.390
  289BOLB   C1B 6921  13.740  15.970  36.840
  289BOLB   C2B 6922  13.220  15.870  36.850
  289BOLB   C3B 6923  12.840  15.770  36.700
  289BOLB   C4B 6924  12.430  15.990  36.860
  289BOLB   NC2 6925  10.360  16.700  38.390
  289BOLB   PO2 6926  10.710  16.670  38.140
  289BOLB   GL3 6927  11.110  16.610  37.980
  289BOLB   GL4 6928  11.120  16.900  37.860
  289BOLB   C1C 6929  11.520  16.430  37.770
  289BOLB   C2C 6930  11.940  16.310  37.690
  289BOLB   C3C 6931  12.100  15.940  37.790
  289BOLB   C4C 6932  12.360  15.750  37.660
  289BOLB   C1D 6933  11.440  17.110  37.640
  289BOLB   C2D 6934  11.750  17.390  37.470
  289BOLB   C3D 6935  11.960  17.750  37.450
  289BOLB   C4D 6936  12.340  17.720  37.310
  290BOLB   NC1 6937  18.270  15.740  22.640
  290BOLB   PO1 6938  18.100  15.920  22.250
  290BOLB   GL1 6939  18.070  15.730  21.900
  290BOLB   GL2 6940  18.320  15.780  21.810
  290BOLB   C1A 6941  17.860  15.700  21.550
  290BOLB   C2A 6942  17.830  15.900  21.130
  290BOLB   C3A 6943  18.120  15.930  20.740
  290BOLB   C4A 6944  18.240  15.610  20.460
  290BOLB   C1B 6945  18.390  15.740  21.370
  290BOLB   C2B 6946  18.440  15.640  20.960
  290BOLB   C3B 6947  18.100  15.270  20.830
  290BOLB   C4B 6948  17.760  15.070  20.690
  290BOLB   NC2 6949  17.570  14.460  18.420
  290BOLB   PO2 6950  17.460  14.890  18.210
  290BOLB   GL3 6951  17.910  14.890  18.440
  290BOLB   GL4 6952  17.760  14.750  18.810
  290BOLB   C1C 6953  17.810  15.220  18.860
  290BOLB   C2C 6954  17.690  15.160  19.330
  290BOLB   C3C 6955  17.820  15.310  19.700
  290BOLB   C4C 6956  18.140  15.500  20.000
  290BOLB   C1D 6957  18.120  14.880  19.070
  290BOLB   C2D 6958  18.510  14.900  19.250
  290BOLB   C3D 6959  18.840  14.780  19.510
  290BOLB   C4D 6960  19.070  14.680  19.830
  291BOLB   NC1 6961  19.410  12.770  24.250
  291BOLB   PO1 6962  19.120  12.880  23.900
  291BOLB   GL1 6963  18.860  12.900  23.580
  291BOLB   GL2 6964  18.950  12.690  23.410
  291BOLB   C1A 6965  18.480  12.890  23.410
  291BOLB   C2A 6966  18.320  12.690  23.090
  291BOLB   C3A 6967  17.960  12.570  22.970
  291BOLB   C4A 6968  17.750  12.420  22.730
  291BOLB   C1B 6969  18.660  12.420  23.250
  291BOLB   C2B 6970  18.290  12.180  23.210
  291BOLB   C3B 6971  18.080  11.990  22.920
  291BOLB   C4B 6972  18.070  11.640  22.690
  291BOLB   NC2 6973  16.300  10.160  21.230
  291BOLB   PO2 6974  16.180  10.690  21.310
  291BOLB   GL3 6975  16.230  11.090  21.540
  291BOLB   GL4 6976  16.070  11.280  21.360
  291BOLB   C1C 6977  16.640  11.210  21.810
  291BOLB   C2C 6978  16.930  11.530  22.160
  291BOLB   C3C 6979  17.100  11.890  22.450
  291BOLB   C4C 6980  17.470  12.350  22.490
  291BOLB   C1D 6981  16.390  11.590  21.610
  291BOLB   C2D 6982  16.600  11.770  22.000
  291BOLB   C3D 6983  16.560  11.860  22.390
  291BOLB   C4D 6984  16.550  11.860  22.770
  292BOLB   NC1 6985  31.405  13.030  23.170
  292BOLB   PO1 6986  31.505  13.000  23.650
  292BOLB   GL1 6987  31.155  12.800  23.480
  292BOLB   GL2 6988  30.905  13.030  23.180
  292BOLB   C1A 6989  30.685  12.700  23.560
  292BOLB   C2A 6990  30.265  12.670  23.770
  292BOLB   C3A 6991  29.855  12.690  23.980
  292BOLB   C4A 6992  29.355  12.380  24.040
  292BOLB   C1B 6993  30.675  13.190  23.540
  292BOLB   C2B 6994  30.845  13.320  23.890
  292BOLB   C3B 6995  30.935  13.580  24.310
  292BOLB   C4B 6996  30.685  13.750  24.610
  292BOLB   NC2 6997  30.435  10.070  22.530
  292BOLB   PO2 6998  30.175  10.460  22.650
  292BOLB   GL3 6999  30.125  10.790  23.020
  292BOLB   GL4 7000  29.805  10.820  22.970
  292BOLB   C1C 7001  29.885  11.100  23.430
  292BOLB   C2C 7002  29.905  11.370  23.750
  292BOLB   C3C 7003  29.645  11.550  24.060
  292BOLB   C4C 7004  29.425  11.970  24.190
  292BOLB   C1D 7005  29.375  10.690  22.960
  292BOLB   C2D 7006  29.075  10.890  23.290
  292BOLB   C3D 7007  28.795  11.040  23.570
  292BOLB   C4D 7008  28.605  11.430  23.730
  293BOLB   NC1 7009  24.770  19.110  25.320
  293BOLB   PO1 7010  24.890  19.130  25.840
  293BOLB   GL1 7011  25.100  19.440  25.620
  293BOLB   GL2 7012  25.250  19.530  25.900
  293BOLB   C1A 7013  25.430  19.400  25.350
  293BOLB   C2A 7014  25.700  19.710  25.190
  293BOLB   C3A 7015  25.980  19.960  24.900
  293BOLB   C4A 7016  26.160  20.370  24.800
  293BOLB   C1B 7017  25.360  19.860  25.680
  293BOLB   C2B 7018  25.600  20.030  25.590
  293BOLB   C3B 7019  25.820  20.220  25.820
  293BOLB   C4B 7020  26.140  20.570  25.740
  293BOLB   NC2 7021  27.635  21.900  24.560
  293BOLB   PO2 7022  27.695  22.250  24.900
  293BOLB   GL3 7023  27.365  22.030  25.060
  293BOLB   GL4 7024  27.185  22.290  25.160
  293BOLB   C1C 7025  27.025  21.790  24.930
  293BOLB   C2C 7026  26.805  21.470  24.810
  293BOLB   C3C 7027  26.420  21.190  24.750
  293BOLB   C4C 7028  26.160  20.780  24.690
  293BOLB   C1D 7029  27.125  22.030  25.450
  293BOLB   C2D 7030  27.065  22.000  25.870
  293BOLB   C3D 7031  26.775  22.130  26.210
  293BOLB   C4D 7032  26.330  22.270  26.140
  294BOLB   NC1 7033  27.485  17.390  39.130
  294BOLB   PO1 7034  27.605  17.530  38.720
  294BOLB   GL1 7035  27.865  17.850  38.650
  294BOLB   GL2 7036  27.885  18.180  38.580
  294BOLB   C1A 7037  28.305  17.830  38.800
  294BOLB   C2A 7038  28.665  18.170  38.800
  294BOLB   C3A 7039  28.835  18.460  39.010
  294BOLB   C4A 7040  28.775  18.840  38.990
  294BOLB   C1B 7041  28.205  18.260  38.580
  294BOLB   C2B 7042  28.495  18.560  38.570
  294BOLB   C3B 7043  28.855  18.650  38.460
  294BOLB   C4B 7044  29.155  18.900  38.150
  294BOLB   NC2 7045  31.255  19.900  39.370
  294BOLB   PO2 7046  30.945  19.750  39.680
  294BOLB   GL3 7047  30.605  19.440  39.670
  294BOLB   GL4 7048  30.295  19.380  39.840
  294BOLB   C1C 7049  30.295  19.350  39.290
  294BOLB   C2C 7050  29.935  19.240  39.250
  294BOLB   C3C 7051  29.515  19.220  39.390
  294BOLB   C4C 7052  29.145  19.150  39.090
  294BOLB   C1D 7053  30.115  19.090  39.780
  294BOLB   C2D 7054  29.785  18.890  39.690
  294BOLB   C3D 7055  29.385  18.740  39.480
  294BOLB   C4D 7056  29.065  18.500  39.540
  295BOLB   NC1 7057  24.750   7.490  29.530
  295BOLB   PO1 7058  24.600   7.340  29.160
  295BOLB   GL1 7059  24.250   7.100  29.070
  295BOLB   GL2 7060  24.190   6.910  29.330
  295BOLB   C1A 7061  24.110   6.720  28.870
  295BOLB   C2A 7062  24.180   6.270  28.780
  295BOLB   C3A 7063  24.030   5.930  28.610
  295BOLB   C4A 7064  23.950   5.720  28.220
  295BOLB   C1B 7065  24.340   6.450  29.250
  295BOLB   C2B 7066  24.620   5.990  29.290
  295BOLB   C3B 7067  24.670   5.700  29.060
  295BOLB   C4B 7068  24.480   5.600  28.660
  295BOLB   NC2 7069  24.410   3.540  27.180
  295BOLB   PO2 7070  24.680   3.630  27.510
  295BOLB   GL3 7071  24.680   4.020  27.480
  295BOLB   GL4 7072  24.920   4.170  27.600
  295BOLB   C1C 7073  24.400   4.440  27.400
  295BOLB   C2C 7074  23.970   4.650  27.480
  295BOLB   C3C 7075  23.740   5.050  27.630
  295BOLB   C4C 7076  23.880   5.340  28.040
  295BOLB   C1D 7077  25.020   4.530  27.560
  295BOLB   C2D 7078  24.890   4.880  27.770
  295BOLB   C3D 7079  24.790   5.270  28.000
  295BOLB   C4D 7080  24.840   5.700  27.710
  296BOLB   NC1 7081  19.080  20.980  22.000
  296BOLB   PO1 7082  19.450  20.910  22.220
  296BOLB   GL1 7083  19.480  21.270  21.960
  296BOLB   GL2 7084  19.820  21.410  22.000
  296BOLB   C1A 7085  19.580  21.620  21.630
  296BOLB   C2A 7086  19.680  21.760  21.190
  296BOLB   C3A 7087  19.980  21.460  20.920
  296BOLB   C4A 7088  20.250  21.170  20.680
  296BOLB   C1B 7089  19.650  21.850  22.050
  296BOLB   C2B 7090  19.290  22.070  21.790
  296BOLB   C3B 7091  19.290  22.210  21.270
  296BOLB   C4B 7092  19.410  22.510  21.110
  296BOLB   NC2 7093  20.650  22.090  18.110
  296BOLB   PO2 7094  20.480  21.820  18.230
  296BOLB   GL3 7095  20.560  21.510  18.570
  296BOLB   GL4 7096  20.380  21.230  18.480
  296BOLB   C1C 7097  20.380  21.450  19.060
  296BOLB   C2C 7098  20.390  21.380  19.480
  296BOLB   C3C 7099  20.200  21.230  19.930
  296BOLB   C4C 7100  20.260  20.950  20.270
  296BOLB   C1D 7101  20.580  20.880  18.770
  296BOLB   C2D 7102  20.560  20.930  19.210
  296BOLB   C3D 7103  20.110  20.960  19.480
  296BOLB   C4D 7104  20.080  20.660  19.850
  297BOLB   NC1 7105  12.350  26.200  35.540
  297BOLB   PO1 7106  12.570  26.000  35.240
  297BOLB   GL1 7107  12.660  25.420  35.210
  297BOLB   GL2 7108  12.440  25.190  35.250
  297BOLB   C1A 7109  12.770  25.200  34.890
  297BOLB   C2A 7110  13.080  24.950  34.940
  297BOLB   C3A 7111  13.550  24.890  35.020
  297BOLB   C4A 7112  13.820  25.060  35.350
  297BOLB   C1B 7113  12.510  24.820  35.260
  297BOLB   C2B 7114  12.810  24.560  35.200
  297BOLB   C3B 7115  13.290  24.430  35.040
  297BOLB   C4B 7116  13.740  24.410  34.900
  297BOLB   NC2 7117  12.160  25.530  36.080
  297BOLB   PO2 7118  12.100  25.760  35.660
  297BOLB   GL3 7119  12.490  25.620  35.610
  297BOLB   GL4 7120  12.470  25.260  35.820
  297BOLB   C1C 7121  12.900  25.660  35.630
  297BOLB   C2C 7122  13.380  25.820  35.790
  297BOLB   C3C 7123  13.720  25.580  35.730
  297BOLB   C4C 7124  13.980  25.310  35.580
  297BOLB   C1D 7125  12.770  25.110  35.600
  297BOLB   C2D 7126  13.150  24.810  35.430
  297BOLB   C3D 7127  13.570  24.560  35.510
  297BOLB   C4D 7128  14.000  24.420  35.420
  298BOLB   NC1 7129  20.460   9.720  29.410
  298BOLB   PO1 7130  20.190   9.600  29.150
  298BOLB   GL1 7131  20.030   9.190  29.130
  298BOLB   GL2 7132  19.790   9.330  29.270
  298BOLB   C1A 7133  19.850   8.850  29.100
  298BOLB   C2A 7134  19.690   8.440  29.140
  298BOLB   C3A 7135  19.360   8.190  29.250
  298BOLB   C4A 7136  18.890   8.280  29.070
  298BOLB   C1B 7137  19.390   9.230  29.330
  298BOLB   C2B 7138  19.350   8.760  29.260
  298BOLB   C3B 7139  19.260   8.580  28.980
  298BOLB   C4B 7140  19.250   8.130  28.740
  298BOLB   NC2 7141  18.040   6.460  28.640
  298BOLB   PO2 7142  17.530   6.540  28.540
  298BOLB   GL3 7143  17.690   7.000  28.510
  298BOLB   GL4 7144  17.400   7.080  28.390
  298BOLB   C1C 7145  17.700   7.400  28.670
  298BOLB   C2C 7146  17.910   7.710  28.770
  298BOLB   C3C 7147  18.250   8.040  28.830
  298BOLB   C4C 7148  18.440   8.270  29.020
  298BOLB   C1D 7149  17.450   7.540  28.170
  298BOLB   C2D 7150  17.590   7.910  28.260
  298BOLB   C3D 7151  17.920   8.220  28.360
  298BOLB   C4D 7152  18.200   8.460  28.470
  299BOLB   NC1 7153  19.040  23.390  38.780
  299BOLB   PO1 7154  18.780  23.670  38.620
  299BOLB   GL1 7155  18.660  23.880  38.940
  299BOLB   GL2 7156  18.870  23.960  39.180
  299BOLB   C1A 7157  18.330  24.000  39.190
  299BOLB   C2A 7158  18.220  24.230  39.480
  299BOLB   C3A 7159  18.460  24.370  39.830
  299BOLB   C4A 7160  18.520  24.780  40.160
  299BOLB   C1B 7161  18.700  24.320  39.330
  299BOLB   C2B 7162  18.690  24.730  39.460
  299BOLB   C3B 7163  18.720  25.090  39.780
  299BOLB   C4B 7164  18.510  25.340  40.000
  299BOLB   NC2 7165  17.110  26.300  41.890
  299BOLB   PO2 7166  17.290  26.210  41.550
  299BOLB   GL3 7167  17.530  25.930  41.290
  299BOLB   GL4 7168  17.840  25.960  41.200
  299BOLB   C1C 7169  17.670  25.450  41.360
  299BOLB   C2C 7170  17.930  25.070  41.180
  299BOLB   C3C 7171  18.300  24.730  40.980
  299BOLB   C4C 7172  18.440  24.730  40.590
  299BOLB   C1D 7173  18.000  25.610  41.030
  299BOLB   C2D 7174  17.780  25.410  40.830
  299BOLB   C3D 7175  17.410  25.360  40.980
  299BOLB   C4D 7176  17.210  25.090  41.380
  300BOLB   NC1 7177  17.780  15.050  40.860
  300BOLB   PO1 7178  18.100  15.160  41.110
  300BOLB   GL1 7179  18.040  14.750  41.190
  300BOLB   GL2 7180  18.280  14.650  41.370
  300BOLB   C1A 7181  17.950  14.310  41.360
  300BOLB   C2A 7182  17.680  14.210  41.790
  300BOLB   C3A 7183  17.630  13.820  42.040
  300BOLB   C4A 7184  17.510  13.440  42.330
  300BOLB   C1B 7185  18.060  14.550  41.750
  300BOLB   C2B 7186  17.700  14.640  42.030
  300BOLB   C3B 7187  17.310  14.810  42.020
  300BOLB   C4B 7188  17.080  15.000  41.730
  300BOLB   NC2 7189  16.210  12.500  43.910
  300BOLB   PO2 7190  15.930  12.930  43.720
  300BOLB   GL3 7191  15.970  12.880  43.210
  300BOLB   GL4 7192  15.640  13.010  43.070
  300BOLB   C1C 7193  16.340  12.870  42.990
  300BOLB   C2C 7194  16.760  13.070  43.190
  300BOLB   C3C 7195  17.010  13.330  43.020
  300BOLB   C4C 7196  17.300  13.480  42.740
  300BOLB   C1D 7197  15.970  13.220  42.850
  300BOLB   C2D 7198  16.380  13.380  43.010
  300BOLB   C3D 7199  16.690  13.480  42.650
  300BOLB   C4D 7200  16.960  13.300  42.320
  301BOLB   NC1 7201  17.460  16.300  22.630
  301BOLB   PO1 7202  17.360  15.840  22.810
  301BOLB   GL1 7203  17.300  15.890  22.360
  301BOLB   GL2 7204  17.610  15.800  22.140
  301BOLB   C1A 7205  17.100  15.950  21.920
  301BOLB   C2A 7206  16.970  15.880  21.540
  301BOLB   C3A 7207  16.580  15.780  21.540
  301BOLB   C4A 7208  16.350  15.430  21.260
  301BOLB   C1B 7209  17.420  15.600  21.690
  301BOLB   C2B 7210  17.190  15.310  21.460
  301BOLB   C3B 7211  16.830  15.530  21.140
  301BOLB   C4B 7212  16.670  16.020  21.030
  301BOLB   NC2 7213  15.470  15.890  18.890
  301BOLB   PO2 7214  15.540  15.400  19.030
  301BOLB   GL3 7215  15.500  15.560  19.400
  301BOLB   GL4 7216  15.700  15.860  19.350
  301BOLB   C1C 7217  15.740  15.710  19.840
  301BOLB   C2C 7218  16.070  15.580  20.070
  301BOLB   C3C 7219  16.160  15.550  20.490
  301BOLB   C4C 7220  16.270  15.650  20.840
  301BOLB   C1D 7221  16.130  15.850  19.570
  301BOLB   C2D 7222  16.430  15.820  19.890
  301BOLB   C3D 7223  16.570  15.790  20.210
  301BOLB   C4D 7224  16.680  15.640  20.620
  302BOLB   NC1 7225  24.000  20.640  40.970
  302BOLB   PO1 7226  24.030  20.690  41.450
  302BOLB   GL1 7227  24.270  20.940  41.670
  302BOLB   GL2 7228  24.670  20.810  41.640
  302BOLB   C1A 7229  24.180  21.100  42.080
  302BOLB   C2A 7230  24.100  21.150  42.500
  302BOLB   C3A 7231  24.160  21.150  42.880
  302BOLB   C4A 7232  24.250  21.030  43.290
  302BOLB   C1B 7233  25.120  20.910  41.600
  302BOLB   C2B 7234  25.520  21.120  41.720
  302BOLB   C3B 7235  25.770  21.460  41.790
  302BOLB   C4B 7236  26.060  21.840  41.910
  302BOLB   NC2 7237  24.810  22.600  45.060
  302BOLB   PO2 7238  25.000  22.350  45.100
  302BOLB   GL3 7239  24.950  22.050  44.710
  302BOLB   GL4 7240  25.060  22.110  44.350
  302BOLB   C1C 7241  24.790  21.680  44.460
  302BOLB   C2C 7242  24.720  21.220  44.300
  302BOLB   C3C 7243  24.410  20.910  44.060
  302BOLB   C4C 7244  24.160  20.870  43.720
  302BOLB   C1D 7245  24.980  21.850  43.960
  302BOLB   C2D 7246  24.640  21.900  43.580
  302BOLB   C3D 7247  24.550  21.890  43.160
  302BOLB   C4D 7248  24.710  21.830  42.730
  303BOLB   NC1 7249  20.130  13.600  42.050
  303BOLB   PO1 7250  20.470  13.670  42.290
  303BOLB   GL1 7251  20.340  13.620  42.650
  303BOLB   GL2 7252  20.310  13.780  42.920
  303BOLB   C1A 7253  20.350  13.340  43.040
  303BOLB   C2A 7254  19.940  13.170  43.270
  303BOLB   C3A 7255  19.550  12.970  43.200
  303BOLB   C4A 7256  19.370  12.640  43.270
  303BOLB   C1B 7257  20.040  13.650  43.210
  303BOLB   C2B 7258  19.850  13.590  43.650
  303BOLB   C3B 7259  19.730  13.740  44.050
  303BOLB   C4B 7260  19.970  14.010  44.370
  303BOLB   NC2 7261  18.590  10.120  44.110
  303BOLB   PO2 7262  18.810  10.510  44.280
  303BOLB   GL3 7263  18.870  10.860  43.870
  303BOLB   GL4 7264  19.280  10.880  43.900
  303BOLB   C1C 7265  19.000  11.170  43.620
  303BOLB   C2C 7266  18.960  11.480  43.290
  303BOLB   C3C 7267  19.110  11.870  43.000
  303BOLB   C4C 7268  19.120  12.290  43.160
  303BOLB   C1D 7269  19.710  10.860  43.980
  303BOLB   C2D 7270  20.070  10.920  43.740
  303BOLB   C3D 7271  20.170  11.180  43.330
  303BOLB   C4D 7272  20.010  11.100  42.990
  304BOLB   NC1 7273  29.165  15.220  32.060
  304BOLB   PO1 7274  28.995  15.460  32.260
  304BOLB   GL1 7275  29.435  15.600  32.260
  304BOLB   GL2 7276  29.715  15.370  32.210
  304BOLB   C1A 7277  29.915  15.820  32.280
  304BOLB   C2A 7278  30.255  16.110  32.330
  304BOLB   C3A 7279  30.335  16.300  31.930
  304BOLB   C4A 7280  30.595  16.280  31.600
  304BOLB   C1B 7281  30.155  15.450  32.070
  304BOLB   C2B 7282  30.515  15.690  32.200
  304BOLB   C3B 7283  30.745  16.080  32.250
  304BOLB   C4B 7284  31.175  16.170  32.230
  304BOLB   NC2 7285  32.735  17.190  31.960
  304BOLB   PO2 7286  32.515  17.580  31.840
  304BOLB   GL3 7287  32.155  17.230  31.930
  304BOLB   GL4 7288  32.305  16.980  32.150
  304BOLB   C1C 7289  31.825  17.000  31.960
  304BOLB   C2C 7290  31.515  16.640  31.880
  304BOLB   C3C 7291  31.475  16.290  31.760
  304BOLB   C4C 7292  31.065  16.220  31.660
  304BOLB   C1D 7293  31.945  16.750  32.380
  304BOLB   C2D 7294  31.615  16.580  32.590
  304BOLB   C3D 7295  31.425  16.490  32.970
  304BOLB   C4D 7296  31.155  16.240  33.300
  305BOLB   NC1 7297  24.840  13.510  42.420
  305BOLB   PO1 7298  24.860  13.090  42.380
  305BOLB   GL1 7299  25.080  13.110  42.730
  305BOLB   GL2 7300  25.060  13.320  42.950
  305BOLB   C1A 7301  25.530  13.290  42.970
  305BOLB   C2A 7302  25.540  13.520  43.350
  305BOLB   C3A 7303  25.490  13.600  43.720
  305BOLB   C4A 7304  25.580  13.820  44.090
  305BOLB   C1B 7305  24.820  12.860  43.090
  305BOLB   C2B 7306  24.850  12.480  43.350
  305BOLB   C3B 7307  24.660  12.060  43.470
  305BOLB   C4B 7308  24.330  11.780  43.340
  305BOLB   NC2 7309  26.685  13.080  46.180
  305BOLB   PO2 7310  26.220  13.030  46.260
  305BOLB   GL3 7311  26.120  13.140  45.890
  305BOLB   GL4 7312  26.160  12.860  45.590
  305BOLB   C1C 7313  26.040  13.470  45.550
  305BOLB   C2C 7314  25.950  13.760  45.230
  305BOLB   C3C 7315  25.620  13.960  44.940
  305BOLB   C4C 7316  25.570  13.940  44.460
  305BOLB   C1D 7317  25.810  12.560  45.520
  305BOLB   C2D 7318  25.360  12.730  45.450
  305BOLB   C3D 7319  25.120  12.980  45.670
  305BOLB   C4D 7320  25.150  12.950  46.100
  306BOLB   NC1 7321  17.560  11.700  35.990
  306BOLB   PO1 7322  17.190  11.590  36.200
  306BOLB   GL1 7323  17.030  11.480  36.530
  306BOLB   GL2 7324  17.130  11.570  36.690
  306BOLB   C1A 7325  16.690  11.300  36.720
  306BOLB   C2A 7326  16.620  11.260  37.110
  306BOLB   C3A 7327  16.650  10.940  37.430
  306BOLB   C4A 7328  16.330  10.770  37.720
  306BOLB   C1B 7329  16.920  11.620  37.070
  306BOLB   C2B 7330  16.930  11.400  37.500
  306BOLB   C3B 7331  16.760  11.270  37.890
  306BOLB   C4B 7332  16.730  10.830  38.060
  306BOLB   NC2 7333  15.060   9.390  39.220
  306BOLB   PO2 7334  14.820   9.330  38.800
  306BOLB   GL3 7335  15.180   9.380  38.510
  306BOLB   GL4 7336  15.220   9.180  38.250
  306BOLB   C1C 7337  15.530   9.580  38.400
  306BOLB   C2C 7338  15.740   9.960  38.370
  306BOLB   C3C 7339  15.850  10.300  38.140
  306BOLB   C4C 7340  16.160  10.650  38.050
  306BOLB   C1D 7341  15.360   9.290  37.770
  306BOLB   C2D 7342  15.650   9.580  37.540
  306BOLB   C3D 7343  16.030   9.540  37.300
  306BOLB   C4D 7344  16.310   9.850  37.300
  307BOLB   NC1 7345  16.480  23.670  25.470
  307BOLB   PO1 7346  16.000  23.450  25.360
  307BOLB   GL1 7347  16.120  23.930  25.280
  307BOLB   GL2 7348  16.250  23.950  25.130
  307BOLB   C1A 7349  15.910  24.160  25.560
  307BOLB   C2A 7350  15.610  24.470  25.440
  307BOLB   C3A 7351  15.300  24.750  25.340
  307BOLB   C4A 7352  15.160  24.980  24.930
  307BOLB   C1B 7353  16.080  23.880  24.690
  307BOLB   C2B 7354  15.740  23.930  24.560
  307BOLB   C3B 7355  15.400  23.910  24.330
  307BOLB   C4B 7356  15.150  24.210  24.430
  307BOLB   NC2 7357  15.250   0.020  22.760
  307BOLB   PO2 7358  15.240   0.270  23.140
  307BOLB   GL3 7359  15.320  26.200  23.290
  307BOLB   GL4 7360  15.050  26.080  23.350
  307BOLB   C1C 7361  15.490  25.870  23.550
  307BOLB   C2C 7362  15.540  25.650  23.910
  307BOLB   C3C 7363  15.510  25.370  24.260
  307BOLB   C4C 7364  15.420  25.250  24.660
  307BOLB   C1D 7365  15.010  26.010  23.830
  307BOLB   C2D 7366  15.400  26.010  24.190
  307BOLB   C3D 7367  15.530  25.900  24.650
  307BOLB   C4D 7368  15.600  26.190  25.030
  308BOLB   NC1 7369  26.805  22.850  31.050
  308BOLB   PO1 7370  26.465  22.930  31.170
  308BOLB   GL1 7371  26.160  22.530  31.190
  308BOLB   GL2 7372  26.000  22.440  30.910
  308BOLB   C1A 7373  25.800  22.490  31.460
  308BOLB   C2A 7374  25.450  22.260  31.430
  308BOLB   C3A 7375  25.190  22.160  31.100
  308BOLB   C4A 7376  25.250  22.020  30.690
  308BOLB   C1B 7377  25.740  22.030  30.880
  308BOLB   C2B 7378  25.480  21.590  30.930
  308BOLB   C3B 7379  25.460  21.150  30.850
  308BOLB   C4B 7380  25.310  20.940  31.030
  308BOLB   NC2 7381  27.205  22.080  28.950
  308BOLB   PO2 7382  27.335  21.790  29.310
  308BOLB   GL3 7383  26.955  21.700  29.370
  308BOLB   GL4 7384  26.855  21.690  29.000
  308BOLB   C1C 7385  26.555  21.650  29.580
  308BOLB   C2C 7386  26.170  21.430  29.820
  308BOLB   C3C 7387  25.860  21.500  30.110
  308BOLB   C4C 7388  25.600  21.800  30.430
  308BOLB   C1D 7389  26.420  21.800  28.920
  308BOLB   C2D 7390  26.120  21.580  28.790
  308BOLB   C3D 7391  25.920  21.570  28.390
  308BOLB   C4D 7392  25.570  21.870  28.180
  309BOLB   NC1 7393  18.810  24.090  37.460
  309BOLB   PO1 7394  19.150  23.890  37.630
  309BOLB   GL1 7395  19.130  24.300  37.770
  309BOLB   GL2 7396  19.120  24.490  37.500
  309BOLB   C1A 7397  19.140  24.620  38.050
  309BOLB   C2A 7398  19.060  24.720  38.460
  309BOLB   C3A 7399  19.440  25.100  38.600
  309BOLB   C4A 7400  19.540  25.450  38.610
  309BOLB   C1B 7401  18.990  24.920  37.670
  309BOLB   C2B 7402  18.830  25.280  37.730
  309BOLB   C3B 7403  18.570  25.430  38.020
  309BOLB   C4B 7404  18.270  25.540  38.260
  309BOLB   NC2 7405  19.730   1.780  39.560
  309BOLB   PO2 7406  19.850   1.290  39.430
  309BOLB   GL3 7407  19.740   0.860  39.170
  309BOLB   GL4 7408  20.020   0.730  38.920
  309BOLB   C1C 7409  19.700   0.420  39.170
  309BOLB   C2C 7410  19.500   0.030  38.870
  309BOLB   C3C 7411  19.370  26.290  38.470
  309BOLB   C4C 7412  19.390  25.820  38.410
  309BOLB   C1D 7413  20.020   0.300  38.810
  309BOLB   C2D 7414  19.950  26.280  38.640
  309BOLB   C3D 7415  19.880  26.030  38.320
  309BOLB   C4D 7416  20.020  25.760  37.980
  310BOLB   NC1 7417  27.605  14.650  25.250
  310BOLB   PO1 7418  27.825  14.700  25.650
  310BOLB   GL1 7419  28.165  14.630  25.510
  310BOLB   GL2 7420  28.205  14.280  25.430
  310BOLB   C1A 7421  28.595  14.680  25.220
  310BOLB   C2A 7422  28.915  14.720  24.910
  310BOLB   C3A 7423  29.085  14.760  24.480
  310BOLB   C4A 7424  29.105  14.470  24.230
  310BOLB   C1B 7425  28.525  14.040  25.230
  310BOLB   C2B 7426  28.945  13.930  25.070
  310BOLB   C3B 7427  29.405  14.000  25.110
  310BOLB   C4B 7428  29.895  13.990  25.130
  310BOLB   NC2 7429  31.085  15.800  22.970
  310BOLB   PO2 7430  30.985  15.400  23.060
  310BOLB   GL3 7431  30.545  15.220  23.010
  310BOLB   GL4 7432  30.395  15.270  22.750
  310BOLB   C1C 7433  30.345  14.990  23.300
  310BOLB   C2C 7434  29.925  14.770  23.400
  310BOLB   C3C 7435  29.565  14.510  23.420
  310BOLB   C4C 7436  29.235  14.480  23.780
  310BOLB   C1D 7437  29.965  15.230  22.650
  310BOLB   C2D 7438  29.545  15.320  22.700
  310BOLB   C3D 7439  29.255  15.230  22.860
  310BOLB   C4D 7440  28.965  15.070  22.830
  311BOLB   NC1 7441  15.990  23.010  35.430
  311BOLB   PO1 7442  15.690  23.210  35.690
  311BOLB   GL1 7443  15.420  23.270  35.940
  311BOLB   GL2 7444  15.170  23.030  35.850
  311BOLB   C1A 7445  15.260  23.690  36.120
  311BOLB   C2A 7446  14.970  23.980  36.260
  311BOLB   C3A 7447  14.800  24.190  36.600
  311BOLB   C4A 7448  14.690  24.630  36.860
  311BOLB   C1B 7449  14.850  23.330  36.120
  311BOLB   C2B 7450  14.580  23.600  36.170
  311BOLB   C3B 7451  14.450  24.010  36.260
  311BOLB   C4B 7452  14.260  24.420  36.450
  311BOLB   NC2 7453  13.440  26.240  37.560
  311BOLB   PO2 7454  13.810   0.050  37.800
  311BOLB   GL3 7455  14.180  26.320  37.810
  311BOLB   GL4 7456  14.400  26.390  38.130
  311BOLB   C1C 7457  14.340  25.970  37.690
  311BOLB   C2C 7458  14.510  25.800  37.320
  311BOLB   C3C 7459  14.700  25.380  37.220
  311BOLB   C4C 7460  14.720  25.040  36.930
  311BOLB   C1D 7461  14.780  26.110  37.980
  311BOLB   C2D 7462  15.150  26.040  37.870
  311BOLB   C3D 7463  15.460  25.990  37.560
  311BOLB   C4D 7464  15.520  26.300  37.150
  312BOLB   NC1 7465  33.145  16.090  36.210
  312BOLB   PO1 7466  33.075  16.420  35.930
  312BOLB   GL1 7467  32.665  16.190  36.100
  312BOLB   GL2 7468  32.665  15.870  36.080
  312BOLB   C1A 7469  32.325  16.220  36.340
  312BOLB   C2A 7470  31.945  16.440  36.150
  312BOLB   C3A 7471  31.645  16.630  36.420
  312BOLB   C4A 7472  31.485  17.040  36.520
  312BOLB   C1B 7473  32.125  15.890  36.010
  312BOLB   C2B 7474  31.755  15.950  35.950
  312BOLB   C3B 7475  31.355  16.030  36.000
  312BOLB   C4B 7476  30.945  16.080  36.040
  312BOLB   NC2 7477  31.975  18.620  36.680
  312BOLB   PO2 7478  32.035  19.030  36.960
  312BOLB   GL3 7479  31.685  18.810  37.030
  312BOLB   GL4 7480  31.665  18.800  37.330
  312BOLB   C1C 7481  31.345  18.540  36.800
  312BOLB   C2C 7482  31.205  18.140  36.950
  312BOLB   C3C 7483  30.925  17.750  36.700
  312BOLB   C4C 7484  31.155  17.350  36.610
  312BOLB   C1D 7485  31.225  18.750  37.220
  312BOLB   C2D 7486  30.855  18.420  37.200
  312BOLB   C3D 7487  30.625  18.200  36.920
  312BOLB   C4D 7488  30.535  17.670  37.040
  313BOLB   NC1 7489  27.825  17.220  38.240
  313BOLB   PO1 7490  28.055  16.810  38.520
  313BOLB   GL1 7491  28.425  16.810  38.750
  313BOLB   GL2 7492  28.385  16.900  39.120
  313BOLB   C1A 7493  28.795  16.900  38.760
  313BOLB   C2A 7494  29.225  17.010  38.660
  313BOLB   C3A 7495  29.605  16.970  38.460
  313BOLB   C4A 7496  29.955  16.690  38.680
  313BOLB   C1B 7497  28.815  16.940  39.400
  313BOLB   C2B 7498  29.145  17.040  39.570
  313BOLB   C3B 7499  29.175  17.420  39.750
  313BOLB   C4B 7500  28.965  17.610  40.100
  313BOLB   NC2 7501  32.335  16.440  38.900
  313BOLB   PO2 7502  32.325  17.030  38.990
  313BOLB   GL3 7503  32.045  16.760  39.090
  313BOLB   GL4 7504  31.755  16.460  38.900
  313BOLB   C1C 7505  31.605  16.880  38.960
  313BOLB   C2C 7506  31.115  16.970  38.960
  313BOLB   C3C 7507  30.655  16.680  39.060
  313BOLB   C4C 7508  30.245  16.810  38.920
  313BOLB   C1D 7509  31.335  16.470  38.860
  313BOLB   C2D 7510  30.945  16.350  38.800
  313BOLB   C3D 7511  30.515  16.150  38.850
  313BOLB   C4D 7512  30.325  15.720  38.940
  314BOLB   NC1 7513  21.900   8.640  33.540
  314BOLB   PO1 7514  22.260   8.430  33.600
  314BOLB   GL1 7515  21.820   8.130  33.740
  314BOLB   GL2 7516  21.960   8.000  34.020
  314BOLB   C1A 7517  21.420   7.900  33.710
  314BOLB   C2A 7518  21.180   7.610  33.950
  314BOLB   C3A 7519  21.000   7.190  34.000
  314BOLB   C4A 7520  20.890   6.700  34.070
  314BOLB   C1B 7521  22.040   7.700  34.210
  314BOLB   C2B 7522  21.790   7.340  34.210
  314BOLB   C3B 7523  21.760   6.830  34.220
  314BOLB   C4B 7524  21.830   6.340  34.230
  314BOLB   NC2 7525  19.670   4.330  33.640
  314BOLB   PO2 7526  20.090   4.640  33.560
  314BOLB   GL3 7527  20.280   4.940  33.650
  314BOLB   GL4 7528  20.120   4.960  34.010
  314BOLB   C1C 7529  20.440   5.300  33.790
  314BOLB   C2C 7530  20.540   5.560  34.140
  314BOLB   C3C 7531  20.750   5.940  34.220
  314BOLB   C4C 7532  20.800   6.300  34.170
  314BOLB   C1D 7533  20.190   5.060  34.320
  314BOLB   C2D 7534  20.140   5.460  34.400
  314BOLB   C3D 7535  20.370   5.980  34.520
  314BOLB   C4D 7536  20.560   6.320  34.780
  315BOLB   NC1 7537  25.500  13.710  22.630
  315BOLB   PO1 7538  25.960  13.600  22.560
  315BOLB   GL1 7539  26.020  13.560  22.080
  315BOLB   GL2 7540  26.200  13.320  22.110
  315BOLB   C1A 7541  26.090  13.560  21.630
  315BOLB   C2A 7542  26.130  13.260  21.260
  315BOLB   C3A 7543  26.300  13.290  20.860
  315BOLB   C4A 7544  26.675  13.330  20.610
  315BOLB   C1B 7545  26.615  13.510  22.290
  315BOLB   C2B 7546  27.055  13.420  22.080
  315BOLB   C3B 7547  27.325  13.390  21.670
  315BOLB   C4B 7548  27.305  13.450  21.220
  315BOLB   NC2 7549  27.755  12.230  19.380
  315BOLB   PO2 7550  27.545  11.930  19.560
  315BOLB   GL3 7551  27.315  12.090  19.770
  315BOLB   GL4 7552  27.085  11.950  19.730
  315BOLB   C1C 7553  27.185  12.490  20.000
  315BOLB   C2C 7554  27.205  12.460  20.480
  315BOLB   C3C 7555  27.035  12.770  20.670
  315BOLB   C4C 7556  27.015  13.230  20.690
  315BOLB   C1D 7557  27.085  11.990  20.220
  315BOLB   C2D 7558  26.825  12.000  20.460
  315BOLB   C3D 7559  26.775  12.060  20.990
  315BOLB   C4D 7560  26.645  11.980  21.390
  316BOLB   NC1 7561  18.120  11.330  36.620
  316BOLB   PO1 7562  18.050  11.380  37.080
  316BOLB   GL1 7563  17.690  11.260  37.170
  316BOLB   GL2 7564  17.370  11.490  37.240
  316BOLB   C1A 7565  17.390  11.070  37.500
  316BOLB   C2A 7566  17.110  10.860  37.730
  316BOLB   C3A 7567  16.800  10.500  37.680
  316BOLB   C4A 7568  16.410  10.250  37.660
  316BOLB   C1B 7569  17.200  11.080  37.040
  316BOLB   C2B 7570  17.020  10.680  37.230
  316BOLB   C3B 7571  16.880  10.230  37.220
  316BOLB   C4B 7572  16.800   9.810  37.280
  316BOLB   NC2 7573  14.200   9.340  38.180
  316BOLB   PO2 7574  14.480   9.040  38.010
  316BOLB   GL3 7575  14.870   9.280  37.850
  316BOLB   GL4 7576  14.680   9.300  37.500
  316BOLB   C1C 7577  15.100   9.590  38.030
  316BOLB   C2C 7578  15.430   9.800  37.970
  316BOLB   C3C 7579  15.670  10.050  37.760
  316BOLB   C4C 7580  16.020  10.130  37.630
  316BOLB   C1D 7581  15.080   9.640  37.480
  316BOLB   C2D 7582  15.200  10.080  37.660
  316BOLB   C3D 7583  15.380  10.520  37.580
  316BOLB   C4D 7584  15.350  10.920  37.780
  317BOLB   NC1 7585  15.690  20.460  24.770
  317BOLB   PO1 7586  15.310  20.500  24.490
  317BOLB   GL1 7587  14.850  20.550  24.250
  317BOLB   GL2 7588  14.780  20.350  24.120
  317BOLB   C1A 7589  14.390  20.680  24.150
  317BOLB   C2A 7590  14.000  20.690  23.920
  317BOLB   C3A 7591  13.570  20.920  23.940
  317BOLB   C4A 7592  13.260  21.120  23.990
  317BOLB   C1B 7593  14.420  20.160  24.220
  317BOLB   C2B 7594  14.130  20.400  24.480
  317BOLB   C3B 7595  13.690  20.600  24.410
  317BOLB   C4B 7596  13.360  20.820  24.440
  317BOLB   NC2 7597  10.920  20.740  22.860
  317BOLB   PO2 7598  11.150  21.140  22.950
  317BOLB   GL3 7599  11.360  21.290  23.300
  317BOLB   GL4 7600  11.330  21.130  23.590
  317BOLB   C1C 7601  11.670  21.490  23.520
  317BOLB   C2C 7602  11.980  21.340  23.420
  317BOLB   C3C 7603  12.500  21.240  23.560
  317BOLB   C4C 7604  12.770  21.090  23.780
  317BOLB   C1D 7605  11.670  21.070  23.750
  317BOLB   C2D 7606  12.120  21.190  24.000
  317BOLB   C3D 7607  12.440  21.150  24.310
  317BOLB   C4D 7608  12.800  20.980  24.320
  318BOLB   NC1 7609  16.210  13.690  36.780
  318BOLB   PO1 7610  16.300  13.240  36.770
  318BOLB   GL1 7611  15.790  13.250  36.810
  318BOLB   GL2 7612  15.690  13.120  37.170
  318BOLB   C1A 7613  15.420  13.110  36.670
  318BOLB   C2A 7614  15.090  12.960  36.790
  318BOLB   C3A 7615  14.700  12.730  36.790
  318BOLB   C4A 7616  14.360  12.480  36.890
  318BOLB   C1B 7617  15.400  12.860  37.260
  318BOLB   C2B 7618  15.060  12.610  37.350
  318BOLB   C3B 7619  14.860  12.230  37.280
  318BOLB   C4B 7620  14.610  11.910  37.390
  318BOLB   NC2 7621  13.270  10.420  38.150
  318BOLB   PO2 7622  12.980  10.630  37.990
  318BOLB   GL3 7623  13.150  10.990  37.880
  318BOLB   GL4 7624  13.400  10.870  37.970
  318BOLB   C1C 7625  13.520  11.300  37.830
  318BOLB   C2C 7626  13.740  11.600  37.530
  318BOLB   C3C 7627  14.000  12.020  37.470
  318BOLB   C4C 7628  14.250  12.190  37.200
  318BOLB   C1D 7629  13.840  10.920  37.830
  318BOLB   C2D 7630  13.970  11.150  37.450
  318BOLB   C3D 7631  13.800  11.220  37.050
  318BOLB   C4D 7632  13.470  11.330  36.780
  319BOLB   NC1 7633  16.140  24.590  34.100
  319BOLB   PO1 7634  16.350  24.920  34.320
  319BOLB   GL1 7635  16.110  25.320  34.080
  319BOLB   GL2 7636  16.090  25.390  33.650
  319BOLB   C1A 7637  15.950  25.650  34.030
  319BOLB   C2A 7638  15.590  25.870  34.000
  319BOLB   C3A 7639  15.260  25.870  34.220
  319BOLB   C4A 7640  14.870  25.810  34.530
  319BOLB   C1B 7641  15.730  25.740  33.560
  319BOLB   C2B 7642  15.350  25.920  33.320
  319BOLB   C3B 7643  15.140  25.930  32.850
  319BOLB   C4B 7644  14.830  25.890  32.520
  319BOLB   NC2 7645  13.740   1.120  34.650
  319BOLB   PO2 7646  13.480   1.290  34.920
  319BOLB   GL3 7647  13.600   0.760  35.040
  319BOLB   GL4 7648  13.450   0.630  35.280
  319BOLB   C1C 7649  13.980   0.450  34.930
  319BOLB   C2C 7650  14.110   0.060  35.070
  319BOLB   C3C 7651  14.470  26.360  35.200
  319BOLB   C4C 7652  14.710  26.000  34.970
  319BOLB   C1D 7653  13.660   0.180  35.310
  319BOLB   C2D 7654  13.520  26.180  35.210
  319BOLB   C3D 7655  13.300  25.800  35.240
  319BOLB   C4D 7656  13.130  25.350  35.300
  320BOLB   NC1 7657  15.200  15.350  26.740
  320BOLB   PO1 7658  15.450  15.010  26.510
  320BOLB   GL1 7659  15.040  14.840  26.490
  320BOLB   GL2 7660  14.880  14.950  26.200
  320BOLB   C1A 7661  14.720  14.960  26.730
  320BOLB   C2A 7662  14.420  14.820  26.390
  320BOLB   C3A 7663  13.970  14.920  26.430
  320BOLB   C4A 7664  13.640  14.960  26.190
  320BOLB   C1B 7665  14.560  15.150  25.950
  320BOLB   C2B 7666  14.280  15.320  25.620
  320BOLB   C3B 7667  14.130  15.080  25.300
  320BOLB   C4B 7668  14.100  14.650  25.320
  320BOLB   NC2 7669  11.290  14.990  25.030
  320BOLB   PO2 7670  11.450  15.230  25.500
  320BOLB   GL3 7671  11.580  15.370  25.860
  320BOLB   GL4 7672  11.350  15.360  26.140
  320BOLB   C1C 7673  11.970  15.120  26.110
  320BOLB   C2C 7674  12.480  15.060  25.930
  320BOLB   C3C 7675  12.830  14.870  25.840
  320BOLB   C4C 7676  13.250  14.800  26.000
  320BOLB   C1D 7677  11.670  15.550  26.350
  320BOLB   C2D 7678  11.740  15.750  26.800
  320BOLB   C3D 7679  12.010  16.170  26.900
  320BOLB   C4D 7680  12.370  16.440  26.870
  321BOLB   NC1 7681  30.215  18.040  22.780
  321BOLB   PO1 7682  30.385  17.620  22.980
  321BOLB   GL1 7683  29.985  17.340  23.150
  321BOLB   GL2 7684  29.755  17.310  22.930
  321BOLB   C1A 7685  29.615  17.400  23.410
  321BOLB   C2A 7686  29.255  17.280  23.560
  321BOLB   C3A 7687  28.805  17.490  23.590
  321BOLB   C4A 7688  28.755  17.750  23.900
  321BOLB   C1B 7689  29.335  17.110  23.060
  321BOLB   C2B 7690  28.935  17.120  23.280
  321BOLB   C3B 7691  28.525  17.120  23.440
  321BOLB   C4B 7692  28.175  17.070  23.660
  321BOLB   NC2 7693  30.215  19.190  24.280
  321BOLB   PO2 7694  30.065  18.880  24.530
  321BOLB   GL3 7695  29.825  18.620  24.710
  321BOLB   GL4 7696  29.925  18.490  24.960
  321BOLB   C1C 7697  29.375  18.450  24.880
  321BOLB   C2C 7698  29.155  18.100  24.990
  321BOLB   C3C 7699  28.855  17.880  24.750
  321BOLB   C4C 7700  28.655  17.890  24.270
  321BOLB   C1D 7701  29.605  18.200  25.250
  321BOLB   C2D 7702  29.505  17.820  25.370
  321BOLB   C3D 7703  29.415  17.590  25.710
  321BOLB   C4D 7704  29.475  17.380  26.070
  322BOLB   NC1 7705  27.845   8.450  32.430
  322BOLB   PO1 7706  28.205   8.400  32.650
  322BOLB   GL1 7707  28.395   8.040  32.820
  322BOLB   GL2 7708  28.505   8.250  33.010
  322BOLB   C1A 7709  28.655   7.700  33.000
  322BOLB   C2A 7710  28.915   7.300  33.090
  322BOLB   C3A 7711  29.125   6.820  33.060
  322BOLB   C4A 7712  29.165   6.460  32.900
  322BOLB   C1B 7713  28.875   8.150  32.810
  322BOLB   C2B 7714  29.135   7.730  32.790
  322BOLB   C3B 7715  29.475   7.620  33.050
  322BOLB   C4B 7716  29.645   7.550  33.520
  322BOLB   NC2 7717  29.765   3.950  32.020
  322BOLB   PO2 7718  29.645   4.290  31.660
  322BOLB   GL3 7719  29.375   4.690  31.600
  322BOLB   GL4 7720  29.215   4.790  31.350
  322BOLB   C1C 7721  29.195   5.120  31.840
  322BOLB   C2C 7722  29.015   5.600  32.060
  322BOLB   C3C 7723  28.995   5.950  32.150
  322BOLB   C4C 7724  29.095   6.200  32.490
  322BOLB   C1D 7725  28.935   5.190  31.140
  322BOLB   C2D 7726  28.725   5.220  30.810
  322BOLB   C3D 7727  28.455   5.280  30.560
  322BOLB   C4D 7728  28.045   5.150  30.580
  323BOLB   NC1 7729  15.480  17.890  38.430
  323BOLB   PO1 7730  15.420  17.690  38.920
  323BOLB   GL1 7731  14.990  17.600  39.190
  323BOLB   GL2 7732  14.840  17.760  39.130
  323BOLB   C1A 7733  14.620  17.290  39.330
  323BOLB   C2A 7734  14.270  17.010  39.370
  323BOLB   C3A 7735  14.150  16.590  39.420
  323BOLB   C4A 7736  13.790  16.380  39.360
  323BOLB   C1B 7737  14.310  17.820  39.150
  323BOLB   C2B 7738  13.940  17.910  39.140
  323BOLB   C3B 7739  13.480  17.800  39.050
  323BOLB   C4B 7740  13.070  17.910  39.030
  323BOLB   NC2 7741  11.620  15.870  40.750
  323BOLB   PO2 7742  11.940  16.110  40.830
  323BOLB   GL3 7743  12.260  16.200  40.490
  323BOLB   GL4 7744  12.290  16.460  40.630
  323BOLB   C1C 7745  12.450  15.990  40.160
  323BOLB   C2C 7746  12.720  15.970  39.880
  323BOLB   C3C 7747  13.080  15.920  39.720
  323BOLB   C4C 7748  13.490  16.120  39.530
  323BOLB   C1D 7749  12.740  16.630  40.730
  323BOLB   C2D 7750  13.210  16.660  40.640
  323BOLB   C3D 7751  13.610  16.610  40.580
  323BOLB   C4D 7752  13.870  16.470  40.900
  324BOLB   NC1 7753  29.295  10.670  36.120
  324BOLB   PO1 7754  29.495  10.700  35.790
  324BOLB   GL1 7755  29.805  10.880  36.090
  324BOLB   GL2 7756  29.725  10.820  36.370
  324BOLB   C1A 7757  30.275  10.910  36.220
  324BOLB   C2A 7758  30.545  10.680  36.330
  324BOLB   C3A 7759  31.015  10.480  36.450
  324BOLB   C4A 7760  31.425  10.610  36.540
  324BOLB   C1B 7761  29.965  10.640  36.620
  324BOLB   C2B 7762  30.085  10.800  37.070
  324BOLB   C3B 7763  30.055  10.600  37.450
  324BOLB   C4B 7764  30.295  10.720  37.780
  324BOLB   NC2 7765  33.485  10.740  37.240
  324BOLB   PO2 7766  33.505  10.850  37.680
  324BOLB   GL3 7767  33.085  10.680  37.620
  324BOLB   GL4 7768  32.995  10.810  37.790
  324BOLB   C1C 7769  32.835  10.530  37.330
  324BOLB   C2C 7770  32.515  10.350  37.060
  324BOLB   C3C 7771  32.335  10.420  36.710
  324BOLB   C4C 7772  31.935  10.670  36.410
  324BOLB   C1D 7773  32.535  10.860  37.840
  324BOLB   C2D 7774  32.155  11.130  37.730
  324BOLB   C3D 7775  31.785  11.440  37.650
  324BOLB   C4D 7776  31.425  11.440  37.660
  325BOLB   NC1 7777  26.330  13.090  23.280
  325BOLB   PO1 7778  26.595  12.980  23.570
  325BOLB   GL1 7779  27.035  12.910  23.620
  325BOLB   GL2 7780  27.135  13.040  23.300
  325BOLB   C1A 7781  27.365  12.620  23.530
  325BOLB   C2A 7782  27.545  12.380  23.220
  325BOLB   C3A 7783  28.005  12.470  23.260
  325BOLB   C4A 7784  28.385  12.170  23.280
  325BOLB   C1B 7785  27.205  12.740  23.060
  325BOLB   C2B 7786  27.255  12.670  22.660
  325BOLB   C3B 7787  27.395  12.960  22.300
  325BOLB   C4B 7788  27.575  13.110  21.970
  325BOLB   NC2 7789  29.535  10.750  22.000
  325BOLB   PO2 7790  29.355  10.300  22.030
  325BOLB   GL3 7791  29.125  10.600  22.290
  325BOLB   GL4 7792  28.915  10.300  22.350
  325BOLB   C1C 7793  29.095  10.980  22.620
  325BOLB   C2C 7794  28.775  11.050  22.950
  325BOLB   C3C 7795  28.455  11.290  23.200
  325BOLB   C4C 7796  28.475  11.720  23.320
  325BOLB   C1D 7797  29.015  10.210  22.830
  325BOLB   C2D 7798  29.265  10.320  23.230
  325BOLB   C3D 7799  29.185  10.570  23.610
  325BOLB   C4D 7800  29.255  10.610  24.020
  326BOLB   NC1 7801  26.280  20.190  38.500
  326BOLB   PO1 7802  26.230  20.110  38.850
  326BOLB   GL1 7803  26.330  20.610  38.900
  326BOLB   GL2 7804  26.320  20.670  38.510
  326BOLB   C1A 7805  26.645  21.120  38.770
  326BOLB   C2A 7806  26.625  21.490  38.810
  326BOLB   C3A 7807  26.595  21.900  38.660
  326BOLB   C4A 7808  26.565  22.330  38.820
  326BOLB   C1B 7809  26.695  20.660  38.430
  326BOLB   C2B 7810  27.085  20.930  38.370
  326BOLB   C3B 7811  27.315  20.880  37.980
  326BOLB   C4B 7812  27.505  21.090  37.560
  326BOLB   NC2 7813  27.775  24.070  37.850
  326BOLB   PO2 7814  28.155  23.920  38.120
  326BOLB   GL3 7815  27.805  23.810  38.370
  326BOLB   GL4 7816  27.555  23.700  38.110
  326BOLB   C1C 7817  27.645  23.380  38.500
  326BOLB   C2C 7818  27.445  23.030  38.500
  326BOLB   C3C 7819  27.265  22.750  38.790
  326BOLB   C4C 7820  26.825  22.580  38.860
  326BOLB   C1D 7821  27.535  23.310  38.020
  326BOLB   C2D 7822  27.495  22.900  37.970
  326BOLB   C3D 7823  27.265  22.550  37.730
  326BOLB   C4D 7824  27.045  22.270  37.790
  327BOLB   NC1 7825  13.810  21.600  29.530
  327BOLB   PO1 7826  13.450  21.570  29.840
  327BOLB   GL1 7827  12.970  21.570  29.780
  327BOLB   GL2 7828  12.650  21.500  30.030
  327BOLB   C1A 7829  12.510  21.890  29.600
  327BOLB   C2A 7830  12.350  22.280  29.440
  327BOLB   C3A 7831  12.010  22.420  29.180
  327BOLB   C4A 7832  11.760  22.720  29.000
  327BOLB   C1B 7833  12.210  21.590  29.970
  327BOLB   C2B 7834  11.780  21.720  29.840
  327BOLB   C3B 7835  11.430  21.810  30.000
  327BOLB   C4B 7836  11.020  21.940  30.160
  327BOLB   NC2 7837   9.600  22.110  28.510
  327BOLB   PO2 7838   9.790  22.530  28.500
  327BOLB   GL3 7839  10.040  22.310  28.670
  327BOLB   GL4 7840  10.080  21.970  28.910
  327BOLB   C1C 7841  10.410  22.290  28.440
  327BOLB   C2C 7842  10.660  22.550  28.230
  327BOLB   C3C 7843  11.080  22.610  28.460
  327BOLB   C4C 7844  11.520  22.730  28.610
  327BOLB   C1D 7845  10.370  22.310  29.130
  327BOLB   C2D 7846  10.740  22.600  29.250
  327BOLB   C3D 7847  11.040  22.690  29.590
  327BOLB   C4D 7848  11.300  22.720  29.830
  328BOLB   NC1 7849  26.445  13.300  41.760
  328BOLB   PO1 7850  26.280  13.780  41.770
  328BOLB   GL1 7851  26.270  13.580  42.120
  328BOLB   GL2 7852  26.555  13.510  42.260
  328BOLB   C1A 7853  25.940  13.280  42.490
  328BOLB   C2A 7854  25.970  12.980  42.830
  328BOLB   C3A 7855  26.090  12.700  43.100
  328BOLB   C4A 7856  26.430  12.470  43.100
  328BOLB   C1B 7857  26.765  13.050  42.350
  328BOLB   C2B 7858  27.275  13.080  42.540
  328BOLB   C3B 7859  27.585  13.230  42.740
  328BOLB   C4B 7860  27.895  13.550  42.540
  328BOLB   NC2 7861  28.255  11.130  44.220
  328BOLB   PO2 7862  27.985  11.420  44.620
  328BOLB   GL3 7863  27.905  11.720  44.260
  328BOLB   GL4 7864  27.595  11.730  44.360
  328BOLB   C1C 7865  27.705  11.800  43.800
  328BOLB   C2C 7866  27.385  11.790  43.520
  328BOLB   C3C 7867  27.015  11.780  43.240
  328BOLB   C4C 7868  26.775  12.150  43.150
  328BOLB   C1D 7869  27.425  11.450  44.090
  328BOLB   C2D 7870  27.285  11.280  43.640
  328BOLB   C3D 7871  27.065  11.270  43.280
  328BOLB   C4D 7872  26.885  11.330  42.930
  329BOLB   NC1 7873  23.400   9.570  24.710
  329BOLB   PO1 7874  23.070   9.790  24.400
  329BOLB   GL1 7875  23.240   9.580  24.090
  329BOLB   GL2 7876  23.190   9.610  23.750
  329BOLB   C1A 7877  23.450   9.230  23.940
  329BOLB   C2A 7878  23.850   9.040  23.700
  329BOLB   C3A 7879  23.920   8.610  23.580
  329BOLB   C4A 7880  23.910   8.240  23.440
  329BOLB   C1B 7881  23.040   9.770  23.330
  329BOLB   C2B 7882  22.880   9.460  23.000
  329BOLB   C3B 7883  22.450   9.410  22.880
  329BOLB   C4B 7884  22.460   9.130  22.700
  329BOLB   NC2 7885  24.320   6.570  21.510
  329BOLB   PO2 7886  24.450   6.970  21.660
  329BOLB   GL3 7887  24.370   7.370  21.860
  329BOLB   GL4 7888  24.060   7.340  21.940
  329BOLB   C1C 7889  24.350   7.710  22.090
  329BOLB   C2C 7890  24.230   7.990  22.440
  329BOLB   C3C 7891  24.050   8.170  22.700
  329BOLB   C4C 7892  23.840   7.930  23.110
  329BOLB   C1D 7893  23.970   7.760  21.790
  329BOLB   C2D 7894  23.990   8.140  22.000
  329BOLB   C3D 7895  23.770   8.370  22.230
  329BOLB   C4D 7896  23.650   8.390  22.660
  330BOLB   NC1 7897  19.860  19.420  42.840
  330BOLB   PO1 7898  19.960  19.790  42.720
  330BOLB   GL1 7899  19.590  19.870  42.950
  330BOLB   GL2 7900  19.600  19.710  43.280
  330BOLB   C1A 7901  19.180  19.990  43.090
  330BOLB   C2A 7902  19.000  20.080  43.500
  330BOLB   C3A 7903  19.090  20.060  43.960
  330BOLB   C4A 7904  19.260  20.160  44.230
  330BOLB   C1B 7905  19.600  20.030  43.450
  330BOLB   C2B 7906  19.460  20.320  43.720
  330BOLB   C3B 7907  19.510  20.600  44.080
  330BOLB   C4B 7908  19.100  20.830  44.280
  330BOLB   NC2 7909  18.810  21.200  46.930
  330BOLB   PO2 7910  19.020  21.120  46.460
  330BOLB   GL3 7911  19.220  21.180  46.060
  330BOLB   GL4 7912  18.940  21.230  45.850
  330BOLB   C1C 7913  19.480  20.970  45.780
  330BOLB   C2C 7914  19.280  20.800  45.390
  330BOLB   C3C 7915  19.420  20.550  45.020
  330BOLB   C4C 7916  19.340  20.420  44.590
  330BOLB   C1D 7917  18.780  20.910  45.580
  330BOLB   C2D 7918  18.770  20.730  45.290
  330BOLB   C3D 7919  18.800  20.780  44.860
  330BOLB   C4D 7920  18.740  21.000  44.570
  331BOLB   NC1 7921  17.100  14.560  25.000
  331BOLB   PO1 7922  17.100  14.780  24.660
  331BOLB   GL1 7923  16.910  14.560  24.270
  331BOLB   GL2 7924  16.810  14.800  24.080
  331BOLB   C1A 7925  16.630  14.220  24.170
  331BOLB   C2A 7926  16.510  14.070  23.780
  331BOLB   C3A 7927  16.230  13.770  23.700
  331BOLB   C4A 7928  15.880  13.430  23.570
  331BOLB   C1B 7929  16.520  14.580  23.810
  331BOLB   C2B 7930  16.180  14.380  23.560
  331BOLB   C3B 7931  15.880  14.080  23.430
  331BOLB   C4B 7932  15.640  13.870  23.220
  331BOLB   NC2 7933  13.530  12.420  21.710
  331BOLB   PO2 7934  13.950  12.540  21.940
  331BOLB   GL3 7935  14.370  12.720  22.150
  331BOLB   GL4 7936  14.560  13.050  22.120
  331BOLB   C1C 7937  14.590  12.780  22.560
  331BOLB   C2C 7938  14.800  13.050  22.910
  331BOLB   C3C 7939  15.050  13.270  23.160
  331BOLB   C4C 7940  15.450  13.460  23.500
  331BOLB   C1D 7941  14.730  13.280  22.490
  331BOLB   C2D 7942  15.120  13.450  22.690
  331BOLB   C3D 7943  15.130  13.780  23.050
  331BOLB   C4D 7944  15.090  14.090  23.350
  332BOLB   NC1 7945  20.050  23.880  36.750
  332BOLB   PO1 7946  20.440  23.790  36.730
  332BOLB   GL1 7947  20.600  23.980  37.060
  332BOLB   GL2 7948  20.870  24.210  36.930
  332BOLB   C1A 7949  20.750  24.260  37.380
  332BOLB   C2A 7950  20.790  24.660  37.460
  332BOLB   C3A 7951  20.510  25.050  37.690
  332BOLB   C4A 7952  20.260  25.320  37.950
  332BOLB   C1B 7953  21.000  24.500  37.070
  332BOLB   C2B 7954  21.150  24.860  37.200
  332BOLB   C3B 7955  21.360  25.290  37.090
  332BOLB   C4B 7956  21.560  25.670  36.920
  332BOLB   NC2 7957  20.360   1.020  38.670
  332BOLB   PO2 7958  20.880   1.010  38.830
  332BOLB   GL3 7959  20.800   0.700  38.710
  332BOLB   GL4 7960  20.490   0.550  38.820
  332BOLB   C1C 7961  20.920   0.280  38.590
  332BOLB   C2C 7962  20.720  26.350  38.400
  332BOLB   C3C 7963  20.410  26.060  38.450
  332BOLB   C4C 7964  20.350  25.600  38.390
  332BOLB   C1D 7965  20.480   0.420  38.360
  332BOLB   C2D 7966  20.250   0.030  38.180
  332BOLB   C3D 7967  20.080  26.220  37.880
  332BOLB   C4D 7968  20.010  25.990  37.500
  333BOLB   NC1 7969  16.720  13.250  28.150
  333BOLB   PO1 7970  16.470  13.320  28.540
  333BOLB   GL1 7971  16.190  13.100  28.290
  333BOLB   GL2 7972  16.280  13.000  27.960
  333BOLB   C1A 7973  15.790  12.970  28.050
  333BOLB   C2A 7974  15.590  12.670  28.090
  333BOLB   C3A 7975  15.200  12.390  28.050
  333BOLB   C4A 7976  14.950  12.220  28.330
  333BOLB   C1B 7977  16.090  12.950  27.620
  333BOLB   C2B 7978  15.900  12.690  27.600
  333BOLB   C3B 7979  15.910  12.330  27.370
  333BOLB   C4B 7980  15.810  12.000  27.280
  333BOLB   NC2 7981  12.040  11.960  28.580
  333BOLB   PO2 7982  12.460  11.880  28.450
  333BOLB   GL3 7983  12.880  12.020  28.490
  333BOLB   GL4 7984  12.790  12.310  28.360
  333BOLB   C1C 7985  13.340  12.190  28.620
  333BOLB   C2C 7986  13.840  12.200  28.530
  333BOLB   C3C 7987  14.230  12.210  28.420
  333BOLB   C4C 7988  14.630  12.150  28.560
  333BOLB   C1D 7989  13.070  12.650  28.140
  333BOLB   C2D 7990  13.430  12.900  27.980
  333BOLB   C3D 7991  13.800  12.740  27.870
  333BOLB   C4D 7992  14.060  12.470  27.550
  334BOLB   NC1 7993  22.090  10.990  40.600
  334BOLB   PO1 7994  22.110  10.620  40.320
  334BOLB   GL1 7995  21.930  10.460  40.510
  334BOLB   GL2 7996  22.140  10.290  40.900
  334BOLB   C1A 7997  21.780  10.030  40.570
  334BOLB   C2A 7998  21.680   9.650  40.790
  334BOLB   C3A 7999  21.420   9.460  40.850
  334BOLB   C4A 8000  21.610   9.120  40.800
  334BOLB   C1B 8001  22.030   9.950  41.070
  334BOLB   C2B 8002  22.070   9.530  41.020
  334BOLB   C3B 8003  22.040   9.290  40.560
  334BOLB   C4B 8004  22.240   8.780  40.580
  334BOLB   NC2 8005  21.510   7.150  42.380
  334BOLB   PO2 8006  21.100   7.180  42.220
  334BOLB   GL3 8007  21.030   7.350  41.770
  334BOLB   GL4 8008  21.290   7.230  41.550
  334BOLB   C1C 8009  21.160   7.750  41.620
  334BOLB   C2C 8010  21.210   8.070  41.420
  334BOLB   C3C 8011  21.460   8.480  41.370
  334BOLB   C4C 8012  21.650   8.790  41.080
  334BOLB   C1D 8013  21.500   7.590  41.280
  334BOLB   C2D 8014  21.480   7.730  40.790
  334BOLB   C3D 8015  21.300   7.990  40.510
  334BOLB   C4D 8016  21.280   8.330  40.290
  335BOLB   NC1 8017  19.980  26.140  42.440
  335BOLB   PO1 8018  19.580  26.170  42.440
  335BOLB   GL1 8019  19.550  25.800  42.410
  335BOLB   GL2 8020  19.840  25.610  42.470
  335BOLB   C1A 8021  19.600  25.570  42.020
  335BOLB   C2A 8022  19.480  25.420  41.670
  335BOLB   C3A 8023  19.540  24.990  41.440
  335BOLB   C4A 8024  19.780  24.630  41.440
  335BOLB   C1B 8025  20.050  25.330  42.190
  335BOLB   C2B 8026  20.480  25.220  42.110
  335BOLB   C3B 8027  20.850  24.980  42.090
  335BOLB   C4B 8028  21.260  25.020  42.360
  335BOLB   NC2 8029  19.130  26.150  42.740
  335BOLB   PO2 8030  19.250  25.790  42.990
  335BOLB   GL3 8031  19.370  25.460  42.750
  335BOLB   GL4 8032  19.260  25.450  42.530
  335BOLB   C1C 8033  19.540  24.980  42.750
  335BOLB   C2C 8034  19.730  24.680  42.410
  335BOLB   C3C 8035  19.860  24.480  42.110
  335BOLB   C4C 8036  20.010  24.400  41.710
  335BOLB   C1D 8037  18.930  25.140  42.420
  335BOLB   C2D 8038  18.790  24.760  42.240
  335BOLB   C3D 8039  18.590  24.590  41.870
  335BOLB   C4D 8040  18.610  24.650  41.390
  336BOLB   NC1 8041  14.470  22.350  28.110
  336BOLB   PO1 8042  14.390  22.520  28.560
  336BOLB   GL1 8043  14.150  22.720  28.430
  336BOLB   GL2 8044  13.790  22.750  28.580
  336BOLB   C1A 8045  13.840  23.030  28.180
  336BOLB   C2A 8046  13.860  23.390  28.190
  336BOLB   C3A 8047  13.710  23.650  27.970
  336BOLB   C4A 8048  13.470  23.910  27.750
  336BOLB   C1B 8049  13.490  23.020  28.530
  336BOLB   C2B 8050  13.180  23.110  28.360
  336BOLB   C3B 8051  12.870  23.540  28.650
  336BOLB   C4B 8052  12.470  23.830  28.870
  336BOLB   NC2 8053  12.030  26.180  26.750
  336BOLB   PO2 8054  12.070  25.760  26.800
  336BOLB   GL3 8055  12.450  25.550  27.080
  336BOLB   GL4 8056  12.350  25.320  27.020
  336BOLB   C1C 8057  12.670  25.260  27.450
  336BOLB   C2C 8058  12.940  24.890  27.490
  336BOLB   C3C 8059  13.070  24.510  27.570
  336BOLB   C4C 8060  13.270  24.190  27.540
  336BOLB   C1D 8061  12.540  24.920  27.050
  336BOLB   C2D 8062  12.820  24.530  26.950
  336BOLB   C3D 8063  13.230  24.300  27.030
  336BOLB   C4D 8064  13.630  23.980  26.990
  337BOLB   NC1 8065  15.350  21.470  37.930
  337BOLB   PO1 8066  15.570  21.220  38.260
  337BOLB   GL1 8067  15.370  21.550  38.530
  337BOLB   GL2 8068  15.280  21.920  38.430
  337BOLB   C1A 8069  14.990  21.590  38.810
  337BOLB   C2A 8070  14.510  21.740  38.970
  337BOLB   C3A 8071  14.080  21.700  38.980
  337BOLB   C4A 8072  13.640  21.580  39.080
  337BOLB   C1B 8073  15.300  22.280  38.610
  337BOLB   C2B 8074  15.410  22.700  38.860
  337BOLB   C3B 8075  15.650  22.920  39.120
  337BOLB   C4B 8076  15.880  23.250  39.090
  337BOLB   NC2 8077  11.130  21.800  39.770
  337BOLB   PO2 8078  11.380  21.480  39.430
  337BOLB   GL3 8079  11.780  21.460  39.680
  337BOLB   GL4 8080  11.910  21.560  39.400
  337BOLB   C1C 8081  12.270  21.280  39.520
  337BOLB   C2C 8082  12.590  21.340  39.220
  337BOLB   C3C 8083  12.970  21.230  39.140
  337BOLB   C4C 8084  13.360  21.310  39.090
  337BOLB   C1D 8085  12.070  21.280  39.020
  337BOLB   C2D 8086  12.250  21.060  38.680
  337BOLB   C3D 8087  12.250  21.070  38.310
  337BOLB   C4D 8088  12.090  21.310  38.110
  338BOLB   NC1 8089  31.185   7.370  25.890
  338BOLB   PO1 8090  30.875   7.560  26.110
  338BOLB   GL1 8091  30.795   7.610  26.570
  338BOLB   GL2 8092  30.675   7.490  26.880
  338BOLB   C1A 8093  30.785   8.020  26.650
  338BOLB   C2A 8094  30.775   8.360  26.850
  338BOLB   C3A 8095  30.905   8.600  27.180
  338BOLB   C4A 8096  31.255   8.760  27.310
  338BOLB   C1B 8097  30.725   7.790  27.130
  338BOLB   C2B 8098  30.665   8.190  27.300
  338BOLB   C3B 8099  30.655   8.390  27.770
  338BOLB   C4B 8100  30.335   8.460  28.100
  338BOLB   NC2 8101  32.065   9.610  25.610
  338BOLB   PO2 8102  32.175   9.980  25.940
  338BOLB   GL3 8103  31.735   9.950  26.050
  338BOLB   GL4 8104  31.485   9.920  25.880
  338BOLB   C1C 8105  31.605   9.970  26.460
  338BOLB   C2C 8106  31.565   9.780  26.830
  338BOLB   C3C 8107  31.375   9.530  27.030
  338BOLB   C4C 8108  31.465   9.120  27.110
  338BOLB   C1D 8109  31.135  10.140  25.850
  338BOLB   C2D 8110  30.945  10.590  25.830
  338BOLB   C3D 8111  30.575  10.720  25.590
  338BOLB   C4D 8112  30.515  10.780  25.080
  339BOLB   NC1 8113  13.890  21.680  27.870
  339BOLB   PO1 8114  14.120  21.640  27.540
  339BOLB   GL1 8115  13.730  21.770  27.280
  339BOLB   GL2 8116  13.310  21.770  27.330
  339BOLB   C1A 8117  13.530  22.090  26.910
  339BOLB   C2A 8118  13.110  22.260  26.770
  339BOLB   C3A 8119  12.890  22.720  26.560
  339BOLB   C4A 8120  12.930  23.150  26.240
  339BOLB   C1B 8121  13.310  22.270  27.360
  339BOLB   C2B 8122  13.050  22.640  27.630
  339BOLB   C3B 8123  12.730  22.850  27.800
  339BOLB   C4B 8124  12.960  23.200  27.930
  339BOLB   NC2 8125  11.620  25.760  25.930
  339BOLB   PO2 8126  11.730  25.320  25.700
  339BOLB   GL3 8127  11.920  24.870  25.770
  339BOLB   GL4 8128  12.100  24.960  26.090
  339BOLB   C1C 8129  12.150  24.500  25.810
  339BOLB   C2C 8130  12.400  24.320  25.710
  339BOLB   C3C 8131  12.680  23.920  25.750
  339BOLB   C4C 8132  12.900  23.640  25.990
  339BOLB   C1D 8133  12.200  25.040  26.620
  339BOLB   C2D 8134  12.030  24.850  26.990
  339BOLB   C3D 8135  12.150  24.480  27.240
  339BOLB   C4D 8136  12.290  23.990  27.210
  340BOLB   NC1 8137  22.380  21.350  25.930
  340BOLB   PO1 8138  22.590  21.720  25.790
  340BOLB   GL1 8139  22.820  21.940  25.420
  340BOLB   GL2 8140  22.730  22.040  25.100
  340BOLB   C1A 8141  23.080  22.300  25.370
  340BOLB   C2A 8142  23.450  22.380  25.500
  340BOLB   C3A 8143  23.740  22.740  25.370
  340BOLB   C4A 8144  23.930  22.930  24.970
  340BOLB   C1B 8145  22.860  22.410  24.850
  340BOLB   C2B 8146  22.860  22.830  24.890
  340BOLB   C3B 8147  22.990  23.190  24.880
  340BOLB   C4B 8148  23.040  23.700  24.840
  340BOLB   NC2 8149  25.230  23.900  23.210
  340BOLB   PO2 8150  24.910  24.040  23.500
  340BOLB   GL3 8151  24.750  23.750  23.680
  340BOLB   GL4 8152  24.520  23.610  23.590
  340BOLB   C1C 8153  24.470  23.750  24.040
  340BOLB   C2C 8154  24.310  23.450  24.340
  340BOLB   C3C 8155  24.010  23.100  24.310
  340BOLB   C4C 8156  23.720  22.970  24.640
  340BOLB   C1D 8157  24.310  23.390  23.140
  340BOLB   C2D 8158  24.030  23.380  22.910
  340BOLB   C3D 8159  23.810  23.240  22.620
  340BOLB   C4D 8160  23.650  23.630  22.760
  341BOLB   NC1 8161  18.110  12.370  38.620
  341BOLB   PO1 8162  17.790  12.150  38.350
  341BOLB   GL1 8163  17.380  11.960  38.510
  341BOLB   GL2 8164  17.130  11.890  38.230
  341BOLB   C1A 8165  17.260  11.570  38.730
  341BOLB   C2A 8166  17.240  11.300  39.030
  341BOLB   C3A 8167  16.920  11.170  39.360
  341BOLB   C4A 8168  16.510  11.050  39.430
  341BOLB   C1B 8169  16.880  11.620  38.370
  341BOLB   C2B 8170  16.590  11.390  38.420
  341BOLB   C3B 8171  16.440  10.900  38.470
  341BOLB   C4B 8172  16.130  10.560  38.560
  341BOLB   NC2 8173  15.960  10.040  41.220
  341BOLB   PO2 8174  16.090   9.640  40.940
  341BOLB   GL3 8175  16.450   9.940  40.750
  341BOLB   GL4 8176  16.610   9.720  40.680
  341BOLB   C1C 8177  16.380  10.150  40.450
  341BOLB   C2C 8178  16.190  10.470  40.220
  341BOLB   C3C 8179  16.040  10.780  39.980
  341BOLB   C4C 8180  16.030  10.850  39.480
  341BOLB   C1D 8181  16.900  10.090  40.470
  341BOLB   C2D 8182  17.350  10.150  40.290
  341BOLB   C3D 8183  17.670   9.950  40.250
  341BOLB   C4D 8184  18.070  10.000  39.990
  342BOLB   NC1 8185  19.800  13.520  41.640
  342BOLB   PO1 8186  20.350  13.560  41.600
  342BOLB   GL1 8187  20.210  13.250  41.780
  342BOLB   GL2 8188  20.310  12.890  41.690
  342BOLB   C1A 8189  19.980  12.960  42.170
  342BOLB   C2A 8190  19.830  12.640  42.320
  342BOLB   C3A 8191  19.540  12.300  42.480
  342BOLB   C4A 8192  19.460  11.930  42.580
  342BOLB   C1B 8193  20.180  12.520  41.860
  342BOLB   C2B 8194  19.970  12.240  42.100
  342BOLB   C3B 8195  19.890  11.910  42.320
  342BOLB   C4B 8196  19.650  11.510  42.290
  342BOLB   NC2 8197  18.110   9.920  43.380
  342BOLB   PO2 8198  18.430  10.070  43.650
  342BOLB   GL3 8199  18.590  10.430  43.750
  342BOLB   GL4 8200  18.960  10.370  43.750
  342BOLB   C1C 8201  18.550  10.790  43.440
  342BOLB   C2C 8202  18.690  10.970  43.070
  342BOLB   C3C 8203  18.970  11.260  42.820
  342BOLB   C4C 8204  19.200  11.530  42.590
  342BOLB   C1D 8205  19.010  10.640  43.450
  342BOLB   C2D 8206  19.180  10.960  43.230
  342BOLB   C3D 8207  19.430  11.210  43.050
  342BOLB   C4D 8208  19.660  11.450  42.910
  343BOLB   NC1 8209  24.190  19.200  33.480
  343BOLB   PO1 8210  24.450  19.470  33.490
  343BOLB   GL1 8211  24.820  19.660  33.250
  343BOLB   GL2 8212  24.910  19.470  32.960
  343BOLB   C1A 8213  25.190  19.990  33.410
  343BOLB   C2A 8214  25.490  20.380  33.370
  343BOLB   C3A 8215  25.900  20.530  33.090
  343BOLB   C4A 8216  26.280  20.820  33.040
  343BOLB   C1B 8217  25.250  19.550  32.750
  343BOLB   C2B 8218  25.460  19.920  32.530
  343BOLB   C3B 8219  25.470  20.250  32.320
  343BOLB   C4B 8220  25.530  20.500  31.870
  343BOLB   NC2 8221  27.165  22.900  32.060
  343BOLB   PO2 8222  27.195  22.540  31.950
  343BOLB   GL3 8223  26.975  22.390  32.190
  343BOLB   GL4 8224  26.755  22.560  32.220
  343BOLB   C1C 8225  26.885  22.060  32.350
  343BOLB   C2C 8226  26.685  21.910  32.730
  343BOLB   C3C 8227  26.555  21.530  33.100
  343BOLB   C4C 8228  26.575  21.100  33.100
  343BOLB   C1D 8229  26.445  22.270  32.350
  343BOLB   C2D 8230  26.160  22.150  32.600
  343BOLB   C3D 8231  26.250  21.930  32.980
  343BOLB   C4D 8232  26.565  22.030  33.220
  344BOLB   NC1 8233  26.515  14.410  23.950
  344BOLB   PO1 8234  26.645  14.000  24.120
  344BOLB   GL1 8235  27.085  13.840  23.900
  344BOLB   GL2 8236  27.015  14.070  23.670
  344BOLB   C1A 8237  27.575  13.850  23.720
  344BOLB   C2A 8238  27.985  13.790  23.630
  344BOLB   C3A 8239  28.385  13.780  23.370
  344BOLB   C4A 8240  28.685  14.100  23.430
  344BOLB   C1B 8241  27.295  14.120  23.320
  344BOLB   C2B 8242  27.575  13.900  23.170
  344BOLB   C3B 8243  27.745  13.800  22.820
  344BOLB   C4B 8244  28.015  13.640  22.480
  344BOLB   NC2 8245  30.945  14.180  22.160
  344BOLB   PO2 8246  30.775  13.840  22.190
  344BOLB   GL3 8247  30.585  13.990  22.660
  344BOLB   GL4 8248  30.315  13.720  22.630
  344BOLB   C1C 8249  30.225  14.210  22.870
  344BOLB   C2C 8250  29.965  14.190  23.010
  344BOLB   C3C 8251  29.475  14.130  23.060
  344BOLB   C4C 8252  29.135  14.170  23.360
  344BOLB   C1D 8253  30.085  13.730  22.940
  344BOLB   C2D 8254  29.785  13.650  23.270
  344BOLB   C3D 8255  29.705  13.570  23.730
  344BOLB   C4D 8256  29.785  13.730  24.200
  345BOLB   NC1 8257  26.695   8.410  36.820
  345BOLB   PO1 8258  26.565   8.520  37.170
  345BOLB   GL1 8259  26.735   8.180  37.280
  345BOLB   GL2 8260  26.485   8.040  37.110
  345BOLB   C1A 8261  26.795   7.720  37.430
  345BOLB   C2A 8262  26.925   7.420  37.270
  345BOLB   C3A 8263  27.155   7.100  37.280
  345BOLB   C4A 8264  27.275   6.720  37.440
  345BOLB   C1B 8265  26.320   7.530  37.010
  345BOLB   C2B 8266  26.575   7.060  37.070
  345BOLB   C3B 8267  26.410   6.560  37.050
  345BOLB   C4B 8268  26.735   6.300  36.780
  345BOLB   NC2 8269  28.505   4.840  38.100
  345BOLB   PO2 8270  28.185   4.750  38.030
  345BOLB   GL3 8271  28.035   5.130  38.000
  345BOLB   GL4 8272  28.105   5.210  37.640
  345BOLB   C1C 8273  27.795   5.470  38.020
  345BOLB   C2C 8274  27.635   5.840  37.950
  345BOLB   C3C 8275  27.425   6.230  37.970
  345BOLB   C4C 8276  27.355   6.430  37.710
  345BOLB   C1D 8277  27.955   5.690  37.580
  345BOLB   C2D 8278  27.735   6.060  37.480
  345BOLB   C3D 8279  27.625   6.480  37.330
  345BOLB   C4D 8280  27.655   6.950  37.300
  346BOLB   NC1 8281  14.600  23.510  30.120
  346BOLB   PO1 8282  14.300  23.300  30.330
  346BOLB   GL1 8283  14.160  23.650  30.290
  346BOLB   GL2 8284  14.330  23.870  30.380
  346BOLB   C1A 8285  13.870  23.950  30.230
  346BOLB   C2A 8286  13.600  24.350  30.380
  346BOLB   C3A 8287  13.140  24.620  30.330
  346BOLB   C4A 8288  12.840  24.800  30.420
  346BOLB   C1B 8289  13.970  24.220  30.630
  346BOLB   C2B 8290  13.630  24.440  30.890
  346BOLB   C3B 8291  13.260  24.500  31.050
  346BOLB   C4B 8292  12.930  24.750  30.950
  346BOLB   NC2 8293  13.160   0.540  31.050
  346BOLB   PO2 8294  12.730   0.430  31.150
  346BOLB   GL3 8295  12.540   0.100  30.940
  346BOLB   GL4 8296  12.780  26.270  31.080
  346BOLB   C1C 8297  12.340  26.120  30.850
  346BOLB   C2C 8298  12.390  25.710  30.850
  346BOLB   C3C 8299  12.590  25.340  30.910
  346BOLB   C4C 8300  12.560  24.900  30.640
  346BOLB   C1D 8301  13.080  26.320  30.860
  346BOLB   C2D 8302  13.420  26.020  30.550
  346BOLB   C3D 8303  13.720  25.660  30.530
  346BOLB   C4D 8304  13.750  25.270  30.560
  347BOLB   NC1 8305  23.620  11.460  22.560
  347BOLB   PO1 8306  23.820  11.280  22.850
  347BOLB   GL1 8307  23.800  10.950  22.610
  347BOLB   GL2 8308  23.750  11.000  22.360
  347BOLB   C1A 8309  23.940  10.550  22.500
  347BOLB   C2A 8310  24.320  10.240  22.430
  347BOLB   C3A 8311  24.260   9.900  22.290
  347BOLB   C4A 8312  24.010   9.560  22.330
  347BOLB   C1B 8313  23.580  10.700  22.130
  347BOLB   C2B 8314  23.200  10.480  22.100
  347BOLB   C3B 8315  22.960  10.120  21.850
  347BOLB   C4B 8316  22.800   9.840  21.510
  347BOLB   NC2 8317  24.500   7.380  21.380
  347BOLB   PO2 8318  24.320   7.610  21.060
  347BOLB   GL3 8319  24.340   7.860  21.290
  347BOLB   GL4 8320  24.510   7.870  21.620
  347BOLB   C1C 8321  24.130   8.130  21.560
  347BOLB   C2C 8322  23.740   8.510  21.780
  347BOLB   C3C 8323  23.680   8.790  22.050
  347BOLB   C4C 8324  23.720   9.200  22.190
  347BOLB   C1D 8325  24.440   8.250  21.960
  347BOLB   C2D 8326  24.210   8.610  22.060
  347BOLB   C3D 8327  24.000   8.810  22.420
  347BOLB   C4D 8328  24.000   9.140  22.700
  348BOLB   NC1 8329  27.865  17.320  34.290
  348BOLB   PO1 8330  27.595  17.630  34.270
  348BOLB   GL1 8331  27.965  17.810  34.290
  348BOLB   GL2 8332  28.115  17.690  34.100
  348BOLB   C1A 8333  28.465  17.680  34.510
  348BOLB   C2A 8334  28.865  17.760  34.670
  348BOLB   C3A 8335  29.205  17.930  34.810
  348BOLB   C4A 8336  29.585  18.150  34.810
  348BOLB   C1B 8337  28.315  18.080  34.040
  348BOLB   C2B 8338  28.595  18.310  34.240
  348BOLB   C3B 8339  28.785  18.230  34.620
  348BOLB   C4B 8340  28.785  18.120  35.030
  348BOLB   NC2 8341  31.225  19.590  34.780
  348BOLB   PO2 8342  31.435  19.440  34.470
  348BOLB   GL3 8343  31.145  19.160  34.460
  348BOLB   GL4 8344  30.875  19.120  34.230
  348BOLB   C1C 8345  31.125  18.780  34.650
  348BOLB   C2C 8346  30.795  18.380  34.570
  348BOLB   C3C 8347  30.405  18.150  34.680
  348BOLB   C4C 8348  30.005  17.950  34.650
  348BOLB   C1D 8349  30.495  18.940  34.170
  348BOLB   C2D 8350  30.095  18.530  34.160
  348BOLB   C3D 8351  29.765  18.480  34.430
  348BOLB   C4D 8352  29.285  18.500  34.680
  349BOLB   NC1 8353  16.370  19.680  39.680
  349BOLB   PO1 8354  16.360  19.560  40.170
  349BOLB   GL1 8355  15.940  19.750  40.380
  349BOLB   GL2 8356  15.750  19.460  40.320
  349BOLB   C1A 8357  15.600  20.010  40.510
  349BOLB   C2A 8358  15.640  20.330  40.630
  349BOLB   C3A 8359  15.220  20.610  40.700
  349BOLB   C4A 8360  15.060  21.100  40.880
  349BOLB   C1B 8361  15.360  19.490  40.430
  349BOLB   C2B 8362  15.160  19.350  40.800
  349BOLB   C3B 8363  14.830  19.510  40.950
  349BOLB   C4B 8364  14.730  19.400  41.370
  349BOLB   NC2 8365  14.150  23.200  42.230
  349BOLB   PO2 8366  14.010  22.700  42.290
  349BOLB   GL3 8367  14.250  22.470  42.100
  349BOLB   GL4 8368  14.230  22.710  41.780
  349BOLB   C1C 8369  14.420  22.130  41.880
  349BOLB   C2C 8370  14.660  21.710  41.600
  349BOLB   C3C 8371  14.590  21.520  41.370
  349BOLB   C4C 8372  14.810  21.510  40.980
  349BOLB   C1D 8373  14.520  22.560  41.550
  349BOLB   C2D 8374  14.800  22.180  41.430
  349BOLB   C3D 8375  15.120  21.840  41.500
  349BOLB   C4D 8376  15.580  21.650  41.470
  350BOLB   NC1 8377  20.880  17.720  43.560
  350BOLB   PO1 8378  21.170  17.620  43.850
  350BOLB   GL1 8379  21.450  17.600  44.130
  350BOLB   GL2 8380  21.720  17.570  44.260
  350BOLB   C1A 8381  21.180  17.410  44.490
  350BOLB   C2A 8382  21.110  17.250  44.930
  350BOLB   C3A 8383  21.250  17.220  45.320
  350BOLB   C4A 8384  21.540  17.040  45.500
  350BOLB   C1B 8385  21.560  17.670  44.600
  350BOLB   C2B 8386  21.200  17.760  44.830
  350BOLB   C3B 8387  21.040  18.040  45.110
  350BOLB   C4B 8388  21.270  18.020  45.560
  350BOLB   NC2 8389  22.540  16.950  47.500
  350BOLB   PO2 8390  22.220  16.560  47.520
  350BOLB   GL3 8391  22.210  16.530  47.070
  350BOLB   GL4 8392  21.990  16.340  47.120
  350BOLB   C1C 8393  22.370  16.610  46.710
  350BOLB   C2C 8394  22.290  16.940  46.470
  350BOLB   C3C 8395  22.070  17.000  46.190
  350BOLB   C4C 8396  21.770  16.940  45.860
  350BOLB   C1D 8397  22.080  16.220  46.640
  350BOLB   C2D 8398  22.060  16.470  46.290
  350BOLB   C3D 8399  22.200  16.620  45.910
  350BOLB   C4D 8400  22.400  16.760  45.590
  351BOLB   NC1 8401  29.345  12.470  37.130
  351BOLB   PO1 8402  29.115  12.210  37.420
  351BOLB   GL1 8403  29.445  11.880  37.470
  351BOLB   GL2 8404  29.435  11.610  37.490
  351BOLB   C1A 8405  29.695  11.850  37.870
  351BOLB   C2A 8406  30.025  11.610  38.030
  351BOLB   C3A 8407  30.285  11.310  38.140
  351BOLB   C4A 8408  30.705  11.130  38.150
  351BOLB   C1B 8409  29.915  11.560  37.470
  351BOLB   C2B 8410  30.275  11.730  37.300
  351BOLB   C3B 8411  30.675  11.680  37.330
  351BOLB   C4B 8412  30.915  11.470  37.660
  351BOLB   NC2 8413  32.505   9.750  39.390
  351BOLB   PO2 8414  32.585  10.090  39.070
  351BOLB   GL3 8415  32.185   9.860  38.890
  351BOLB   GL4 8416  32.305   9.990  38.510
  351BOLB   C1C 8417  31.815  10.020  38.820
  351BOLB   C2C 8418  31.505  10.330  38.550
  351BOLB   C3C 8419  31.385  10.750  38.200
  351BOLB   C4C 8420  31.165  11.050  38.020
  351BOLB   C1D 8421  32.035  10.250  38.360
  351BOLB   C2D 8422  31.775  10.380  38.110
  351BOLB   C3D 8423  31.355  10.430  37.790
  351BOLB   C4D 8424  31.145  10.620  37.500
  352BOLB   NC1 8425  22.920  19.510  42.720
  352BOLB   PO1 8426  22.660  19.760  42.930
  352BOLB   GL1 8427  22.850  19.740  43.200
  352BOLB   GL2 8428  22.970  19.440  43.230
  352BOLB   C1A 8429  23.340  19.720  43.310
  352BOLB   C2A 8430  23.580  19.650  43.680
  352BOLB   C3A 8431  23.770  20.010  43.970
  352BOLB   C4A 8432  23.970  19.910  44.350
  352BOLB   C1B 8433  23.180  19.330  43.640
  352BOLB   C2B 8434  23.290  19.330  44.030
  352BOLB   C3B 8435  23.050  19.540  44.370
  352BOLB   C4B 8436  22.880  19.430  44.760
  352BOLB   NC2 8437  24.530  21.530  46.460
  352BOLB   PO2 8438  24.410  21.140  46.060
  352BOLB   GL3 8439  24.600  20.900  45.800
  352BOLB   GL4 8440  24.300  20.760  45.770
  352BOLB   C1C 8441  24.760  20.570  45.550
  352BOLB   C2C 8442  24.620  20.240  45.410
  352BOLB   C3C 8443  24.500  20.050  45.000
  352BOLB   C4C 8444  24.240  19.840  44.660
  352BOLB   C1D 8445  23.860  20.700  45.710
  352BOLB   C2D 8446  23.660  20.540  45.280
  352BOLB   C3D 8447  23.750  20.240  44.920
  352BOLB   C4D 8448  23.650  19.840  44.790
  353BOLB   NC1 8449  13.690  18.300  32.510
  353BOLB   PO1 8450  13.440  18.130  32.070
  353BOLB   GL1 8451  13.030  18.200  32.010
  353BOLB   GL2 8452  12.830  17.930  32.170
  353BOLB   C1A 8453  12.650  18.360  31.920
  353BOLB   C2A 8454  12.380  18.310  31.670
  353BOLB   C3A 8455  11.990  18.170  31.620
  353BOLB   C4A 8456  11.640  17.890  31.520
  353BOLB   C1B 8457  12.800  17.960  31.670
  353BOLB   C2B 8458  12.490  17.920  31.330
  353BOLB   C3B 8459  12.040  17.990  31.190
  353BOLB   C4B 8460  11.670  18.060  31.070
  353BOLB   NC2 8461   9.910  16.250  31.690
  353BOLB   PO2 8462   9.910  16.590  31.480
  353BOLB   GL3 8463  10.230  16.580  31.380
  353BOLB   GL4 8464  10.360  16.320  31.570
  353BOLB   C1C 8465  10.750  16.760  31.260
  353BOLB   C2C 8466  11.140  16.880  31.150
  353BOLB   C3C 8467  11.460  17.180  31.180
  353BOLB   C4C 8468  11.570  17.600  31.270
  353BOLB   C1D 8469  10.830  16.360  31.570
  353BOLB   C2D 8470  11.220  16.510  31.460
  353BOLB   C3D 8471  11.470  16.790  31.580
  353BOLB   C4D 8472  11.780  17.050  31.530
  354BOLB   NC1 8473  15.330  17.240  39.070
  354BOLB   PO1 8474  15.110  17.170  38.700
  354BOLB   GL1 8475  14.720  16.950  38.990
  354BOLB   GL2 8476  14.760  16.830  39.370
  354BOLB   C1A 8477  14.510  16.540  39.100
  354BOLB   C2A 8478  14.320  16.120  39.400
  354BOLB   C3A 8479  14.410  15.850  39.690
  354BOLB   C4A 8480  14.560  15.770  40.050
  354BOLB   C1B 8481  14.630  16.540  39.670
  354BOLB   C2B 8482  14.300  16.260  39.930
  354BOLB   C3B 8483  13.950  16.200  39.770
  354BOLB   C4B 8484  13.660  16.150  39.980
  354BOLB   NC2 8485  12.680  16.080  41.410
  354BOLB   PO2 8486  12.740  15.570  41.550
  354BOLB   GL3 8487  13.060  15.500  41.220
  354BOLB   GL4 8488  13.100  15.820  41.110
  354BOLB   C1C 8489  13.380  15.530  40.910
  354BOLB   C2C 8490  13.850  15.520  40.870
  354BOLB   C3C 8491  14.180  15.520  40.650
  354BOLB   C4C 8492  14.520  15.390  40.390
  354BOLB   C1D 8493  13.210  16.300  41.110
  354BOLB   C2D 8494  13.560  16.500  41.310
  354BOLB   C3D 8495  13.960  16.700  41.300
  354BOLB   C4D 8496  14.300  16.710  41.110
  355BOLB   NC1 8497  27.975  13.640  25.920
  355BOLB   PO1 8498  28.085  13.260  25.710
  355BOLB   GL1 8499  28.415  13.150  25.620
  355BOLB   GL2 8500  28.725  12.980  25.820
  355BOLB   C1A 8501  28.675  13.040  25.340
  355BOLB   C2A 8502  29.075  13.050  25.140
  355BOLB   C3A 8503  29.405  12.820  25.030
  355BOLB   C4A 8504  29.725  12.610  24.680
  355BOLB   C1B 8505  29.075  12.930  25.640
  355BOLB   C2B 8506  29.485  13.130  25.540
  355BOLB   C3B 8507  29.855  13.080  25.390
  355BOLB   C4B 8508  30.365  12.950  25.540
  355BOLB   NC2 8509  31.455  12.480  22.380
  355BOLB   PO2 8510  31.305  12.590  22.850
  355BOLB   GL3 8511  31.005  12.430  23.110
  355BOLB   GL4 8512  30.705  12.350  22.910
  355BOLB   C1C 8513  30.575  12.210  23.380
  355BOLB   C2C 8514  30.185  12.110  23.620
  355BOLB   C3C 8515  29.825  12.180  23.890
  355BOLB   C4C 8516  29.745  12.320  24.330
  355BOLB   C1D 8517  30.425  12.730  23.080
  355BOLB   C2D 8518  30.115  12.910  23.400
  355BOLB   C3D 8519  29.955  13.110  23.710
  355BOLB   C4D 8520  29.695  13.200  24.040
  356BOLB   NC1 8521  20.120  22.930  25.040
  356BOLB   PO1 8522  19.860  23.080  25.290
  356BOLB   GL1 8523  19.940  23.410  24.940
  356BOLB   GL2 8524  19.930  23.270  24.700
  356BOLB   C1A 8525  20.040  23.830  24.790
  356BOLB   C2A 8526  20.450  24.080  24.730
  356BOLB   C3A 8527  20.690  24.410  24.590
  356BOLB   C4A 8528  20.670  24.710  24.380
  356BOLB   C1B 8529  20.400  23.490  24.660
  356BOLB   C2B 8530  20.620  23.700  24.350
  356BOLB   C3B 8531  21.020  23.710  24.250
  356BOLB   C4B 8532  21.370  23.710  23.950
  356BOLB   NC2 8533  20.530  26.440  23.700
  356BOLB   PO2 8534  20.070   0.210  23.880
  356BOLB   GL3 8535  19.910  26.420  24.140
  356BOLB   GL4 8536  20.210  26.170  24.030
  356BOLB   C1C 8537  19.840  25.900  24.290
  356BOLB   C2C 8538  20.130  25.590  24.300
  356BOLB   C3C 8539  20.450  25.300  24.110
  356BOLB   C4C 8540  20.720  25.000  24.150
  356BOLB   C1D 8541  20.250  26.070  24.490
  356BOLB   C2D 8542  20.390  25.980  24.870
  356BOLB   C3D 8543  20.290  25.930  25.240
  356BOLB   C4D 8544  20.290  25.690  25.570
  357BOLB   NC1 8545  18.860  10.850  36.550
  357BOLB   PO1 8546  18.480  10.980  36.880
  357BOLB   GL1 8547  18.370  10.480  36.860
  357BOLB   GL2 8548  18.460  10.340  37.080
  357BOLB   C1A 8549  17.920  10.330  36.940
  357BOLB   C2A 8550  17.710  10.080  37.370
  357BOLB   C3A 8551  17.760   9.780  37.660
  357BOLB   C4A 8552  17.750   9.530  38.060
  357BOLB   C1B 8553  18.180  10.000  37.220
  357BOLB   C2B 8554  18.010   9.610  37.170
  357BOLB   C3B 8555  18.050   9.160  37.120
  357BOLB   C4B 8556  18.230   8.770  37.120
  357BOLB   NC2 8557  16.310   7.450  39.240
  357BOLB   PO2 8558  16.470   7.870  39.090
  357BOLB   GL3 8559  16.710   8.150  38.810
  357BOLB   GL4 8560  16.720   8.250  38.470
  357BOLB   C1C 8561  16.880   8.580  38.800
  357BOLB   C2C 8562  16.970   9.000  38.760
  357BOLB   C3C 8563  17.380   9.100  38.500
  357BOLB   C4C 8564  17.560   9.360  38.460
  357BOLB   C1D 8565  17.150   8.350  38.480
  357BOLB   C2D 8566  17.520   8.660  38.320
  357BOLB   C3D 8567  17.930   8.890  38.210
  357BOLB   C4D 8568  18.070   9.150  38.160
  358BOLB   NC1 8569  29.035  13.930  37.320
  358BOLB   PO1 8570  29.375  14.060  37.350
  358BOLB   GL1 8571  29.815  13.900  37.490
  358BOLB   GL2 8572  29.705  13.640  37.560
  358BOLB   C1A 8573  30.165  13.590  37.400
  358BOLB   C2A 8574  30.555  13.660  37.590
  358BOLB   C3A 8575  30.965  13.830  37.590
  358BOLB   C4A 8576  30.865  14.050  37.250
  358BOLB   C1B 8577  30.045  13.650  37.890
  358BOLB   C2B 8578  30.255  13.730  38.290
  358BOLB   C3B 8579  30.685  13.610  38.420
  358BOLB   C4B 8580  30.885  13.760  38.750
  358BOLB   NC2 8581  33.605  14.330  36.360
  358BOLB   PO2 8582  33.315  14.620  36.630
  358BOLB   GL3 8583  32.905  14.570  36.810
  358BOLB   GL4 8584  32.795  14.870  37.000
  358BOLB   C1C 8585  32.405  14.510  36.810
  358BOLB   C2C 8586  31.965  14.300  36.740
  358BOLB   C3C 8587  31.545  14.340  36.820
  358BOLB   C4C 8588  31.105  14.300  37.000
  358BOLB   C1D 8589  32.445  15.000  36.750
  358BOLB   C2D 8590  32.185  15.330  36.640
  358BOLB   C3D 8591  31.785  15.240  36.440
  358BOLB   C4D 8592  31.635  15.070  36.030
  359BOLB   NC1 8593  26.815  12.740  41.330
  359BOLB   PO1 8594  27.145  12.930  41.050
  359BOLB   GL1 8595  27.595  12.670  41.100
  359BOLB   GL2 8596  27.835  12.790  41.350
  359BOLB   C1A 8597  27.725  12.210  41.220
  359BOLB   C2A 8598  27.935  11.950  41.550
  359BOLB   C3A 8599  27.985  11.530  41.690
  359BOLB   C4A 8600  27.765  11.180  41.940
  359BOLB   C1B 8601  27.865  12.850  41.780
  359BOLB   C2B 8602  27.575  12.660  42.170
  359BOLB   C3B 8603  27.525  12.320  42.410
  359BOLB   C4B 8604  27.585  11.900  42.550
  359BOLB   NC2 8605  28.645  10.140  43.400
  359BOLB   PO2 8606  28.275   9.930  43.580
  359BOLB   GL3 8607  27.855   9.830  43.270
  359BOLB   GL4 8608  27.515  10.060  43.470
  359BOLB   C1C 8609  27.835  10.080  42.920
  359BOLB   C2C 8610  27.725  10.570  42.760
  359BOLB   C3C 8611  27.825  10.920  42.620
  359BOLB   C4C 8612  27.675  11.120  42.300
  359BOLB   C1D 8613  27.395  10.350  43.080
  359BOLB   C2D 8614  27.125  10.450  42.740
  359BOLB   C3D 8615  26.915  10.120  42.410
  359BOLB   C4D 8616  26.845   9.790  42.040
  360BOLB   NC1 8617  16.910  21.470  39.020
  360BOLB   PO1 8618  16.880  21.360  39.410
  360BOLB   GL1 8619  16.600  21.580  39.680
  360BOLB   GL2 8620  16.570  21.450  39.930
  360BOLB   C1A 8621  16.370  21.910  39.940
  360BOLB   C2A 8622  16.390  21.900  40.320
  360BOLB   C3A 8623  16.170  22.060  40.670
  360BOLB   C4A 8624  16.030  22.410  40.990
  360BOLB   C1B 8625  16.200  21.360  40.180
  360BOLB   C2B 8626  15.880  21.370  40.480
  360BOLB   C3B 8627  15.370  21.290  40.560
  360BOLB   C4B 8628  14.900  21.400  40.480
  360BOLB   NC2 8629  14.270  23.930  42.520
  360BOLB   PO2 8630  14.680  23.630  42.440
  360BOLB   GL3 8631  14.730  23.330  42.300
  360BOLB   GL4 8632  14.900  23.420  41.900
  360BOLB   C1C 8633  14.710  22.870  41.970
  360BOLB   C2C 8634  15.000  22.710  41.590
  360BOLB   C3C 8635  15.380  22.790  41.450
  360BOLB   C4C 8636  15.700  22.590  41.220
  360BOLB   C1D 8637  15.220  23.170  41.820
  360BOLB   C2D 8638  15.640  23.120  41.770
  360BOLB   C3D 8639  15.970  23.010  41.550
  360BOLB   C4D 8640  16.460  23.060  41.570
  361BOLB   NC1 8641  19.670  20.040  42.410
  361BOLB   PO1 8642  19.420  20.270  42.110
  361BOLB   GL1 8643  19.330  20.370  42.540
  361BOLB   GL2 8644  19.590  20.420  42.760
  361BOLB   C1A 8645  18.920  20.300  42.740
  361BOLB   C2A 8646  18.690  20.480  42.990
  361BOLB   C3A 8647  18.210  20.560  43.080
  361BOLB   C4A 8648  18.020  20.540  43.420
  361BOLB   C1B 8649  19.460  20.510  43.220
  361BOLB   C2B 8650  19.090  20.510  43.310
  361BOLB   C3B 8651  18.660  20.680  43.410
  361BOLB   C4B 8652  18.340  21.010  43.280
  361BOLB   NC2 8653  16.380  20.710  45.390
  361BOLB   PO2 8654  16.670  21.080  45.330
  361BOLB   GL3 8655  16.780  20.610  45.100
  361BOLB   GL4 8656  16.470  20.350  44.950
  361BOLB   C1C 8657  16.890  20.520  44.650
  361BOLB   C2C 8658  17.020  20.690  44.300
  361BOLB   C3C 8659  17.350  20.790  43.920
  361BOLB   C4C 8660  17.650  20.710  43.550
  361BOLB   C1D 8661  16.500  20.240  44.530
  361BOLB   C2D 8662  16.620  20.440  44.170
  361BOLB   C3D 8663  16.850  20.530  43.870
  361BOLB   C4D 8664  17.090  20.550  43.560
  362BOLB   NC1 8665  24.690   7.720  34.290
  362BOLB   PO1 8666  24.590   7.290  34.220
  362BOLB   GL1 8667  24.510   6.920  34.080
  362BOLB   GL2 8668  24.710   6.660  33.890
  362BOLB   C1A 8669  24.240   6.530  34.160
  362BOLB   C2A 8670  23.970   6.350  34.450
  362BOLB   C3A 8671  24.000   5.890  34.630
  362BOLB   C4A 8672  23.970   5.520  34.710
  362BOLB   C1B 8673  24.880   6.340  34.120
  362BOLB   C2B 8674  25.220   6.150  34.430
  362BOLB   C3B 8675  25.460   5.780  34.480
  362BOLB   C4B 8676  25.460   5.280  34.620
  362BOLB   NC2 8677  25.060   3.560  35.470
  362BOLB   PO2 8678  24.930   3.460  35.060
  362BOLB   GL3 8679  24.730   3.760  35.030
  362BOLB   GL4 8680  24.860   3.920  34.760
  362BOLB   C1C 8681  24.590   4.150  35.070
  362BOLB   C2C 8682  24.310   4.400  34.820
  362BOLB   C3C 8683  24.100   4.640  34.600
  362BOLB   C4C 8684  24.200   5.100  34.720
  362BOLB   C1D 8685  24.900   4.400  34.730
  362BOLB   C2D 8686  24.650   4.820  34.750
  362BOLB   C3D 8687  24.750   5.260  34.890
  362BOLB   C4D 8688  24.710   5.630  35.130
  363BOLB   NC1 8689  30.645  12.790  42.290
  363BOLB   PO1 8690  30.675  13.080  42.620
  363BOLB   GL1 8691  30.285  13.300  42.410
  363BOLB   GL2 8692  30.375  13.160  42.110
  363BOLB   C1A 8693  29.835  13.370  42.450
  363BOLB   C2A 8694  29.465  13.280  42.290
  363BOLB   C3A 8695  29.065  13.000  42.400
  363BOLB   C4A 8696  28.695  12.770  42.340
  363BOLB   C1B 8697  30.295  13.000  41.670
  363BOLB   C2B 8698  30.345  12.610  41.360
  363BOLB   C3B 8699  30.125  12.410  41.020
  363BOLB   C4B 8700  29.715  12.240  40.770
  363BOLB   NC2 8701  28.255  12.070  44.790
  363BOLB   PO2 8702  28.435  12.040  44.390
  363BOLB   GL3 8703  28.375  12.200  43.980
  363BOLB   GL4 8704  28.025  12.100  43.880
  363BOLB   C1C 8705  28.505  12.250  43.510
  363BOLB   C2C 8706  28.425  12.030  43.070
  363BOLB   C3C 8707  28.325  12.240  42.770
  363BOLB   C4C 8708  28.425  12.630  42.650
  363BOLB   C1D 8709  27.695  12.330  43.660
  363BOLB   C2D 8710  27.685  12.600  43.220
  363BOLB   C3D 8711  27.415  13.000  43.130
  363BOLB   C4D 8712  27.025  13.150  43.400
  364BOLB   NC1 8713  27.615  15.370  40.020
  364BOLB   PO1 8714  27.645  15.830  39.990
  364BOLB   GL1 8715  27.975  15.760  40.200
  364BOLB   GL2 8716  27.935  16.100  40.430
  364BOLB   C1A 8717  28.385  15.570  40.060
  364BOLB   C2A 8718  28.855  15.710  40.060
  364BOLB   C3A 8719  29.295  15.680  40.050
  364BOLB   C4A 8720  29.715  15.640  40.180
  364BOLB   C1B 8721  28.175  16.240  40.740
  364BOLB   C2B 8722  28.035  16.630  40.980
  364BOLB   C3B 8723  28.255  16.950  41.300
  364BOLB   C4B 8724  28.405  17.290  41.570
  364BOLB   NC2 8725  31.785  14.840  41.400
  364BOLB   PO2 8726  31.455  15.210  41.460
  364BOLB   GL3 8727  31.285  15.410  41.260
  364BOLB   GL4 8728  30.945  15.200  41.230
  364BOLB   C1C 8729  31.035  15.680  41.030
  364BOLB   C2C 8730  30.685  15.730  40.810
  364BOLB   C3C 8731  30.475  15.900  40.570
  364BOLB   C4C 8732  30.125  15.850  40.240
  364BOLB   C1D 8733  30.875  14.700  41.120
  364BOLB   C2D 8734  30.485  14.420  41.090
  364BOLB   C3D 8735  30.025  14.300  41.300
  364BOLB   C4D 8736  29.635  14.280  41.180
  365BOLB   NC1 8737  24.090  21.580  35.130
  365BOLB   PO1 8738  24.240  21.190  35.140
  365BOLB   GL1 8739  24.510  21.480  34.840
  365BOLB   GL2 8740  24.740  21.320  34.790
  365BOLB   C1A 8741  24.550  21.900  34.720
  365BOLB   C2A 8742  24.710  22.210  35.070
  365BOLB   C3A 8743  24.990  22.520  35.000
  365BOLB   C4A 8744  25.250  22.910  34.810
  365BOLB   C1B 8745  25.080  21.570  34.420
  365BOLB   C2B 8746  25.350  21.540  34.170
  365BOLB   C3B 8747  25.750  21.520  34.030
  365BOLB   C4B 8748  26.050  21.840  33.880
  365BOLB   NC2 8749  26.575  25.030  35.380
  365BOLB   PO2 8750  26.270  25.050  35.080
  365BOLB   GL3 8751  25.970  24.920  34.910
  365BOLB   GL4 8752  25.730  25.090  34.840
  365BOLB   C1C 8753  25.910  24.500  35.050
  365BOLB   C2C 8754  25.510  24.210  35.210
  365BOLB   C3C 8755  25.290  23.720  35.260
  365BOLB   C4C 8756  25.140  23.330  35.030
  365BOLB   C1D 8757  25.500  24.780  34.910
  365BOLB   C2D 8758  25.160  24.490  34.950
  365BOLB   C3D 8759  25.040  24.150  35.270
  365BOLB   C4D 8760  25.120  23.920  35.680
  366BOLB   NC1 8761  22.940  10.090  23.970
  366BOLB   PO1 8762  22.520  10.220  24.060
  366BOLB   GL1 8763  22.580   9.690  24.210
  366BOLB   GL2 8764  22.230   9.610  24.310
  366BOLB   C1A 8765  22.780   9.430  23.930
  366BOLB   C2A 8766  22.910   9.280  23.480
  366BOLB   C3A 8767  23.100   8.930  23.110
  366BOLB   C4A 8768  23.210   8.650  22.830
  366BOLB   C1B 8769  22.070   9.390  23.940
  366BOLB   C2B 8770  22.010   9.010  23.870
  366BOLB   C3B 8771  21.890   8.590  23.840
  366BOLB   C4B 8772  21.680   8.250  23.750
  366BOLB   NC2 8773  22.380   6.520  21.440
  366BOLB   PO2 8774  22.370   6.700  21.920
  366BOLB   GL3 8775  22.320   6.790  22.320
  366BOLB   GL4 8776  22.050   6.860  22.500
  366BOLB   C1C 8777  22.470   7.170  22.510
  366BOLB   C2C 8778  22.550   7.420  22.830
  366BOLB   C3C 8779  22.770   7.820  22.820
  366BOLB   C4C 8780  22.950   8.240  22.800
  366BOLB   C1D 8781  22.050   7.390  22.670
  366BOLB   C2D 8782  22.130   7.700  22.930
  366BOLB   C3D 8783  22.410   7.840  23.310
  366BOLB   C4D 8784  22.860   7.730  23.620
  367BOLB   NC1 8785  26.885  14.820  24.200
  367BOLB   PO1 8786  27.035  14.680  24.490
  367BOLB   GL1 8787  27.345  14.720  24.140
  367BOLB   GL2 8788  27.405  15.060  24.080
  367BOLB   C1A 8789  27.715  14.710  23.900
  367BOLB   C2A 8790  27.935  14.800  23.520
  367BOLB   C3A 8791  28.045  15.080  23.210
  367BOLB   C4A 8792  28.295  15.470  23.180
  367BOLB   C1B 8793  27.765  15.260  23.930
  367BOLB   C2B 8794  28.245  15.210  23.630
  367BOLB   C3B 8795  28.565  15.020  23.310
  367BOLB   C4B 8796  28.395  14.670  23.230
  367BOLB   NC2 8797  29.995  16.000  21.840
  367BOLB   PO2 8798  30.095  15.650  21.940
  367BOLB   GL3 8799  29.645  15.760  22.040
  367BOLB   GL4 8800  29.345  15.750  21.830
  367BOLB   C1C 8801  29.365  15.760  22.390
  367BOLB   C2C 8802  29.015  16.050  22.550
  367BOLB   C3C 8803  28.785  16.030  22.970
  367BOLB   C4C 8804  28.445  15.850  23.140
  367BOLB   C1D 8805  28.955  15.680  21.930
  367BOLB   C2D 8806  28.645  15.520  21.660
  367BOLB   C3D 8807  28.555  15.530  21.230
  367BOLB   C4D 8808  28.605  15.420  20.740
  368BOLB   NC1 8809  17.430  11.740  28.340
  368BOLB   PO1 8810  17.160  11.730  28.030
  368BOLB   GL1 8811  16.960  11.470  28.330
  368BOLB   GL2 8812  17.240  11.300  28.470
  368BOLB   C1A 8813  16.730  11.110  28.480
  368BOLB   C2A 8814  16.490  10.820  28.140
  368BOLB   C3A 8815  16.140  10.740  27.910
  368BOLB   C4A 8816  15.750  10.610  27.610
  368BOLB   C1B 8817  17.130  10.880  28.590
  368BOLB   C2B 8818  16.990  10.550  28.780
  368BOLB   C3B 8819  16.930  10.200  28.800
  368BOLB   C4B 8820  16.830   9.890  28.620
  368BOLB   NC2 8821  15.040   8.680  27.100
  368BOLB   PO2 8822  14.990   8.360  27.520
  368BOLB   GL3 8823  15.190   8.740  27.670
  368BOLB   GL4 8824  15.460   8.590  27.710
  368BOLB   C1C 8825  15.150   9.240  27.570
  368BOLB   C2C 8826  15.280   9.750  27.610
  368BOLB   C3C 8827  15.130  10.090  27.510
  368BOLB   C4C 8828  15.290  10.440  27.640
  368BOLB   C1D 8829  15.640   9.000  27.830
  368BOLB   C2D 8830  15.720   9.360  27.560
  368BOLB   C3D 8831  15.890   9.770  27.540
  368BOLB   C4D 8832  15.710  10.070  27.630
  369BOLB   NC1 8833  18.530  12.690  38.970
  369BOLB   PO1 8834  18.800  12.430  39.070
  369BOLB   GL1 8835  18.790  12.320  39.510
  369BOLB   GL2 8836  18.680  12.090  39.460
  369BOLB   C1A 8837  18.400  12.330  39.780
  369BOLB   C2A 8838  17.990  12.200  39.820
  369BOLB   C3A 8839  17.720  12.160  40.140
  369BOLB   C4A 8840  17.620  11.920  40.420
  369BOLB   C1B 8841  18.480  11.800  39.340
  369BOLB   C2B 8842  18.470  11.390  39.430
  369BOLB   C3B 8843  18.410  10.930  39.420
  369BOLB   C4B 8844  18.230  10.470  39.520
  369BOLB   NC2 8845  15.580  10.880  41.570
  369BOLB   PO2 8846  15.810  10.680  41.880
  369BOLB   GL3 8847  16.190  10.900  41.700
  369BOLB   GL4 8848  16.520  10.830  41.880
  369BOLB   C1C 8849  16.420  11.250  41.470
  369BOLB   C2C 8850  16.780  11.390  41.400
  369BOLB   C3C 8851  17.080  11.690  41.180
  369BOLB   C4C 8852  17.420  11.880  40.840
  369BOLB   C1D 8853  16.900  10.940  41.620
  369BOLB   C2D 8854  17.240  11.190  41.480
  369BOLB   C3D 8855  17.540  11.340  41.050
  369BOLB   C4D 8856  17.890  11.480  40.830
  370BOLB   NC1 8857  29.375  13.610  35.970
  370BOLB   PO1 8858  29.385  13.110  35.930
  370BOLB   GL1 8859  29.825  13.400  35.940
  370BOLB   GL2 8860  29.875  13.690  36.090
  370BOLB   C1A 8861  30.195  13.610  35.710
  370BOLB   C2A 8862  30.485  13.940  35.560
  370BOLB   C3A 8863  30.745  14.140  35.860
  370BOLB   C4A 8864  31.095  14.350  35.840
  370BOLB   C1B 8865  30.295  13.580  36.200
  370BOLB   C2B 8866  30.565  13.500  36.520
  370BOLB   C3B 8867  30.975  13.450  36.560
  370BOLB   C4B 8868  31.295  13.300  36.700
  370BOLB   NC2 8869  33.385  15.370  35.770
  370BOLB   PO2 8870  33.085  15.630  35.910
  370BOLB   GL3 8871  32.895  15.440  35.640
  370BOLB   GL4 8872  32.825  15.660  35.460
  370BOLB   C1C 8873  32.585  15.180  35.740
  370BOLB   C2C 8874  32.215  15.030  35.800
  370BOLB   C3C 8875  31.805  14.760  35.590
  370BOLB   C4C 8876  31.545  14.430  35.760
  370BOLB   C1D 8877  32.595  15.470  35.210
  370BOLB   C2D 8878  32.265  15.220  35.340
  370BOLB   C3D 8879  31.995  14.970  35.230
  370BOLB   C4D 8880  31.735  14.940  35.000
  371BOLB   NC1 8881  27.405  15.630  27.340
  371BOLB   PO1 8882  27.785  15.930  27.180
  371BOLB   GL1 8883  28.145  15.980  26.910
  371BOLB   GL2 8884  28.325  15.720  26.890
  371BOLB   C1A 8885  28.375  16.310  26.750
  371BOLB   C2A 8886  28.695  16.530  26.590
  371BOLB   C3A 8887  29.005  16.500  26.460
  371BOLB   C4A 8888  29.365  16.360  26.660
  371BOLB   C1B 8889  28.465  16.190  27.200
  371BOLB   C2B 8890  28.615  16.610  27.280
  371BOLB   C3B 8891  28.835  16.970  26.940
  371BOLB   C4B 8892  28.745  17.230  26.640
  371BOLB   NC2 8893  31.525  17.670  26.560
  371BOLB   PO2 8894  31.215  17.940  26.710
  371BOLB   GL3 8895  30.905  17.750  26.380
  371BOLB   GL4 8896  30.825  17.410  26.240
  371BOLB   C1C 8897  30.485  17.600  26.540
  371BOLB   C2C 8898  30.225  17.230  26.630
  371BOLB   C3C 8899  30.115  16.820  26.800
  371BOLB   C4C 8900  29.825  16.450  26.810
  371BOLB   C1D 8901  30.385  17.300  26.170
  371BOLB   C2D 8902  29.905  17.470  26.390
  371BOLB   C3D 8903  29.545  17.310  26.620
  371BOLB   C4D 8904  29.265  16.930  26.360
  372BOLB   NC1 8905  20.400  22.710  26.660
  372BOLB   PO1 8906  20.710  23.120  26.760
  372BOLB   GL1 8907  20.870  23.520  26.680
  372BOLB   GL2 8908  21.120  23.650  26.770
  372BOLB   C1A 8909  20.740  23.910  26.350
  372BOLB   C2A 8910  20.540  24.240  26.160
  372BOLB   C3A 8911  20.640  24.640  25.940
  372BOLB   C4A 8912  20.940  24.950  25.790
  372BOLB   C1B 8913  21.330  24.060  26.920
  372BOLB   C2B 8914  21.430  24.420  27.270
  372BOLB   C3B 8915  21.690  24.690  27.130
  372BOLB   C4B 8916  21.910  24.980  26.990
  372BOLB   NC2 8917  22.040   0.220  25.540
  372BOLB   PO2 8918  22.140   0.070  25.240
  372BOLB   GL3 8919  21.890  26.170  25.130
  372BOLB   GL4 8920  21.570  26.110  25.080
  372BOLB   C1C 8921  22.000  25.760  24.910
  372BOLB   C2C 8922  21.680  25.490  24.980
  372BOLB   C3C 8923  21.500  25.360  25.300
  372BOLB   C4C 8924  21.220  25.180  25.620
  372BOLB   C1D 8925  21.310  25.810  25.190
  372BOLB   C2D 8926  20.980  25.520  25.190
  372BOLB   C3D 8927  20.530  25.480  25.110
  372BOLB   C4D 8928  20.400  25.550  24.690
  373BOLB   NC1 8929  23.810  18.630  28.880
  373BOLB   PO1 8930  23.850  19.170  28.910
  373BOLB   GL1 8931  23.980  19.400  29.240
  373BOLB   GL2 8932  23.810  19.740  29.250
  373BOLB   C1A 8933  24.340  19.510  29.580
  373BOLB   C2A 8934  24.580  19.710  29.810
  373BOLB   C3A 8935  24.710  19.870  30.260
  373BOLB   C4A 8936  25.130  19.890  30.380
  373BOLB   C1B 8937  24.090  20.000  29.570
  373BOLB   C2B 8938  24.370  20.410  29.610
  373BOLB   C3B 8939  24.680  20.820  29.720
  373BOLB   C4B 8940  24.960  20.960  29.540
  373BOLB   NC2 8941  27.675  20.890  29.930
  373BOLB   PO2 8942  27.335  21.230  30.010
  373BOLB   GL3 8943  27.095  20.900  30.100
  373BOLB   GL4 8944  27.145  20.730  29.940
  373BOLB   C1C 8945  26.665  20.610  30.080
  373BOLB   C2C 8946  26.370  20.230  30.070
  373BOLB   C3C 8947  26.020  20.050  30.060
  373BOLB   C4C 8948  25.600  19.800  30.240
  373BOLB   C1D 8949  26.955  20.340  29.820
  373BOLB   C2D 8950  26.805  19.970  29.820
  373BOLB   C3D 8951  26.465  19.710  29.850
  373BOLB   C4D 8952  25.990  19.610  29.830
  374BOLB   NC1 8953  28.025  11.760  39.040
  374BOLB   PO1 8954  28.215  11.730  38.680
  374BOLB   GL1 8955  28.535  11.670  38.920
  374BOLB   GL2 8956  28.655  11.440  39.110
  374BOLB   C1A 8957  29.055  11.720  38.950
  374BOLB   C2A 8958  29.475  11.590  39.080
  374BOLB   C3A 8959  29.675  11.210  39.170
  374BOLB   C4A 8960  29.905  11.050  39.460
  374BOLB   C1B 8961  28.855  11.680  39.380
  374BOLB   C2B 8962  29.245  11.770  39.510
  374BOLB   C3B 8963  29.515  11.880  39.830
  374BOLB   C4B 8964  30.075  11.950  39.870
  374BOLB   NC2 8965  30.535  10.400  42.080
  374BOLB   PO2 8966  30.605  10.390  41.600
  374BOLB   GL3 8967  30.365  10.610  41.280
  374BOLB   GL4 8968  30.565  10.530  40.970
  374BOLB   C1C 8969  30.275  10.930  40.920
  374BOLB   C2C 8970  30.265  11.130  40.580
  374BOLB   C3C 8971  30.235  10.790  40.190
  374BOLB   C4C 8972  29.955  10.780  39.820
  374BOLB   C1D 8973  30.205  10.390  40.790
  374BOLB   C2D 8974  29.895  10.620  40.530
  374BOLB   C3D 8975  29.645  10.610  40.260
  374BOLB   C4D 8976  29.345  10.890  40.120
  375BOLB   NC1 8977  26.495  15.310  41.220
  375BOLB   PO1 8978  26.765  15.610  41.500
  375BOLB   GL1 8979  26.915  15.530  41.760
  375BOLB   GL2 8980  26.875  15.190  41.850
  375BOLB   C1A 8981  27.225  15.760  41.910
  375BOLB   C2A 8982  27.315  16.110  42.140
  375BOLB   C3A 8983  27.475  16.140  42.500
  375BOLB   C4A 8984  27.795  15.990  42.780
  375BOLB   C1B 8985  27.075  15.250  42.260
  375BOLB   C2B 8986  27.375  15.160  42.480
  375BOLB   C3B 8987  27.775  15.190  42.470
  375BOLB   C4B 8988  27.865  14.910  42.730
  375BOLB   NC2 8989  29.385  15.110  44.340
  375BOLB   PO2 8990  29.645  15.330  44.060
  375BOLB   GL3 8991  29.255  15.190  43.850
  375BOLB   GL4 8992  28.935  15.380  43.880
  375BOLB   C1C 8993  29.025  15.000  43.490
  375BOLB   C2C 8994  28.815  15.190  43.170
  375BOLB   C3C 8995  28.515  15.490  43.120
  375BOLB   C4C 8996  28.175  15.900  42.940
  375BOLB   C1D 8997  28.715  15.530  43.540
  375BOLB   C2D 8998  28.455  15.870  43.530
  375BOLB   C3D 8999  28.085  16.110  43.380
  375BOLB   C4D 9000  27.715  16.110  43.530
  376BOLB   NC1 9001  19.200  10.540  30.430
  376BOLB   PO1 9002  19.150  10.520  30.050
  376BOLB   GL1 9003  18.840  10.240  30.190
  376BOLB   GL2 9004  18.740  10.160  29.860
  376BOLB   C1A 9005  18.610   9.920  30.280
  376BOLB   C2A 9006  18.480   9.520  30.540
  376BOLB   C3A 9007  18.270   9.210  30.500
  376BOLB   C4A 9008  17.950   8.770  30.290
  376BOLB   C1B 9009  18.550   9.770  29.740
  376BOLB   C2B 9010  18.320   9.440  29.630
  376BOLB   C3B 9011  18.010   9.310  29.730
  376BOLB   C4B 9012  17.890   8.880  29.700
  376BOLB   NC2 9013  16.300   7.110  30.830
  376BOLB   PO2 9014  16.470   7.100  30.410
  376BOLB   GL3 9015  16.790   7.160  30.280
  376BOLB   GL4 9016  16.840   7.300  30.070
  376BOLB   C1C 9017  17.000   7.590  30.510
  376BOLB   C2C 9018  17.260   7.830  30.770
  376BOLB   C3C 9019  17.510   8.160  30.700
  376BOLB   C4C 9020  17.790   8.310  30.380
  376BOLB   C1D 9021  16.830   7.830  30.110
  376BOLB   C2D 9022  17.110   8.010  30.250
  376BOLB   C3D 9023  17.430   8.220  30.090
  376BOLB   C4D 9024  17.640   8.490  29.950
  377BOLB   NC1 9025  20.540  16.610  21.520
  377BOLB   PO1 9026  20.210  16.890  21.270
  377BOLB   GL1 9027  20.200  16.790  20.930
  377BOLB   GL2 9028  20.420  16.500  20.780
  377BOLB   C1A 9029  20.020  16.570  20.530
  377BOLB   C2A 9030  20.080  16.360  20.060
  377BOLB   C3A 9031  20.080  15.870  19.820
  377BOLB   C4A 9032  20.030  15.480  19.730
  377BOLB   C1B 9033  20.330  16.130  20.700
  377BOLB   C2B 9034  20.270  16.000  20.310
  377BOLB   C3B 9035  20.450  15.650  20.100
  377BOLB   C4B 9036  20.710  15.380  19.840
  377BOLB   NC2 9037  19.600  14.780  17.250
  377BOLB   PO2 9038  20.030  14.900  17.510
  377BOLB   GL3 9039  19.960  14.860  17.970
  377BOLB   GL4 9040  19.760  14.930  18.200
  377BOLB   C1C 9041  20.230  14.920  18.340
  377BOLB   C2C 9042  20.140  15.100  18.720
  377BOLB   C3C 9043  20.090  15.100  19.070
  377BOLB   C4C 9044  19.930  15.200  19.430
  377BOLB   C1D 9045  20.070  15.390  18.270
  377BOLB   C2D 9046  20.210  15.750  18.570
  377BOLB   C3D 9047  20.380  15.550  18.950
  377BOLB   C4D 9048  20.540  15.320  19.340
  378BOLB   NC1 9049  18.650  10.860  33.290
  378BOLB   PO1 9050  18.500  10.550  32.920
  378BOLB   GL1 9051  18.470  10.250  32.590
  378BOLB   GL2 9052  18.130  10.240  32.510
  378BOLB   C1A 9053  18.410   9.830  32.660
  378BOLB   C2A 9054  18.140   9.360  32.580
  378BOLB   C3A 9055  17.970   9.120  32.500
  378BOLB   C4A 9056  18.150   8.820  32.430
  378BOLB   C1B 9057  17.900   9.860  32.460
  378BOLB   C2B 9058  17.570   9.480  32.390
  378BOLB   C3B 9059  17.250   9.020  32.270
  378BOLB   C4B 9060  17.040   8.760  31.960
  378BOLB   NC2 9061  17.170   6.500  32.720
  378BOLB   PO2 9062  17.030   6.800  33.050
  378BOLB   GL3 9063  17.360   7.040  32.920
  378BOLB   GL4 9064  17.390   6.950  32.580
  378BOLB   C1C 9065  17.670   7.260  32.900
  378BOLB   C2C 9066  17.840   7.600  32.670
  378BOLB   C3C 9067  17.880   8.070  32.800
  378BOLB   C4C 9068  18.200   8.400  32.610
  378BOLB   C1D 9069  17.470   7.400  32.370
  378BOLB   C2D 9070  17.690   7.540  32.030
  378BOLB   C3D 9071  17.950   7.870  31.750
  378BOLB   C4D 9072  18.190   8.200  31.550
  379BOLB   NC1 9073  33.915  14.020  34.540
  379BOLB   PO1 9074  33.575  14.230  34.340
  379BOLB   GL1 9075  33.105  14.230  34.390
  379BOLB   GL2 9076  32.995  14.110  34.740
  379BOLB   C1A 9077  32.795  14.050  34.190
  379BOLB   C2A 9078  32.395  13.780  34.140
  379BOLB   C3A 9079  32.055  13.740  34.510
  379BOLB   C4A 9080  31.685  13.530  34.440
  379BOLB   C1B 9081  32.545  14.050  34.640
  379BOLB   C2B 9082  32.245  14.160  34.830
  379BOLB   C3B 9083  31.785  13.970  35.000
  379BOLB   C4B 9084  31.385  14.070  34.860
  379BOLB   NC2 9085  33.355  13.750  34.280
  379BOLB   PO2 9086  33.625  13.350  34.010
  379BOLB   GL3 9087  33.225  13.290  33.950
  379BOLB   GL4 9088  33.155  13.210  34.380
  379BOLB   C1C 9089  32.835  13.310  33.960
  379BOLB   C2C 9090  32.375  13.190  33.770
  379BOLB   C3C 9091  32.015  13.120  33.790
  379BOLB   C4C 9092  31.635  13.230  34.030
  379BOLB   C1D 9093  32.915  13.200  34.650
  379BOLB   C2D 9094  32.475  13.030  34.850
  379BOLB   C3D 9095  32.135  12.940  35.190
  379BOLB   C4D 9096  31.845  13.100  35.480
  380BOLB   NC1 9097  14.520  21.470  36.440
  380BOLB   PO1 9098  14.660  21.750  36.720
  380BOLB   GL1 9099  14.420  22.030  37.060
  380BOLB   GL2 9100  14.510  22.310  37.060
  380BOLB   C1A 9101  14.230  22.080  37.500
  380BOLB   C2A 9102  14.010  22.170  37.900
  380BOLB   C3A 9103  13.770  22.370  37.980
  380BOLB   C4A 9104  13.420  22.580  38.070
  380BOLB   C1B 9105  14.060  22.390  37.120
  380BOLB   C2B 9106  13.950  22.550  37.560
  380BOLB   C3B 9107  14.020  22.830  37.960
  380BOLB   C4B 9108  14.310  23.000  38.180
  380BOLB   NC2 9109  11.290  23.430  38.430
  380BOLB   PO2 9110  11.450  23.180  38.690
  380BOLB   GL3 9111  11.850  22.830  38.730
  380BOLB   GL4 9112  11.780  22.450  38.640
  380BOLB   C1C 9113  12.250  23.010  38.660
  380BOLB   C2C 9114  12.520  23.230  38.420
  380BOLB   C3C 9115  12.840  23.090  38.410
  380BOLB   C4C 9116  13.100  22.790  38.180
  380BOLB   C1D 9117  12.240  22.480  38.780
  380BOLB   C2D 9118  12.420  22.060  38.670
  380BOLB   C3D 9119  12.740  21.950  38.420
  380BOLB   C4D 9120  13.070  22.290  38.250
  381BOLB   NC1 9121  27.265  16.530  40.150
  381BOLB   PO1 9122  27.415  16.800  39.920
  381BOLB   GL1 9123  27.735  17.160  39.980
  381BOLB   GL2 9124  27.635  17.420  39.930
  381BOLB   C1A 9125  28.165  17.180  40.050
  381BOLB   C2A 9126  28.545  17.270  40.270
  381BOLB   C3A 9127  28.745  17.360  40.640
  381BOLB   C4A 9128  29.035  17.450  41.010
  381BOLB   C1B 9129  28.025  17.650  40.030
  381BOLB   C2B 9130  28.395  17.730  40.170
  381BOLB   C3B 9131  28.705  17.890  40.430
  381BOLB   C4B 9132  28.765  17.810  40.850
  381BOLB   NC2 9133  31.585  18.930  40.770
  381BOLB   PO2 9134  31.155  18.710  40.900
  381BOLB   GL3 9135  30.745  18.470  40.880
  381BOLB   GL4 9136  30.535  18.730  40.800
  381BOLB   C1C 9137  30.505  18.110  40.690
  381BOLB   C2C 9138  30.155  17.870  40.730
  381BOLB   C3C 9139  29.865  17.580  40.940
  381BOLB   C4C 9140  29.425  17.410  41.010
  381BOLB   C1D 9141  30.225  18.560  40.580
  381BOLB   C2D 9142  29.755  18.580  40.580
  381BOLB   C3D 9143  29.355  18.410  40.640
  381BOLB   C4D 9144  29.055  18.310  40.400
  382BOLB   NC1 9145  17.470  11.680  29.730
  382BOLB   PO1 9146  17.360  11.710  30.060
  382BOLB   GL1 9147  17.000  11.460  29.860
  382BOLB   GL2 9148  17.030  11.190  30.050
  382BOLB   C1A 9149  16.860  10.980  29.650
  382BOLB   C2A 9150  16.670  10.610  29.420
  382BOLB   C3A 9151  16.650  10.420  29.160
  382BOLB   C4A 9152  16.460  10.240  28.780
  382BOLB   C1B 9153  16.560  11.080  30.090
  382BOLB   C2B 9154  16.290  10.830  29.840
  382BOLB   C3B 9155  16.130  10.480  29.730
  382BOLB   C4B 9156  16.340  10.210  29.580
  382BOLB   NC2 9157  14.220   8.930  28.240
  382BOLB   PO2 9158  14.040   9.080  28.670
  382BOLB   GL3 9159  14.290   9.360  28.610
  382BOLB   GL4 9160  14.280   9.560  28.390
  382BOLB   C1C 9161  14.760   9.610  28.520
  382BOLB   C2C 9162  15.200   9.770  28.700
  382BOLB   C3C 9163  15.620   9.950  28.560
  382BOLB   C4C 9164  16.070  10.160  28.630
  382BOLB   C1D 9165  14.520   9.900  28.140
  382BOLB   C2D 9166  14.840  10.220  27.980
  382BOLB   C3D 9167  15.150  10.550  28.130
  382BOLB   C4D 9168  15.520  10.730  28.050
  383BOLB   NC1 9169  14.360  15.890  33.520
  383BOLB   PO1 9170  14.510  16.160  33.210
  383BOLB   GL1 9171  14.150  15.840  33.100
  383BOLB   GL2 9172  14.100  15.570  32.860
  383BOLB   C1A 9173  13.760  15.690  33.140
  383BOLB   C2A 9174  13.470  15.630  33.410
  383BOLB   C3A 9175  13.010  15.390  33.370
  383BOLB   C4A 9176  12.640  14.990  33.270
  383BOLB   C1B 9177  13.720  15.490  32.630
  383BOLB   C2B 9178  13.310  15.490  32.560
  383BOLB   C3B 9179  12.890  15.490  32.680
  383BOLB   C4B 9180  12.610  15.430  33.060
  383BOLB   NC2 9181  10.260  15.290  33.110
  383BOLB   PO2 9182  10.470  14.970  33.390
  383BOLB   GL3 9183  10.820  15.180  33.180
  383BOLB   GL4 9184  10.970  15.400  33.430
  383BOLB   C1C 9185  11.050  15.110  32.820
  383BOLB   C2C 9186  11.330  14.810  32.810
  383BOLB   C3C 9187  11.750  14.800  32.660
  383BOLB   C4C 9188  12.190  14.800  33.060
  383BOLB   C1D 9189  11.340  15.080  33.500
  383BOLB   C2D 9190  11.690  15.100  33.120
  383BOLB   C3D 9191  12.010  15.250  32.830
  383BOLB   C4D 9192  12.390  15.480  32.590
  384BOLB   NC1 9193  23.750   9.150  25.360
  384BOLB   PO1 9194  23.720   9.050  25.780
  384BOLB   GL1 9195  23.600   8.650  25.530
  384BOLB   GL2 9196  23.300   8.810  25.320
  384BOLB   C1A 9197  23.590   8.220  25.460
  384BOLB   C2A 9198  23.680   7.800  25.460
  384BOLB   C3A 9199  23.900   7.440  25.310
  384BOLB   C4A 9200  23.960   7.250  24.900
  384BOLB   C1B 9201  23.110   8.380  25.200
  384BOLB   C2B 9202  22.960   8.040  25.150
  384BOLB   C3B 9203  22.860   7.670  24.930
  384BOLB   C4B 9204  23.020   7.350  24.610
  384BOLB   NC2 9205  24.220   5.070  24.300
  384BOLB   PO2 9206  24.330   4.960  24.680
  384BOLB   GL3 9207  24.230   5.340  24.710
  384BOLB   GL4 9208  24.020   5.400  24.990
  384BOLB   C1C 9209  24.370   5.810  24.710
  384BOLB   C2C 9210  24.240   6.240  24.580
  384BOLB   C3C 9211  23.990   6.670  24.620
  384BOLB   C4C 9212  23.950   7.040  24.680
  384BOLB   C1D 9213  23.980   5.790  25.130
  384BOLB   C2D 9214  24.010   6.100  25.130
  384BOLB   C3D 9215  24.010   6.480  25.250
  384BOLB   C4D 9216  24.240   6.770  25.190
  385BOLB   NC1 9217  15.140  14.490  30.280
  385BOLB   PO1 9218  15.000  14.530  30.690
  385BOLB   GL1 9219  14.600  14.540  30.830
  385BOLB   GL2 9220  14.470  14.740  31.070
  385BOLB   C1A 9221  14.240  14.280  30.830
  385BOLB   C2A 9222  13.940  13.950  30.770
  385BOLB   C3A 9223  13.730  13.590  30.910
  385BOLB   C4A 9224  13.530  13.270  30.880
  385BOLB   C1B 9225  14.050  14.850  31.300
  385BOLB   C2B 9226  13.760  15.050  31.710
  385BOLB   C3B 9227  13.440  14.790  31.930
  385BOLB   C4B 9228  13.130  14.830  31.850
  385BOLB   NC2 9229  11.930  11.100  30.420
  385BOLB   PO2 9230  12.280  11.360  30.540
  385BOLB   GL3 9231  12.320  11.720  30.730
  385BOLB   GL4 9232  12.160  12.070  30.580
  385BOLB   C1C 9233  12.510  12.050  30.920
  385BOLB   C2C 9234  12.770  12.300  30.780
  385BOLB   C3C 9235  13.030  12.660  30.920
  385BOLB   C4C 9236  13.350  12.880  30.830
  385BOLB   C1D 9237  12.360  12.330  30.380
  385BOLB   C2D 9238  12.650  12.540  30.190
  385BOLB   C3D 9239  12.930  12.620  29.920
  385BOLB   C4D 9240  13.220  12.880  29.920
  386BOLB   NC1 9241  20.710  20.910  23.410
  386BOLB   PO1 9242  20.470  21.200  23.650
  386BOLB   GL1 9243  20.550  21.600  23.350
  386BOLB   GL2 9244  20.860  21.680  23.400
  386BOLB   C1A 9245  20.510  22.000  23.150
  386BOLB   C2A 9246  20.430  22.410  23.020
  386BOLB   C3A 9247  20.680  22.540  22.790
  386BOLB   C4A 9248  21.000  22.690  22.540
  386BOLB   C1B 9249  21.120  21.920  23.030
  386BOLB   C2B 9250  21.370  22.120  22.660
  386BOLB   C3B 9251  21.550  22.640  22.650
  386BOLB   C4B 9252  21.930  22.790  22.410
  386BOLB   NC2 9253  20.970  24.150  20.350
  386BOLB   PO2 9254  21.280  23.910  20.650
  386BOLB   GL3 9255  21.430  23.550  20.680
  386BOLB   GL4 9256  21.140  23.380  20.690
  386BOLB   C1C 9257  21.510  23.360  21.030
  386BOLB   C2C 9258  21.240  23.310  21.370
  386BOLB   C3C 9259  21.010  23.200  21.770
  386BOLB   C4C 9260  21.160  23.010  22.170
  386BOLB   C1D 9261  20.990  23.050  20.890
  386BOLB   C2D 9262  20.800  22.940  21.300
  386BOLB   C3D 9263  20.390  22.750  21.390
  386BOLB   C4D 9264  20.180  22.520  21.610
  387BOLB   NC1 9265  23.670  17.460  22.580
  387BOLB   PO1 9266  24.140  17.640  22.390
  387BOLB   GL1 9267  24.430  17.830  21.960
  387BOLB   GL2 9268  24.330  18.080  21.900
  387BOLB   C1A 9269  24.740  17.630  21.670
  387BOLB   C2A 9270  25.010  17.520  21.380
  387BOLB   C3A 9271  25.310  17.390  21.080
  387BOLB   C4A 9272  25.570  17.430  20.690
  387BOLB   C1B 9273  24.480  18.350  21.600
  387BOLB   C2B 9274  24.740  18.600  21.550
  387BOLB   C3B 9275  25.050  18.840  21.400
  387BOLB   C4B 9276  25.210  19.090  21.090
  387BOLB   NC2 9277  27.325  17.650  19.130
  387BOLB   PO2 9278  27.665  17.500  19.320
  387BOLB   GL3 9279  27.265  17.460  19.570
  387BOLB   GL4 9280  27.345  17.500  19.970
  387BOLB   C1C 9281  26.855  17.380  19.660
  387BOLB   C2C 9282  26.605  17.360  20.070
  387BOLB   C3C 9283  26.390  17.360  20.330
  387BOLB   C4C 9284  25.950  17.170  20.470
  387BOLB   C1D 9285  27.105  17.640  20.260
  387BOLB   C2D 9286  26.655  17.770  20.420
  387BOLB   C3D 9287  26.310  17.900  20.670
  387BOLB   C4D 9288  26.200  18.340  20.860
  388BOLB   NC1 9289  21.720  11.000  24.070
  388BOLB   PO1 9290  21.670  10.750  23.800
  388BOLB   GL1 9291  21.730  10.540  23.370
  388BOLB   GL2 9292  21.530  10.690  23.230
  388BOLB   C1A 9293  21.620  10.200  23.100
  388BOLB   C2A 9294  21.490   9.760  23.000
  388BOLB   C3A 9295  21.610   9.360  22.890
  388BOLB   C4A 9296  21.570   8.970  22.950
  388BOLB   C1B 9297  21.200  10.410  23.100
  388BOLB   C2B 9298  21.020  10.080  23.060
  388BOLB   C3B 9299  20.700   9.750  23.170
  388BOLB   C4B 9300  20.320   9.500  23.170
  388BOLB   NC2 9301  21.140   7.460  20.910
  388BOLB   PO2 9302  21.350   7.430  21.270
  388BOLB   GL3 9303  21.360   7.440  21.670
  388BOLB   GL4 9304  21.700   7.530  21.920
  388BOLB   C1C 9305  21.230   7.550  22.120
  388BOLB   C2C 9306  21.240   7.790  22.430
  388BOLB   C3C 9307  21.330   8.200  22.580
  388BOLB   C4C 9308  21.590   8.550  22.800
  388BOLB   C1D 9309  22.020   7.720  22.130
  388BOLB   C2D 9310  22.340   7.800  22.500
  388BOLB   C3D 9311  22.440   8.220  22.720
  388BOLB   C4D 9312  22.370   8.420  23.090
  389BOLB   NC1 9313  22.730   9.400  44.420
  389BOLB   PO1 9314  23.080   9.100  44.250
  389BOLB   GL1 9315  23.150   9.510  44.010
  389BOLB   GL2 9316  23.360   9.750  44.220
  389BOLB   C1A 9317  23.430   9.620  43.620
  389BOLB   C2A 9318  23.640   9.760  43.160
  389BOLB   C3A 9319  24.000   9.980  43.080
  389BOLB   C4A 9320  23.990  10.440  42.920
  389BOLB   C1B 9321  23.230   9.990  43.900
  389BOLB   C2B 9322  23.180  10.000  43.480
  389BOLB   C3B 9323  23.200   9.940  43.120
  389BOLB   C4B 9324  23.040  10.330  42.940
  389BOLB   NC2 9325  22.700  12.310  41.980
  389BOLB   PO2 9326  23.070  12.390  42.250
  389BOLB   GL3 9327  23.100  12.330  42.650
  389BOLB   GL4 9328  22.930  12.460  42.850
  389BOLB   C1C 9329  23.290  11.980  42.930
  389BOLB   C2C 9330  23.490  11.580  43.060
  389BOLB   C3C 9331  23.590  11.160  43.080
  389BOLB   C4C 9332  23.830  10.790  43.020
  389BOLB   C1D 9333  22.940  12.170  43.250
  389BOLB   C2D 9334  22.860  12.100  43.670
  389BOLB   C3D 9335  23.110  12.330  43.930
  389BOLB   C4D 9336  23.270  12.310  44.340
  390BOLB   NC1 9337  20.710  16.800  21.070
  390BOLB   PO1 9338  20.940  17.190  21.000
  390BOLB   GL1 9339  21.010  17.000  20.640
  390BOLB   GL2 9340  20.690  16.880  20.550
  390BOLB   C1A 9341  21.360  16.860  20.420
  390BOLB   C2A 9342  21.380  16.950  19.970
  390BOLB   C3A 9343  21.720  16.930  19.720
  390BOLB   C4A 9344  21.770  16.950  19.250
  390BOLB   C1B 9345  20.550  16.480  20.320
  390BOLB   C2B 9346  20.600  16.090  20.000
  390BOLB   C3B 9347  20.610  15.830  19.550
  390BOLB   C4B 9348  20.670  16.110  19.150
  390BOLB   NC2 9349  22.400  17.570  17.160
  390BOLB   PO2 9350  22.190  17.730  17.510
  390BOLB   GL3 9351  21.850  17.590  17.620
  390BOLB   GL4 9352  21.880  17.810  17.910
  390BOLB   C1C 9353  21.620  17.380  17.840
  390BOLB   C2C 9354  21.490  17.100  18.220
  390BOLB   C3C 9355  21.300  16.930  18.570
  390BOLB   C4C 9356  21.450  16.860  18.990
  390BOLB   C1D 9357  21.970  17.950  18.340
  390BOLB   C2D 9358  22.020  17.970  18.710
  390BOLB   C3D 9359  22.010  17.840  19.050
  390BOLB   C4D 9360  21.970  18.140  19.380
  391BOLB   NC1 9361  20.080  10.700  38.620
  391BOLB   PO1 9362  20.420  10.560  38.360
  391BOLB   GL1 9363  20.320  10.280  38.730
  391BOLB   GL2 9364  19.990  10.280  38.910
  391BOLB   C1A 9365  20.290   9.870  38.870
  391BOLB   C2A 9366  20.300   9.490  39.130
  391BOLB   C3A 9367  20.280   9.210  39.490
  391BOLB   C4A 9368  20.280   8.780  39.630
  391BOLB   C1B 9369  19.850   9.960  39.140
  391BOLB   C2B 9370  19.710   9.590  39.500
  391BOLB   C3B 9371  19.640   9.200  39.690
  391BOLB   C4B 9372  19.570   8.980  40.000
  391BOLB   NC2 9373  19.030   6.710  40.600
  391BOLB   PO2 9374  19.160   7.020  40.900
  391BOLB   GL3 9375  19.240   7.330  40.470
  391BOLB   GL4 9376  18.950   7.420  40.290
  391BOLB   C1C 9377  19.640   7.630  40.490
  391BOLB   C2C 9378  19.770   7.940  40.270
  391BOLB   C3C 9379  20.120   8.180  40.020
  391BOLB   C4C 9380  20.370   8.450  39.740
  391BOLB   C1D 9381  19.240   7.680  40.070
  391BOLB   C2D 9382  19.370   7.980  39.830
  391BOLB   C3D 9383  19.590   8.290  39.740
  391BOLB   C4D 9384  19.780   8.620  39.550
  392BOLB   NC1 9385  21.520  23.300  29.850
  392BOLB   PO1 9386  21.200  23.500  29.870
  392BOLB   GL1 9387  21.590  23.860  29.890
  392BOLB   GL2 9388  21.570  24.060  30.190
  392BOLB   C1A 9389  21.820  24.160  29.710
  392BOLB   C2A 9390  21.880  24.600  29.710
  392BOLB   C3A 9391  22.150  24.890  29.520
  392BOLB   C4A 9392  22.260  25.270  29.250
  392BOLB   C1B 9393  21.670  24.360  30.500
  392BOLB   C2B 9394  21.630  24.860  30.560
  392BOLB   C3B 9395  21.440  25.290  30.520
  392BOLB   C4B 9396  21.450  25.720  30.530
  392BOLB   NC2 9397  23.660   0.510  27.500
  392BOLB   PO2 9398  23.820   0.060  27.560
  392BOLB   GL3 9399  23.580  26.370  27.940
  392BOLB   GL4 9400  23.650  26.140  28.130
  392BOLB   C1C 9401  23.170  26.120  28.010
  392BOLB   C2C 9402  22.830  25.950  28.030
  392BOLB   C3C 9403  22.600  25.700  28.400
  392BOLB   C4C 9404  22.420  25.310  28.760
  392BOLB   C1D 9405  23.870  25.700  28.020
  392BOLB   C2D 9406  23.790  25.330  27.970
  392BOLB   C3D 9407  23.550  25.110  28.020
  392BOLB   C4D 9408  23.550  24.680  28.220
  393BOLB   NC1 9409  20.680  24.370  30.950
  393BOLB   PO1 9410  20.630  24.030  30.640
  393BOLB   GL1 9411  20.830  24.520  30.450
  393BOLB   GL2 9412  21.180  24.560  30.410
  393BOLB   C1A 9413  20.660  24.830  30.340
  393BOLB   C2A 9414  20.600  25.370  30.590
  393BOLB   C3A 9415  20.400  25.820  30.650
  393BOLB   C4A 9416  20.090  26.050  30.950
  393BOLB   C1B 9417  21.090  25.010  30.360
  393BOLB   C2B 9418  21.020  25.490  30.270
  393BOLB   C3B 9419  20.850  25.800  30.480
  393BOLB   C4B 9420  20.730  26.320  30.470
  393BOLB   NC2 9421  21.570   1.690  31.470
  393BOLB   PO2 9422  21.170   1.780  31.660
  393BOLB   GL3 9423  20.850   1.430  31.510
  393BOLB   GL4 9424  20.760   1.280  31.820
  393BOLB   C1C 9425  20.930   0.970  31.320
  393BOLB   C2C 9426  20.730   0.570  31.440
  393BOLB   C3C 9427  20.440   0.200  31.380
  393BOLB   C4C 9428  20.150  26.400  31.160
  393BOLB   C1D 9429  20.950   0.890  31.790
  393BOLB   C2D 9430  21.010   0.510  31.930
  393BOLB   C3D 9431  21.080   0.130  31.730
  393BOLB   C4D 9432  21.160  26.110  31.740
  394BOLB   NC1 9433  15.850  18.610  23.240
  394BOLB   PO1 9434  15.680  19.060  23.200
  394BOLB   GL1 9435  15.250  19.080  23.040
  394BOLB   GL2 9436  15.110  19.320  23.050
  394BOLB   C1A 9437  14.880  18.970  22.770
  394BOLB   C2A 9438  14.530  18.680  22.600
  394BOLB   C3A 9439  14.090  18.680  22.720
  394BOLB   C4A 9440  13.610  18.560  22.790
  394BOLB   C1B 9441  14.740  19.350  23.160
  394BOLB   C2B 9442  14.180  19.390  23.030
  394BOLB   C3B 9443  13.790  19.530  22.830
  394BOLB   C4B 9444  13.440  19.200  22.760
  394BOLB   NC2 9445  11.670  19.420  20.980
  394BOLB   PO2 9446  11.940  19.030  20.980
  394BOLB   GL3 9447  12.360  19.010  21.270
  394BOLB   GL4 9448  12.530  19.340  21.310
  394BOLB   C1C 9449  12.690  18.800  21.580
  394BOLB   C2C 9450  13.170  18.930  21.680
  394BOLB   C3C 9451  13.250  19.070  22.110
  394BOLB   C4C 9452  13.360  18.840  22.480
  394BOLB   C1D 9453  12.410  19.260  21.720
  394BOLB   C2D 9454  12.380  19.410  22.020
  394BOLB   C3D 9455  12.330  19.420  22.500
  394BOLB   C4D 9456  12.600  19.350  22.790
  395BOLB   NC1 9457  21.900  10.660  39.150
  395BOLB   PO1 9458  21.750  10.480  39.560
  395BOLB   GL1 9459  21.760  10.010  39.490
  395BOLB   GL2 9460  21.570   9.910  39.780
  395BOLB   C1A 9461  21.930   9.660  39.620
  395BOLB   C2A 9462  21.940   9.230  39.870
  395BOLB   C3A 9463  21.960   8.890  40.140
  395BOLB   C4A 9464  21.730   8.780  40.460
  395BOLB   C1B 9465  21.360   9.650  39.990
  395BOLB   C2B 9466  20.910   9.520  40.080
  395BOLB   C3B 9467  20.720   9.170  40.240
  395BOLB   C4B 9468  20.490   8.770  40.250
  395BOLB   NC2 9469  20.720   6.940  41.790
  395BOLB   PO2 9470  20.950   6.720  41.480
  395BOLB   GL3 9471  21.120   6.990  41.160
  395BOLB   GL4 9472  21.380   7.210  40.890
  395BOLB   C1C 9473  21.010   7.460  41.040
  395BOLB   C2C 9474  20.950   7.900  40.950
  395BOLB   C3C 9475  21.180   8.290  40.890
  395BOLB   C4C 9476  21.480   8.570  40.700
  395BOLB   C1D 9477  21.850   7.360  40.880
  395BOLB   C2D 9478  22.060   7.460  40.540
  395BOLB   C3D 9479  22.470   7.550  40.290
  395BOLB   C4D 9480  22.730   7.640  39.920
  396BOLB   NC1 9481  26.735  17.690  27.550
  396BOLB   PO1 9482  26.420  17.700  27.830
  396BOLB   GL1 9483  26.575  18.100  27.860
  396BOLB   GL2 9484  26.310  18.300  27.690
  396BOLB   C1A 9485  26.965  18.250  27.960
  396BOLB   C2A 9486  26.995  18.640  28.120
  396BOLB   C3A 9487  27.195  19.060  28.110
  396BOLB   C4A 9488  27.355  19.330  28.080
  396BOLB   C1B 9489  26.575  18.630  27.850
  396BOLB   C2B 9490  26.735  19.060  27.900
  396BOLB   C3B 9491  26.835  19.450  28.050
  396BOLB   C4B 9492  26.605  19.790  28.080
  396BOLB   NC2 9493  29.095  21.080  27.600
  396BOLB   PO2 9494  28.915  21.050  27.200
  396BOLB   GL3 9495  28.475  20.920  27.430
  396BOLB   GL4 9496  28.205  20.900  27.270
  396BOLB   C1C 9497  28.295  20.460  27.560
  396BOLB   C2C 9498  28.205  20.030  27.480
  396BOLB   C3C 9499  27.825  19.720  27.520
  396BOLB   C4C 9500  27.655  19.520  27.830
  396BOLB   C1D 9501  28.085  20.550  27.120
  396BOLB   C2D 9502  27.755  20.250  27.350
  396BOLB   C3D 9503  27.345  20.340  27.310
  396BOLB   C4D 9504  27.145  20.650  27.180
  397BOLB   NC1 9505  25.730  15.280  22.930
  397BOLB   PO1 9506  25.390  15.030  22.760
  397BOLB   GL1 9507  25.770  15.090  22.420
  397BOLB   GL2 9508  25.830  15.420  22.410
  397BOLB   C1A 9509  26.200  15.100  22.130
  397BOLB   C2A 9510  26.655  15.000  21.970
  397BOLB   C3A 9511  26.905  15.070  21.710
  397BOLB   C4A 9512  27.335  14.930  21.490
  397BOLB   C1B 9513  26.290  15.370  22.540
  397BOLB   C2B 9514  26.655  15.560  22.350
  397BOLB   C3B 9515  26.685  15.970  22.270
  397BOLB   C4B 9516  26.975  16.120  22.260
  397BOLB   NC2 9517  29.395  14.950  20.310
  397BOLB   PO2 9518  29.145  14.780  20.070
  397BOLB   GL3 9519  28.825  14.950  20.360
  397BOLB   GL4 9520  28.935  14.890  20.650
  397BOLB   C1C 9521  28.445  15.010  20.570
  397BOLB   C2C 9522  28.025  15.150  20.600
  397BOLB   C3C 9523  27.735  14.970  20.790
  397BOLB   C4C 9524  27.585  14.770  21.210
  397BOLB   C1D 9525  28.665  15.030  21.080
  397BOLB   C2D 9526  28.515  15.090  21.490
  397BOLB   C3D 9527  28.255  15.150  21.880
  397BOLB   C4D 9528  28.105  14.760  22.000
  398BOLB   NC1 9529  17.100  18.530  40.610
  398BOLB   PO1 9530  16.650  18.510  40.510
  398BOLB   GL1 9531  16.300  18.680  40.720
  398BOLB   GL2 9532  15.980  18.560  40.740
  398BOLB   C1A 9533  16.280  18.890  41.040
  398BOLB   C2A 9534  16.270  18.850  41.520
  398BOLB   C3A 9535  15.930  18.920  41.860
  398BOLB   C4A 9536  15.780  18.840  42.290
  398BOLB   C1B 9537  15.650  18.680  41.080
  398BOLB   C2B 9538  15.470  18.860  41.600
  398BOLB   C3B 9539  15.200  18.960  42.010
  398BOLB   C4B 9540  14.810  18.710  42.350
  398BOLB   NC2 9541  14.140  18.900  44.030
  398BOLB   PO2 9542  14.270  18.560  44.180
  398BOLB   GL3 9543  14.600  18.360  43.870
  398BOLB   GL4 9544  14.780  18.100  43.970
  398BOLB   C1C 9545  14.840  18.620  43.570
  398BOLB   C2C 9546  15.080  18.750  43.330
  398BOLB   C3C 9547  15.450  18.660  43.080
  398BOLB   C4C 9548  15.700  18.650  42.720
  398BOLB   C1D 9549  14.990  18.090  43.660
  398BOLB   C2D 9550  15.300  18.180  43.500
  398BOLB   C3D 9551  15.640  18.010  43.290
  398BOLB   C4D 9552  15.990  17.730  43.220
  399BOLB   NC1 9553  16.770  12.560  28.030
  399BOLB   PO1 9554  16.960  12.220  28.110
  399BOLB   GL1 9555  16.580  12.010  28.180
  399BOLB   GL2 9556  16.370  12.110  28.340
  399BOLB   C1A 9557  16.480  11.660  28.170
  399BOLB   C2A 9558  16.630  11.300  28.000
  399BOLB   C3A 9559  16.690  11.000  27.600
  399BOLB   C4A 9560  16.470  10.560  27.540
  399BOLB   C1B 9561  16.020  11.830  28.220
  399BOLB   C2B 9562  15.700  11.450  28.200
  399BOLB   C3B 9563  15.450  11.250  27.970
  399BOLB   C4B 9564  15.320  11.000  27.630
  399BOLB   NC2 9565  15.340   8.400  26.240
  399BOLB   PO2 9566  15.260   8.480  26.680
  399BOLB   GL3 9567  15.750   8.660  26.740
  399BOLB   GL4 9568  15.830   8.700  26.450
  399BOLB   C1C 9569  15.920   8.960  26.970
  399BOLB   C2C 9570  16.200   9.230  27.350
  399BOLB   C3C 9571  16.380   9.660  27.420
  399BOLB   C4C 9572  16.470  10.100  27.360
  399BOLB   C1D 9573  15.930   9.190  26.560
  399BOLB   C2D 9574  16.030   9.650  26.420
  399BOLB   C3D 9575  16.050  10.030  26.350
  399BOLB   C4D 9576  16.180  10.420  26.460
  400BOLB   NC1 9577  21.970  23.350  33.540
  400BOLB   PO1 9578  22.130  23.490  33.230
  400BOLB   GL1 9579  22.400  23.620  33.410
  400BOLB   GL2 9580  22.470  23.460  33.640
  400BOLB   C1A 9581  22.630  24.030  33.390
  400BOLB   C2A 9582  23.030  24.150  33.120
  400BOLB   C3A 9583  23.400  24.340  32.950
  400BOLB   C4A 9584  23.460  24.640  32.600
  400BOLB   C1B 9585  22.910  23.480  33.580
  400BOLB   C2B 9586  23.160  23.770  33.750
  400BOLB   C3B 9587  23.420  24.080  33.700
  400BOLB   C4B 9588  23.650  24.450  33.450
  400BOLB   NC2 9589  25.440  26.090  32.440
  400BOLB   PO2 9590  25.110  25.960  32.150
  400BOLB   GL3 9591  24.700  25.780  31.990
  400BOLB   GL4 9592  24.480  25.940  31.640
  400BOLB   C1C 9593  24.190  25.760  32.000
  400BOLB   C2C 9594  23.930  25.460  32.140
  400BOLB   C3C 9595  23.790  25.070  32.000
  400BOLB   C4C 9596  23.480  24.720  32.190
  400BOLB   C1D 9597  24.160  25.700  31.490
  400BOLB   C2D 9598  23.760  25.520  31.690
  400BOLB   C3D 9599  23.370  25.400  31.820
  400BOLB   C4D 9600  23.010  25.270  31.830
  401BOLB   NC1 9601  18.190  11.140  27.550
  401BOLB   PO1 9602  18.390  11.200  27.950
  401BOLB   GL1 9603  17.980  11.000  28.020
  401BOLB   GL2 9604  17.660  10.970  27.850
  401BOLB   C1A 9605  17.600  10.710  28.270
  401BOLB   C2A 9606  17.250  10.480  28.310
  401BOLB   C3A 9607  16.780  10.440  28.340
  401BOLB   C4A 9608  16.450  10.260  28.060
  401BOLB   C1B 9609  17.380  10.650  27.820
  401BOLB   C2B 9610  17.330  10.400  27.470
  401BOLB   C3B 9611  17.310   9.960  27.270
  401BOLB   C4B 9612  17.110   9.570  27.390
  401BOLB   NC2 9613  15.480   8.130  27.510
  401BOLB   PO2 9614  15.410   8.370  27.220
  401BOLB   GL3 9615  15.560   8.720  27.220
  401BOLB   GL4 9616  15.440   8.990  27.310
  401BOLB   C1C 9617  16.000   8.770  27.430
  401BOLB   C2C 9618  16.170   9.060  27.760
  401BOLB   C3C 9619  16.190   9.400  27.910
  401BOLB   C4C 9620  16.460   9.830  27.880
  401BOLB   C1D 9621  15.390   9.280  27.000
  401BOLB   C2D 9622  15.500   9.520  26.750
  401BOLB   C3D 9623  15.760   9.870  26.750
  401BOLB   C4D 9624  15.970  10.070  27.100
  402BOLB   NC1 9625  13.630  21.150  27.210
  402BOLB   PO1 9626  13.560  21.340  27.620
  402BOLB   GL1 9627  13.120  21.330  27.640
  402BOLB   GL2 9628  12.960  21.070  27.770
  402BOLB   C1A 9629  12.770  21.550  27.660
  402BOLB   C2A 9630  12.380  21.360  27.570
  402BOLB   C3A 9631  12.000  21.640  27.770
  402BOLB   C4A 9632  11.600  21.680  27.850
  402BOLB   C1B 9633  12.640  20.930  27.510
  402BOLB   C2B 9634  12.210  20.710  27.460
  402BOLB   C3B 9635  11.970  20.580  27.090
  402BOLB   C4B 9636  11.540  20.490  27.020
  402BOLB   NC2 9637   9.750  21.380  26.910
  402BOLB   PO2 9638   9.820  21.810  26.820
  402BOLB   GL3 9639  10.030  21.810  27.230
  402BOLB   GL4 9640  10.320  21.640  27.010
  402BOLB   C1C 9641  10.280  22.190  27.440
  402BOLB   C2C 9642  10.510  22.110  27.910
  402BOLB   C3C 9643  10.870  22.020  28.240
  402BOLB   C4C 9644  11.300  21.780  28.110
  402BOLB   C1D 9645  10.630  22.040  26.820
  402BOLB   C2D 9646  11.110  22.020  26.990
  402BOLB   C3D 9647  11.520  21.950  26.910
  402BOLB   C4D 9648  11.720  21.590  26.730
  403BOLB   NC1 9649  22.040  20.780  42.250
  403BOLB   PO1 9650  22.160  20.540  42.610
  403BOLB   GL1 9651  22.210  20.810  42.940
  403BOLB   GL2 9652  22.470  21.140  42.940
  403BOLB   C1A 9653  22.060  21.200  43.190
  403BOLB   C2A 9654  21.810  21.220  43.570
  403BOLB   C3A 9655  21.870  21.120  43.950
  403BOLB   C4A 9656  21.820  20.770  44.220
  403BOLB   C1B 9657  22.480  21.260  43.410
  403BOLB   C2B 9658  22.270  21.650  43.650
  403BOLB   C3B 9659  22.290  21.900  43.910
  403BOLB   C4B 9660  22.400  22.200  44.220
  403BOLB   NC2 9661  22.740  22.690  46.100
  403BOLB   PO2 9662  22.860  22.260  45.830
  403BOLB   GL3 9663  22.650  22.000  45.520
  403BOLB   GL4 9664  22.340  21.950  45.640
  403BOLB   C1C 9665  22.350  21.810  45.150
  403BOLB   C2C 9666  22.080  21.510  44.880
  403BOLB   C3C 9667  22.150  21.120  44.870
  403BOLB   C4C 9668  22.060  20.800  44.520
  403BOLB   C1D 9669  22.300  21.500  45.590
  403BOLB   C2D 9670  22.460  21.120  45.250
  403BOLB   C3D 9671  22.530  20.690  45.060
  403BOLB   C4D 9672  22.370  20.380  44.710
  404BOLB   NC1 9673  20.140  20.200  42.540
  404BOLB   PO1 9674  20.350  20.460  42.130
  404BOLB   GL1 9675  20.230  20.840  42.500
  404BOLB   GL2 9676  20.060  20.670  42.720
  404BOLB   C1A 9677  20.270  21.090  42.910
  404BOLB   C2A 9678  20.530  21.150  43.380
  404BOLB   C3A 9679  20.370  21.260  43.690
  404BOLB   C4A 9680  20.470  21.530  43.980
  404BOLB   C1B 9681  19.800  20.970  42.960
  404BOLB   C2B 9682  19.450  21.100  43.260
  404BOLB   C3B 9683  19.430  21.400  43.560
  404BOLB   C4B 9684  19.470  21.630  43.850
  404BOLB   NC2 9685  20.480  23.770  44.710
  404BOLB   PO2 9686  20.250  23.520  44.890
  404BOLB   GL3 9687  20.320  23.220  44.660
  404BOLB   GL4 9688  20.330  23.310  44.400
  404BOLB   C1C 9689  20.320  22.820  44.490
  404BOLB   C2C 9690  20.520  22.520  44.330
  404BOLB   C3C 9691  20.690  22.230  44.090
  404BOLB   C4C 9692  20.610  21.890  43.890
  404BOLB   C1D 9693  20.050  23.270  44.070
  404BOLB   C2D 9694  20.090  22.900  43.800
  404BOLB   C3D 9695  19.820  22.620  43.650
  404BOLB   C4D 9696  19.430  22.480  43.450
  405BOLB   NC1 9697  23.400  21.610  29.380
  405BOLB   PO1 9698  23.450  21.550  29.000
  405BOLB   GL1 9699  23.720  21.910  28.930
  405BOLB   GL2 9700  23.660  21.930  28.640
  405BOLB   C1A 9701  24.070  22.160  29.020
  405BOLB   C2A 9702  24.350  22.430  28.760
  405BOLB   C3A 9703  24.580  22.690  28.520
  405BOLB   C4A 9704  24.470  23.000  28.230
  405BOLB   C1B 9705  23.920  22.170  28.510
  405BOLB   C2B 9706  24.240  22.450  28.280
  405BOLB   C3B 9707  24.630  22.380  28.080
  405BOLB   C4B 9708  25.040  22.550  28.250
  405BOLB   NC2 9709  25.920  25.030  27.420
  405BOLB   PO2 9710  25.580  24.990  27.640
  405BOLB   GL3 9711  25.410  24.660  27.680
  405BOLB   GL4 9712  25.380  24.580  27.400
  405BOLB   C1C 9713  25.140  24.300  27.740
  405BOLB   C2C 9714  24.930  23.950  27.600
  405BOLB   C3C 9715  24.890  23.490  27.490
  405BOLB   C4C 9716  24.660  23.130  27.850
  405BOLB   C1D 9717  24.940  24.480  27.270
  405BOLB   C2D 9718  24.760  24.450  26.820
  405BOLB   C3D 9719  24.610  24.500  26.500
  405BOLB   C4D 9720  24.170  24.720  26.430
  406BOLB   NC1 9721  15.070  18.500  38.510
  406BOLB   PO1 9722  15.000  18.960  38.530
  406BOLB   GL1 9723  14.610  18.670  38.340
  406BOLB   GL2 9724  14.400  18.480  38.240
  406BOLB   C1A 9725  14.120  18.720  38.580
  406BOLB   C2A 9726  13.850  18.670  38.740
  406BOLB   C3A 9727  13.490  18.920  39.150
  406BOLB   C4A 9728  13.540  18.900  39.610
  406BOLB   C1B 9729  13.970  18.510  38.130
  406BOLB   C2B 9730  13.620  18.570  38.110
  406BOLB   C3B 9731  13.170  18.780  38.190
  406BOLB   C4B 9732  12.710  18.950  38.270
  406BOLB   NC2 9733  11.780  18.690  40.920
  406BOLB   PO2 9734  11.870  18.830  41.260
  406BOLB   GL3 9735  12.260  19.000  41.080
  406BOLB   GL4 9736  12.430  19.140  41.310
  406BOLB   C1C 9737  12.490  19.060  40.810
  406BOLB   C2C 9738  12.940  19.080  40.580
  406BOLB   C3C 9739  13.250  18.780  40.370
  406BOLB   C4C 9740  13.490  18.670  39.930
  406BOLB   C1D 9741  12.850  19.230  41.120
  406BOLB   C2D 9742  13.240  19.440  40.930
  406BOLB   C3D 9743  13.520  19.740  40.890
  406BOLB   C4D 9744  13.730  19.970  40.600
  407BOLB   NC1 9745  22.030  19.470  43.270
  407BOLB   PO1 9746  21.740  19.220  43.470
  407BOLB   GL1 9747  21.480  19.370  43.790
  407BOLB   GL2 9748  21.720  19.390  44.070
  407BOLB   C1A 9749  21.280  19.700  43.980
  407BOLB   C2A 9750  21.030  19.870  44.270
  407BOLB   C3A 9751  20.990  20.270  44.600
  407BOLB   C4A 9752  21.220  20.560  44.810
  407BOLB   C1B 9753  21.430  19.340  44.390
  407BOLB   C2B 9754  21.220  19.470  44.760
  407BOLB   C3B 9755  20.920  19.830  44.820
  407BOLB   C4B 9756  20.520  19.990  44.480
  407BOLB   NC2 9757  20.640  21.040  46.940
  407BOLB   PO2 9758  21.000  20.730  47.000
  407BOLB   GL3 9759  20.840  20.630  46.590
  407BOLB   GL4 9760  21.140  20.480  46.460
  407BOLB   C1C 9761  20.900  20.910  46.220
  407BOLB   C2C 9762  20.900  20.840  45.810
  407BOLB   C3C 9763  20.780  20.800  45.410
  407BOLB   C4C 9764  21.160  20.660  45.210
  407BOLB   C1D 9765  21.190  20.290  46.050
  407BOLB   C2D 9766  20.970  20.360  45.700
  407BOLB   C3D 9767  20.880  20.230  45.220
  407BOLB   C4D 9768  20.650  20.520  44.870
  408BOLB   NC1 9769  27.375   8.280  35.500
  408BOLB   PO1 9770  27.035   8.070  35.650
  408BOLB   GL1 9771  27.325   7.830  35.940
  408BOLB   GL2 9772  27.535   7.960  36.150
  408BOLB   C1A 9773  27.655   7.500  36.000
  408BOLB   C2A 9774  27.985   7.210  35.990
  408BOLB   C3A 9775  28.355   6.880  35.990
  408BOLB   C4A 9776  28.715   6.650  36.200
  408BOLB   C1B 9777  27.645   7.780  36.600
  408BOLB   C2B 9778  27.905   7.530  36.820
  408BOLB   C3B 9779  28.075   7.120  36.930
  408BOLB   C4B 9780  28.105   6.730  36.930
  408BOLB   NC2 9781  30.175   5.210  35.270
  408BOLB   PO2 9782  30.575   5.380  35.370
  408BOLB   GL3 9783  30.305   5.750  35.420
  408BOLB   GL4 9784  30.395   5.950  35.640
  408BOLB   C1C 9785  29.895   6.010  35.630
  408BOLB   C2C 9786  29.425   6.080  35.720
  408BOLB   C3C 9787  29.235   6.010  36.080
  408BOLB   C4C 9788  28.915   6.280  36.280
  408BOLB   C1D 9789  30.155   6.420  35.770
  408BOLB   C2D 9790  29.975   6.800  35.510
  408BOLB   C3D 9791  29.685   6.960  35.320
  408BOLB   C4D 9792  29.285   7.280  35.390
  409BOLB   NC1 9793  28.945  13.500  38.080
  409BOLB   PO1 9794  28.615  13.430  38.380
  409BOLB   GL1 9795  29.015  13.620  38.580
  409BOLB   GL2 9796  29.195  13.850  38.700
  409BOLB   C1A 9797  29.435  13.320  38.520
  409BOLB   C2A 9798  29.845  13.410  38.730
  409BOLB   C3A 9799  30.225  13.540  38.980
  409BOLB   C4A 9800  30.595  13.540  39.310
  409BOLB   C1B 9801  29.555  13.740  38.950
  409BOLB   C2B 9802  29.885  13.860  39.220
  409BOLB   C3B 9803  30.145  13.710  39.500
  409BOLB   C4B 9804  30.225  13.680  39.980
  409BOLB   NC2 9805  31.825  14.050  41.360
  409BOLB   PO2 9806  32.065  13.810  41.030
  409BOLB   GL3 9807  31.755  13.880  40.880
  409BOLB   GL4 9808  31.825  14.090  40.600
  409BOLB   C1C 9809  31.325  13.800  40.810
  409BOLB   C2C 9810  30.895  13.790  40.530
  409BOLB   C3C 9811  30.745  13.620  40.160
  409BOLB   C4C 9812  30.705  13.620  39.770
  409BOLB   C1D 9813  31.475  13.940  40.340
  409BOLB   C2D 9814  31.155  14.180  40.160
  409BOLB   C3D 9815  30.715  14.110  40.120
  409BOLB   C4D 9816  30.275  14.240  40.270
  410BOLB   NC1 9817  15.430  15.420  38.250
  410BOLB   PO1 9818  15.740  15.200  38.340
  410BOLB   GL1 9819  15.230  15.170  38.620
  410BOLB   GL2 9820  14.950  15.210  38.500
  410BOLB   C1A 9821  14.980  14.940  38.960
  410BOLB   C2A 9822  14.610  15.080  39.190
  410BOLB   C3A 9823  14.290  14.870  39.080
  410BOLB   C4A 9824  13.920  14.670  38.950
  410BOLB   C1B 9825  14.620  14.950  38.650
  410BOLB   C2B 9826  14.370  14.570  38.620
  410BOLB   C3B 9827  14.230  14.240  38.490
  410BOLB   C4B 9828  14.330  13.840  38.630
  410BOLB   NC2 9829  11.070  14.020  39.620
  410BOLB   PO2 9830  11.470  14.290  39.530
  410BOLB   GL3 9831  11.830  14.470  39.430
  410BOLB   GL4 9832  12.050  14.560  39.630
  410BOLB   C1C 9833  12.090  14.370  39.120
  410BOLB   C2C 9834  12.500  14.440  39.080
  410BOLB   C3C 9835  13.030  14.500  38.980
  410BOLB   C4C 9836  13.440  14.570  38.810
  410BOLB   C1D 9837  12.370  14.830  39.410
  410BOLB   C2D 9838  12.650  14.980  39.120
  410BOLB   C3D 9839  13.040  15.040  38.890
  410BOLB   C4D 9840  13.520  15.050  38.900
  411BOLB   NC1 9841  31.315  18.330  29.600
  411BOLB   PO1 9842  31.435  18.300  30.080
  411BOLB   GL1 9843  30.995  18.140  29.960
  411BOLB   GL2 9844  30.665  18.170  30.120
  411BOLB   C1A 9845  30.805  17.880  29.680
  411BOLB   C2A 9846  30.475  17.860  29.580
  411BOLB   C3A 9847  30.055  17.670  29.740
  411BOLB   C4A 9848  30.105  17.320  30.170
  411BOLB   C1B 9849  30.485  17.710  30.190
  411BOLB   C2B 9850  30.555  17.430  29.870
  411BOLB   C3B 9851  30.535  17.040  29.840
  411BOLB   C4B 9852  30.205  16.750  30.060
  411BOLB   NC2 9853  32.495  17.440  31.330
  411BOLB   PO2 9854  32.375  17.620  30.990
  411BOLB   GL3 9855  31.945  17.560  30.970
  411BOLB   GL4 9856  31.925  17.680  30.680
  411BOLB   C1C 9857  31.515  17.600  31.130
  411BOLB   C2C 9858  31.065  17.520  30.970
  411BOLB   C3C 9859  30.635  17.360  30.760
  411BOLB   C4C 9860  30.265  17.340  30.630
  411BOLB   C1D 9861  31.595  17.400  30.710
  411BOLB   C2D 9862  31.275  17.220  30.590
  411BOLB   C3D 9863  31.015  16.920  30.570
  411BOLB   C4D 9864  30.995  16.490  30.650
  412BOLB   NC1 9865  24.020  18.920  42.320
  412BOLB   PO1 9866  23.600  19.040  42.490
  412BOLB   GL1 9867  23.940  19.110  42.780
  412BOLB   GL2 9868  24.250  18.910  42.780
  412BOLB   C1A 9869  24.290  19.470  42.990
  412BOLB   C2A 9870  24.480  19.450  43.390
  412BOLB   C3A 9871  24.510  19.510  43.690
  412BOLB   C4A 9872  24.940  19.440  43.980
  412BOLB   C1B 9873  24.550  18.940  43.090
  412BOLB   C2B 9874  24.600  18.930  43.460
  412BOLB   C3B 9875  24.810  18.890  43.840
  412BOLB   C4B 9876  25.140  18.940  44.030
  412BOLB   NC2 9877  26.030  19.980  46.020
  412BOLB   PO2 9878  25.710  20.170  45.960
  412BOLB   GL3 9879  25.730  20.310  45.630
  412BOLB   GL4 9880  25.620  20.620  45.520
  412BOLB   C1C 9881  25.830  20.190  45.110
  412BOLB   C2C 9882  25.750  19.680  44.830
  412BOLB   C3C 9883  25.380  19.360  44.770
  412BOLB   C4C 9884  25.240  19.370  44.340
  412BOLB   C1D 9885  25.300  20.780  45.180
  412BOLB   C2D 9886  25.270  20.630  44.650
  412BOLB   C3D 9887  25.180  20.340  44.370
  412BOLB   C4D 9888  25.040  19.920  44.240
  413BOLB   NC1 9889  21.160  22.600  26.640
  413BOLB   PO1 9890  21.550  22.370  26.670
  413BOLB   GL1 9891  21.960  22.690  26.650
  413BOLB   GL2 9892  22.190  22.560  26.390
  413BOLB   C1A 9893  22.250  23.060  26.560
  413BOLB   C2A 9894  22.550  23.360  26.480
  413BOLB   C3A 9895  22.950  23.460  26.340
  413BOLB   C4A 9896  23.390  23.690  26.280
  413BOLB   C1B 9897  22.540  22.700  26.200
  413BOLB   C2B 9898  22.880  22.920  26.160
  413BOLB   C3B 9899  23.270  23.160  26.110
  413BOLB   C4B 9900  23.770  23.350  26.000
  413BOLB   NC2 9901  25.650  24.550  25.120
  413BOLB   PO2 9902  25.200  24.540  24.960
  413BOLB   GL3 9903  24.810  24.480  25.090
  413BOLB   GL4 9904  24.650  24.320  24.830
  413BOLB   C1C 9905  24.380  24.510  25.270
  413BOLB   C2C 9906  24.230  24.370  25.700
  413BOLB   C3C 9907  24.100  24.060  25.740
  413BOLB   C4C 9908  23.800  23.880  26.130
  413BOLB   C1D 9909  24.280  24.230  24.800
  413BOLB   C2D 9910  23.970  24.110  25.030
  413BOLB   C3D 9911  23.720  24.010  25.270
  413BOLB   C4D 9912  23.740  23.750  25.640
  414BOLB   NC1 9913  18.080  18.630  21.570
  414BOLB   PO1 9914  17.880  18.460  21.970
  414BOLB   GL1 9915  17.720  18.320  21.490
  414BOLB   GL2 9916  17.930  18.130  21.380
  414BOLB   C1A 9917  17.580  18.280  21.130
  414BOLB   C2A 9918  17.710  18.240  20.640
  414BOLB   C3A 9919  17.680  18.010  20.250
  414BOLB   C4A 9920  17.490  17.960  19.910
  414BOLB   C1B 9921  17.940  17.950  20.970
  414BOLB   C2B 9922  17.690  17.770  20.730
  414BOLB   C3B 9923  17.530  17.540  20.260
  414BOLB   C4B 9924  17.640  17.320  19.860
  414BOLB   NC2 9925  16.300  17.060  17.780
  414BOLB   PO2 9926  16.050  16.770  18.090
  414BOLB   GL3 9927  16.250  16.960  18.400
  414BOLB   GL4 9928  16.050  16.850  18.620
  414BOLB   C1C 9929  16.490  17.170  18.680
  414BOLB   C2C 9930  16.790  17.360  18.930
  414BOLB   C3C 9931  17.030  17.500  19.250
  414BOLB   C4C 9932  17.340  17.650  19.540
  414BOLB   C1D 9933  16.300  16.680  18.910
  414BOLB   C2D 9934  16.640  16.810  19.010
  414BOLB   C3D 9935  16.920  16.800  19.330
  414BOLB   C4D 9936  17.090  16.550  19.520
  415BOLB   NC1 9937  18.130  11.480  31.610
  415BOLB   PO1 9938  17.800  11.290  31.880
  415BOLB   GL1 9939  17.420  11.100  31.960
  415BOLB   GL2 9940  17.520  11.020  32.240
  415BOLB   C1A 9941  17.050  10.880  31.960
  415BOLB   C2A 9942  17.040  10.540  31.690
  415BOLB   C3A 9943  16.860  10.170  31.700
  415BOLB   C4A 9944  16.800   9.730  31.760
  415BOLB   C1B 9945  17.280  10.730  32.350
  415BOLB   C2B 9946  17.240  10.370  32.590
  415BOLB   C3B 9947  16.870  10.160  32.710
  415BOLB   C4B 9948  16.680   9.840  32.910
  415BOLB   NC2 9949  15.100   7.850  31.720
  415BOLB   PO2 9950  15.520   8.010  31.840
  415BOLB   GL3 9951  15.900   7.940  31.960
  415BOLB   GL4 9952  15.940   7.680  31.860
  415BOLB   C1C 9953  16.290   8.150  31.880
  415BOLB   C2C 9954  16.530   8.460  31.960
  415BOLB   C3C 9955  16.500   8.880  31.820
  415BOLB   C4C 9956  16.530   9.310  31.680
  415BOLB   C1D 9957  16.090   7.920  31.470
  415BOLB   C2D 9958  16.470   8.080  31.280
  415BOLB   C3D 9959  16.790   8.150  31.060
  415BOLB   C4D 9960  17.070   8.390  30.870
  416BOLB   NC1 9961  24.900   7.980  29.560
  416BOLB   PO1 9962  25.280   7.710  29.530
  416BOLB   GL1 9963  25.190   7.300  29.570
  416BOLB   GL2 9964  25.060   7.200  29.260
  416BOLB   C1A 9965  25.310   6.870  29.620
  416BOLB   C2A 9966  25.320   6.500  29.660
  416BOLB   C3A 9967  25.140   6.130  29.680
  416BOLB   C4A 9968  25.020   5.730  29.460
  416BOLB   C1B 9969  25.260   6.900  29.040
  416BOLB   C2B 9970  25.230   6.610  28.850
  416BOLB   C3B 9971  25.260   6.240  28.620
  416BOLB   C4B 9972  25.270   5.740  28.520
  416BOLB   NC2 9973  25.480   3.310  29.370
  416BOLB   PO2 9974  25.130   3.530  29.440
  416BOLB   GL3 9975  24.850   3.690  29.270
  416BOLB   GL4 9976  24.740   3.630  28.980
  416BOLB   C1C 9977  24.690   4.150  29.100
  416BOLB   C2C 9978  25.030   4.470  29.100
  416BOLB   C3C 9979  25.110   4.880  29.360
  416BOLB   C4C 9980  25.160   5.340  29.410
  416BOLB   C1D 9981  25.100   3.980  28.880
  416BOLB   C2D 9982  25.350   4.310  28.730
  416BOLB   C3D 9983  25.550   4.760  28.820
  416BOLB   C4D 9984  25.920   5.050  28.800
  417BOLB   NC1 9985  22.350   8.680  28.320
  417BOLB   PO1 9986  21.910   8.770  28.390
  417BOLB   GL1 9987  21.900   8.380  28.310
  417BOLB   GL2 9988  22.020   8.200  28.610
  417BOLB   C1A 9989  21.680   8.010  27.950
  417BOLB   C2A 9990  21.530   7.570  27.820
  417BOLB   C3A 9991  21.830   7.310  27.760
  417BOLB   C4A 9992  22.180   7.030  27.590
  417BOLB   C1B 9993  22.120   7.810  28.360
  417BOLB   C2B 9994  21.900   7.470  28.380
  417BOLB   C3B 9995  21.790   7.120  28.290
  417BOLB   C4B 9996  21.520   6.790  28.330
  417BOLB   NC2 9997  21.900   4.850  26.950
  417BOLB   PO2 9998  21.720   4.690  27.330
  417BOLB   GL3 9999  21.890   5.070  27.380
  417BOLB   GL410000  22.130   5.370  27.160
  417BOLB   C1C10001  21.880   5.500  27.530
  417BOLB   C2C10002  22.100   5.800  27.610
  417BOLB   C3C10003  22.210   6.230  27.660
  417BOLB   C4C10004  22.260   6.560  27.470
  417BOLB   C1D10005  21.950   5.810  27.090
  417BOLB   C2D10006  22.010   6.190  27.210
  417BOLB   C3D10007  21.780   6.450  27.450
  417BOLB   C4D10008  21.710   6.850  27.610
  418BOLB   NC110009  20.090   9.710  33.490
  418BOLB   PO110010  19.900   9.730  33.990
  418BOLB   GL110011  19.540   9.470  34.060
  418BOLB   GL210012  19.420   9.440  34.350
  418BOLB   C1A10013  19.190   9.040  34.170
  418BOLB   C2A10014  19.060   8.720  34.270
  418BOLB   C3A10015  18.910   8.420  34.460
  418BOLB   C4A10016  18.570   8.070  34.660
  418BOLB   C1B10017  19.120   9.080  34.680
  418BOLB   C2B10018  19.010   8.730  34.850
  418BOLB   C3B10019  18.930   8.320  35.010
  418BOLB   C4B10020  18.570   8.090  35.240
  418BOLB   NC210021  17.770   6.020  34.650
  418BOLB   PO210022  17.570   6.120  34.200
  418BOLB   GL310023  17.690   6.520  34.190
  418BOLB   GL410024  17.590   6.770  34.280
  418BOLB   C1C10025  18.070   6.680  34.030
  418BOLB   C2C10026  18.310   7.040  34.050
  418BOLB   C3C10027  18.290   7.400  34.180
  418BOLB   C4C10028  18.350   7.750  34.470
  418BOLB   C1D10029  17.960   6.980  34.430
  418BOLB   C2D10030  18.190   7.240  34.680
  418BOLB   C3D10031  18.140   7.580  35.000
  418BOLB   C4D10032  18.220   7.760  35.370
  419BOLB   NC110033  16.370  12.760  28.810
  419BOLB   PO110034  16.560  12.860  28.400
  419BOLB   GL110035  16.240  12.600  28.330
  419BOLB   GL210036  16.230  12.550  28.040
  419BOLB   C1A10037  15.890  12.380  28.400
  419BOLB   C2A10038  15.480  12.370  28.480
  419BOLB   C3A10039  15.100  12.580  28.580
  419BOLB   C4A10040  14.610  12.660  28.530
  419BOLB   C1B10041  15.930  12.300  27.870
  419BOLB   C2B10042  15.600  12.120  28.110
  419BOLB   C3B10043  15.360  11.820  28.320
  419BOLB   C4B10044  15.160  11.450  28.470
  419BOLB   NC210045  12.830  11.240  28.910
  419BOLB   PO210046  12.630  11.600  28.770
  419BOLB   GL310047  12.810  11.720  29.100
  419BOLB   GL410048  12.650  11.870  29.310
  419BOLB   C1C10049  13.180  11.950  29.100
  419BOLB   C2C10050  13.370  12.410  29.060
  419BOLB   C3C10051  13.740  12.540  28.870
  419BOLB   C4C10052  14.200  12.630  28.650
  419BOLB   C1D10053  12.790  12.210  28.960
  419BOLB   C2D10054  13.010  12.520  28.720
  419BOLB   C3D10055  13.370  12.760  28.610
  419BOLB   C4D10056  13.700  12.800  28.400
  420BOLB   NC110057  24.260   7.650  28.810
  420BOLB   PO110058  24.650   7.870  28.670
  420BOLB   GL110059  24.700   7.390  28.670
  420BOLB   GL210060  24.570   7.410  28.420
  420BOLB   C1A10061  24.920   6.970  28.580
  420BOLB   C2A10062  24.880   6.590  28.470
  420BOLB   C3A10063  24.850   6.300  28.210
  420BOLB   C4A10064  24.940   5.870  28.140
  420BOLB   C1B10065  24.570   6.910  28.190
  420BOLB   C2B10066  24.430   6.460  28.370
  420BOLB   C3B10067  24.470   6.030  28.400
  420BOLB   C4B10068  24.420   5.660  28.160
  420BOLB   NC210069  25.530   3.470  27.050
  420BOLB   PO210070  25.390   3.780  26.840
  420BOLB   GL310071  25.630   4.190  26.930
  420BOLB   GL410072  25.910   4.380  27.250
  420BOLB   C1C10073  25.450   4.620  27.070
  420BOLB   C2C10074  25.300   4.920  27.340
  420BOLB   C3C10075  25.260   5.240  27.730
  420BOLB   C4C10076  25.270   5.550  28.050
  420BOLB   C1D10077  25.830   4.800  27.360
  420BOLB   C2D10078  25.690   5.240  27.350
  420BOLB   C3D10079  25.550   5.430  27.030
  420BOLB   C4D10080  25.600   5.110  26.670
  421BOLB   NC110081  23.780  23.990  20.900
  421BOLB   PO110082  23.490  23.930  21.170
  421BOLB   GL110083  23.070  23.950  21.330
  421BOLB   GL210084  22.850  23.890  21.130
  421BOLB   C1A10085  22.850  23.690  21.600
  421BOLB   C2A10086  22.530  23.260  21.630
  421BOLB   C3A10087  22.680  22.930  21.960
  421BOLB   C4A10088  22.710  22.560  21.880
  421BOLB   C1B10089  22.790  23.390  21.230
  421BOLB   C2B10090  22.900  22.990  21.420
  421BOLB   C3B10091  23.260  22.700  21.360
  421BOLB   C4B10092  23.170  22.350  21.230
  421BOLB   NC210093  23.870  22.690  20.460
  421BOLB   PO210094  24.210  22.530  20.640
  421BOLB   GL310095  23.910  22.240  20.770
  421BOLB   GL410096  24.080  22.020  20.600
  421BOLB   C1C10097  23.590  21.900  20.810
  421BOLB   C2C10098  23.280  21.880  21.040
  421BOLB   C3C10099  22.890  21.910  21.340
  421BOLB   C4C10100  22.700  22.160  21.690
  421BOLB   C1D10101  24.170  21.810  20.980
  421BOLB   C2D10102  24.470  21.500  21.220
  421BOLB   C3D10103  24.590  21.260  21.550
  421BOLB   C4D10104  24.300  21.120  21.880
  422BOLB   NC110105  24.040  13.710  42.910
  422BOLB   PO110106  24.550  13.890  42.740
  422BOLB   GL110107  24.580  13.370  42.940
  422BOLB   GL210108  24.520  13.100  42.860
  422BOLB   C1A10109  24.660  13.340  43.300
  422BOLB   C2A10110  24.710  13.100  43.660
  422BOLB   C3A10111  24.950  12.820  43.890
  422BOLB   C4A10112  24.980  12.690  44.240
  422BOLB   C1B10113  24.150  13.200  43.220
  422BOLB   C2B10114  24.150  13.250  43.630
  422BOLB   C3B10115  24.430  13.330  44.010
  422BOLB   C4B10116  24.820  13.170  44.280
  422BOLB   NC210117  24.710  12.220  46.390
  422BOLB   PO210118  24.490  11.870  46.370
  422BOLB   GL310119  24.550  11.950  45.900
  422BOLB   GL410120  24.390  12.190  45.920
  422BOLB   C1C10121  24.550  11.910  45.460
  422BOLB   C2C10122  24.440  12.260  45.170
  422BOLB   C3C10123  24.500  12.450  44.790
  422BOLB   C4C10124  24.770  12.460  44.440
  422BOLB   C1D10125  24.080  12.420  45.660
  422BOLB   C2D10126  23.910  12.900  45.500
  422BOLB   C3D10127  23.870  13.120  45.110
  422BOLB   C4D10128  23.960  13.030  44.760
  423BOLB   NC110129  25.980  15.940  24.130
  423BOLB   PO110130  26.280  15.620  23.940
  423BOLB   GL110131  26.505  15.890  23.720
  423BOLB   GL210132  26.465  16.230  23.680
  423BOLB   C1A10133  26.905  15.830  23.600
  423BOLB   C2A10134  27.265  15.660  23.510
  423BOLB   C3A10135  27.705  15.810  23.580
  423BOLB   C4A10136  28.085  15.690  23.570
  423BOLB   C1B10137  26.865  16.340  23.520
  423BOLB   C2B10138  27.145  16.450  23.240
  423BOLB   C3B10139  27.555  16.430  23.060
  423BOLB   C4B10140  27.935  16.560  22.910
  423BOLB   NC210141  30.045  17.150  22.570
  423BOLB   PO210142  30.215  16.900  22.890
  423BOLB   GL310143  30.165  16.590  23.190
  423BOLB   GL410144  30.255  16.730  23.500
  423BOLB   C1C10145  29.815  16.220  23.150
  423BOLB   C2C10146  29.355  16.150  23.210
  423BOLB   C3C10147  29.025  15.840  23.410
  423BOLB   C4C10148  28.625  15.790  23.620
  423BOLB   C1D10149  30.005  16.420  23.650
  423BOLB   C2D10150  29.605  16.330  23.750
  423BOLB   C3D10151  29.275  16.220  23.810
  423BOLB   C4D10152  29.025  15.930  23.940
  424BOLB   NC110153  18.640  20.660  22.070
  424BOLB   PO110154  18.600  21.120  21.950
  424BOLB   GL110155  18.290  21.320  21.700
  424BOLB   GL210156  17.920  21.310  21.820
  424BOLB   C1A10157  18.170  21.610  21.510
  424BOLB   C2A10158  17.970  21.890  21.120
  424BOLB   C3A10159  17.990  22.080  20.670
  424BOLB   C4A10160  17.930  22.430  20.440
  424BOLB   C1B10161  17.700  21.680  21.620
  424BOLB   C2B10162  17.460  21.960  21.350
  424BOLB   C3B10163  17.060  22.020  21.120
  424BOLB   C4B10164  16.670  21.760  20.980
  424BOLB   NC210165  17.180  23.130  19.090
  424BOLB   PO210166  17.190  23.500  19.230
  424BOLB   GL310167  17.150  23.730  19.620
  424BOLB   GL410168  16.850  23.690  19.820
  424BOLB   C1C10169  17.300  23.690  20.050
  424BOLB   C2C10170  17.590  23.600  20.210
  424BOLB   C3C10171  17.900  23.230  20.310
  424BOLB   C4C10172  17.880  22.820  20.170
  424BOLB   C1D10173  17.030  23.260  19.960
  424BOLB   C2D10174  16.990  22.800  20.050
  424BOLB   C3D10175  16.760  22.440  20.210
  424BOLB   C4D10176  16.780  22.060  20.350
  425BOLB   NC110177  14.840  23.290  31.870
  425BOLB   PO110178  14.460  23.060  32.090
  425BOLB   GL110179  14.180  23.350  31.950
  425BOLB   GL210180  14.000  23.320  31.670
  425BOLB   C1A10181  14.090  23.700  32.140
  425BOLB   C2A10182  13.860  24.060  32.280
  425BOLB   C3A10183  13.480  24.270  32.280
  425BOLB   C4A10184  13.260  24.610  32.510
  425BOLB   C1B10185  13.730  23.530  31.830
  425BOLB   C2B10186  13.430  23.880  31.980
  425BOLB   C3B10187  13.080  24.220  31.970
  425BOLB   C4B10188  12.580  24.330  32.090
  425BOLB   NC210189  12.130  26.290  33.850
  425BOLB   PO210190  12.330  26.400  33.470
  425BOLB   GL310191  12.440  26.010  33.490
  425BOLB   GL410192  12.240  25.720  33.410
  425BOLB   C1C10193  12.710  25.600  33.420
  425BOLB   C2C10194  12.830  25.290  33.090
  425BOLB   C3C10195  12.780  24.840  33.190
  425BOLB   C4C10196  12.960  24.630  32.940
  425BOLB   C1D10197  12.140  25.550  33.860
  425BOLB   C2D10198  12.260  25.330  34.210
  425BOLB   C3D10199  12.410  25.040  34.580
  425BOLB   C4D10200  12.710  24.750  34.720
  426BOLB   NC110201  18.580  24.410  32.780
  426BOLB   PO110202  18.410  24.830  32.850
  426BOLB   GL110203  18.510  25.220  32.940
  426BOLB   GL210204  18.750  25.200  32.930
  426BOLB   C1A10205  18.400  25.630  33.210
  426BOLB   C2A10206  18.580  26.040  33.150
  426BOLB   C3A10207  18.700   0.020  33.360
  426BOLB   C4A10208  18.990   0.400  33.270
  426BOLB   C1B10209  18.950  25.580  32.940
  426BOLB   C2B10210  19.250  25.860  32.770
  426BOLB   C3B10211  19.410  26.240  32.630
  426BOLB   C4B10212  19.440   0.180  32.510
  426BOLB   NC210213  18.450   2.320  32.840
  426BOLB   PO210214  18.210   2.380  33.220
  426BOLB   GL310215  18.140   2.060  33.100
  426BOLB   GL410216  17.750   1.910  33.030
  426BOLB   C1C10217  18.280   1.630  33.190
  426BOLB   C2C10218  18.380   1.320  33.550
  426BOLB   C3C10219  18.610   0.980  33.770
  426BOLB   C4C10220  19.020   0.710  33.670
  426BOLB   C1D10221  17.840   1.510  32.910
  426BOLB   C2D10222  17.810   1.060  32.990
  426BOLB   C3D10223  17.760   0.780  32.660
  426BOLB   C4D10224  17.490   0.480  32.650
  427BOLB   NC110225  19.640  10.320  30.170
  427BOLB   PO110226  19.940   9.950  30.230
  427BOLB   GL110227  19.610   9.640  30.330
  427BOLB   GL210228  19.680   9.560  29.980
  427BOLB   C1A10229  19.180   9.300  30.330
  427BOLB   C2A10230  18.800   9.100  30.370
  427BOLB   C3A10231  18.590   8.740  30.390
  427BOLB   C4A10232  18.280   8.400  30.420
  427BOLB   C1B10233  19.320   9.280  29.860
  427BOLB   C2B10234  19.070   9.020  29.850
  427BOLB   C3B10235  18.770   8.720  29.880
  427BOLB   C4B10236  18.530   8.300  29.720
  427BOLB   NC210237  17.630   5.900  30.570
  427BOLB   PO210238  17.340   6.210  30.430
  427BOLB   GL310239  17.660   6.410  30.500
  427BOLB   GL410240  17.960   6.240  30.370
  427BOLB   C1C10241  17.870   6.790  30.610
  427BOLB   C2C10242  17.960   7.240  30.420
  427BOLB   C3C10243  18.220   7.570  30.190
  427BOLB   C4C10244  18.240   7.920  30.340
  427BOLB   C1D10245  18.190   6.460  30.630
  427BOLB   C2D10246  18.260   6.890  30.830
  427BOLB   C3D10247  18.700   7.090  30.820
  427BOLB   C4D10248  19.020   7.310  30.780
  428BOLB   NC110249  21.810  21.270  18.590
  428BOLB   PO110250  21.420  21.190  18.440
  428BOLB   GL110251  21.100  21.360  18.750
  428BOLB   GL210252  21.300  21.340  18.980
  428BOLB   C1A10253  20.870  21.720  18.960
  428BOLB   C2A10254  20.750  21.840  19.410
  428BOLB   C3A10255  20.260  21.930  19.500
  428BOLB   C4A10256  19.960  21.610  19.320
  428BOLB   C1B10257  20.960  21.200  19.200
  428BOLB   C2B10258  20.830  21.100  19.580
  428BOLB   C3B10259  20.740  20.850  19.990
  428BOLB   C4B10260  20.780  20.430  20.050
  428BOLB   NC210261  20.720  21.160  17.670
  428BOLB   PO210262  20.580  20.900  17.940
  428BOLB   GL310263  20.590  20.740  18.300
  428BOLB   GL410264  20.790  20.540  18.340
  428BOLB   C1C10265  20.210  20.690  18.410
  428BOLB   C2C10266  19.790  20.820  18.500
  428BOLB   C3C10267  19.580  20.940  18.870
  428BOLB   C4C10268  19.640  21.260  19.220
  428BOLB   C1D10269  20.840  20.370  18.800
  428BOLB   C2D10270  20.630  20.290  19.190
  428BOLB   C3D10271  20.440  19.940  19.450
  428BOLB   C4D10272  20.220  19.610  19.170
  429BOLB   NC110273  20.710  24.160  36.500
  429BOLB   PO110274  20.300  24.300  36.710
  429BOLB   GL110275  20.440  24.530  36.970
  429BOLB   GL210276  20.690  24.640  36.670
  429BOLB   C1A10277  20.550  24.960  37.170
  429BOLB   C2A10278  20.830  25.310  37.210
  429BOLB   C3A10279  20.970  25.760  37.230
  429BOLB   C4A10280  20.820  26.130  36.930
  429BOLB   C1B10281  20.900  25.030  36.750
  429BOLB   C2B10282  20.980  25.410  36.590
  429BOLB   C3B10283  21.090  25.690  36.760
  429BOLB   C4B10284  21.420  26.080  36.700
  429BOLB   NC210285  21.320   1.800  36.840
  429BOLB   PO210286  21.540   1.690  36.540
  429BOLB   GL310287  21.560   1.260  36.340
  429BOLB   GL410288  21.190   1.290  36.470
  429BOLB   C1C10289  21.410   0.920  36.240
  429BOLB   C2C10290  21.120   0.560  36.280
  429BOLB   C3C10291  20.790   0.370  36.550
  429BOLB   C4C10292  20.650  26.430  36.720
  429BOLB   C1D10293  21.110   0.890  36.630
  429BOLB   C2D10294  21.270   0.470  36.750
  429BOLB   C3D10295  21.170   0.090  37.050
  429BOLB   C4D10296  20.960  26.400  37.400
  430BOLB   NC110297  21.440   8.330  30.520
  430BOLB   PO110298  21.290   8.470  30.180
  430BOLB   GL110299  21.220   8.230  29.940
  430BOLB   GL210300  20.920   8.450  29.800
  430BOLB   C1A10301  21.250   7.780  29.850
  430BOLB   C2A10302  21.270   7.380  30.120
  430BOLB   C3A10303  21.390   7.020  30.310
  430BOLB   C4A10304  21.250   6.670  30.610
  430BOLB   C1B10305  20.710   7.920  29.860
  430BOLB   C2B10306  20.480   7.490  29.750
  430BOLB   C3B10307  20.190   7.280  29.570
  430BOLB   C4B10308  20.120   6.940  29.720
  430BOLB   NC210309  20.960   3.900  30.970
  430BOLB   PO210310  21.040   4.390  31.190
  430BOLB   GL310311  21.240   4.770  31.190
  430BOLB   GL410312  20.950   5.010  31.130
  430BOLB   C1C10313  21.620   5.030  31.050
  430BOLB   C2C10314  21.570   5.340  30.780
  430BOLB   C3C10315  21.320   5.770  30.740
  430BOLB   C4C10316  21.220   6.190  30.600
  430BOLB   C1D10317  21.180   5.300  31.140
  430BOLB   C2D10318  21.490   5.670  31.210
  430BOLB   C3D10319  21.350   6.090  31.170
  430BOLB   C4D10320  21.510   6.470  30.970
  431BOLB   NC110321  26.230  10.610  39.720
  431BOLB   PO110322  26.465  10.280  39.510
  431BOLB   GL110323  26.895  10.020  39.670
  431BOLB   GL210324  26.905   9.730  39.820
  431BOLB   C1A10325  27.295   9.970  40.000
  431BOLB   C2A10326  27.415   9.730  40.370
  431BOLB   C3A10327  27.335   9.430  40.630
  431BOLB   C4A10328  27.395   9.060  40.800
  431BOLB   C1B10329  26.875   9.760  40.350
  431BOLB   C2B10330  26.875   9.340  40.620
  431BOLB   C3B10331  26.875   9.170  40.950
  431BOLB   C4B10332  26.785   8.750  41.150
  431BOLB   NC210333  27.675   7.570  42.230
  431BOLB   PO210334  27.615   7.800  42.640
  431BOLB   GL310335  27.295   8.010  42.280
  431BOLB   GL410336  27.335   8.170  41.950
  431BOLB   C1C10337  26.875   8.050  42.030
  431BOLB   C2C10338  26.885   8.360  41.660
  431BOLB   C3C10339  27.175   8.500  41.350
  431BOLB   C4C10340  27.285   8.880  41.160
  431BOLB   C1D10341  27.445   8.080  41.560
  431BOLB   C2D10342  27.225   7.910  41.270
  431BOLB   C3D10343  27.035   7.770  40.850
  431BOLB   C4D10344  26.765   7.510  40.560
  432BOLB   NC110345  25.680  15.670  41.520
  432BOLB   PO110346  26.070  15.520  41.810
  432BOLB   GL110347  26.420  15.620  41.960
  432BOLB   GL210348  26.595  15.850  41.980
  432BOLB   C1A10349  26.625  15.500  42.330
  432BOLB   C2A10350  26.805  15.420  42.730
  432BOLB   C3A10351  27.115  15.480  42.960
  432BOLB   C4A10352  27.535  15.460  42.850
  432BOLB   C1B10353  26.815  16.120  42.150
  432BOLB   C2B10354  26.955  16.340  42.520
  432BOLB   C3B10355  27.205  16.510  42.740
  432BOLB   C4B10356  27.315  16.800  42.950
  432BOLB   NC210357  29.145  14.910  45.100
  432BOLB   PO210358  29.095  14.840  44.670
  432BOLB   GL310359  28.735  15.090  44.500
  432BOLB   GL410360  28.865  15.010  44.200
  432BOLB   C1C10361  28.585  15.450  44.170
  432BOLB   C2C10362  28.305  15.440  43.800
  432BOLB   C3C10363  28.095  15.530  43.390
  432BOLB   C4C10364  27.995  15.410  42.970
  432BOLB   C1D10365  28.635  15.060  43.790
  432BOLB   C2D10366  28.375  14.730  43.630
  432BOLB   C3D10367  28.375  14.420  43.490
  432BOLB   C4D10368  28.315  13.960  43.330
  433BOLB   NC110369  18.490  19.150  42.070
  433BOLB   PO110370  18.550  19.140  42.490
  433BOLB   GL110371  18.300  19.190  42.950
  433BOLB   GL210372  18.010  19.110  42.900
  433BOLB   C1A10373  18.210  19.130  43.400
  433BOLB   C2A10374  18.190  19.010  43.740
  433BOLB   C3A10375  18.030  18.950  43.980
  433BOLB   C4A10376  17.610  18.690  44.120
  433BOLB   C1B10377  17.780  19.030  43.230
  433BOLB   C2B10378  17.710  18.770  43.530
  433BOLB   C3B10379  17.610  18.380  43.750
  433BOLB   C4B10380  17.450  18.080  44.090
  433BOLB   NC210381  15.900  18.680  46.340
  433BOLB   PO210382  15.870  18.770  45.900
  433BOLB   GL310383  16.140  19.020  45.530
  433BOLB   GL410384  16.290  19.370  45.510
  433BOLB   C1C10385  16.410  18.830  45.180
  433BOLB   C2C10386  16.710  18.820  44.800
  433BOLB   C3C10387  16.980  18.750  44.460
  433BOLB   C4C10388  17.190  18.660  44.180
  433BOLB   C1D10389  16.510  19.370  45.170
  433BOLB   C2D10390  16.970  19.190  45.190
  433BOLB   C3D10391  17.230  19.100  44.830
  433BOLB   C4D10392  17.530  18.980  44.520
  434BOLB   NC110393  22.540   1.250  37.690
  434BOLB   PO110394  22.500   1.400  37.250
  434BOLB   GL110395  22.200   1.130  37.130
  434BOLB   GL210396  22.060   1.130  36.870
  434BOLB   C1A10397  21.960   0.730  37.130
  434BOLB   C2A10398  21.530   0.400  37.160
  434BOLB   C3A10399  21.650  26.340  37.130
  434BOLB   C4A10400  21.360  26.060  37.220
  434BOLB   C1B10401  21.960   1.010  36.420
  434BOLB   C2B10402  21.970   0.810  36.060
  434BOLB   C3B10403  22.020   0.410  35.870
  434BOLB   C4B10404  22.170   0.070  35.660
  434BOLB   NC210405  21.970   0.620  39.120
  434BOLB   PO210406  21.560   0.670  39.300
  434BOLB   GL310407  21.460   0.300  39.260
  434BOLB   GL410408  21.650   0.190  39.070
  434BOLB   C1C10409  21.170   0.060  39.020
  434BOLB   C2C10410  21.240  26.290  38.640
  434BOLB   C3C10411  21.200  26.190  38.150
  434BOLB   C4C10412  21.150  26.050  37.690
  434BOLB   C1D10413  21.610  26.170  38.990
  434BOLB   C2D10414  21.490  25.710  38.860
  434BOLB   C3D10415  21.300  25.460  38.660
  434BOLB   C4D10416  20.990  25.180  38.530
  435BOLB   NC110417  33.865  13.920  30.580
  435BOLB   PO110418  33.545  14.200  30.680
  435BOLB   GL110419  33.095  14.210  30.790
  435BOLB   GL210420  32.955  14.340  30.510
  435BOLB   C1A10421  32.665  14.330  30.860
  435BOLB   C2A10422  32.385  14.030  30.790
  435BOLB   C3A10423  31.965  13.800  30.790
  435BOLB   C4A10424  31.815  13.590  31.110
  435BOLB   C1B10425  32.555  14.300  30.270
  435BOLB   C2B10426  32.225  14.160  30.340
  435BOLB   C3B10427  31.815  14.070  30.200
  435BOLB   C4B10428  31.475  13.980  29.830
  435BOLB   NC210429  33.215  14.990  31.440
  435BOLB   PO210430  33.265  15.160  31.860
  435BOLB   GL310431  32.895  14.980  31.840
  435BOLB   GL410432  32.615  15.200  31.850
  435BOLB   C1C10433  32.665  14.520  31.800
  435BOLB   C2C10434  32.225  14.320  31.960
  435BOLB   C3C10435  31.875  14.110  31.680
  435BOLB   C4C10436  31.765  13.640  31.590
  435BOLB   C1D10437  32.415  14.870  32.060
  435BOLB   C2D10438  31.985  14.640  32.290
  435BOLB   C3D10439  31.685  14.680  32.630
  435BOLB   C4D10440  31.265  14.750  32.730
  436BOLB   NC110441  21.970  12.040  41.530
  436BOLB   PO110442  21.690  12.330  41.690
  436BOLB   GL110443  21.660  11.920  41.860
  436BOLB   GL210444  21.400  11.760  41.930
  436BOLB   C1A10445  21.980  12.040  42.210
  436BOLB   C2A10446  22.090  11.910  42.500
  436BOLB   C3A10447  22.330  11.750  42.860
  436BOLB   C4A10448  22.270  11.420  43.030
  436BOLB   C1B10449  21.110  11.470  42.070
  436BOLB   C2B10450  21.160  11.220  42.430
  436BOLB   C3B10451  20.950  10.930  42.690
  436BOLB   C4B10452  21.090  10.630  42.920
  436BOLB   NC210453  22.970  10.010  45.110
  436BOLB   PO210454  23.180   9.740  44.720
  436BOLB   GL310455  22.910   9.960  44.560
  436BOLB   GL410456  22.850   9.880  44.200
  436BOLB   C1C10457  22.930  10.340  44.200
  436BOLB   C2C10458  22.750  10.640  44.000
  436BOLB   C3C10459  22.850  10.960  43.630
  436BOLB   C4C10460  22.600  11.320  43.400
  436BOLB   C1D10461  22.730  10.130  43.830
  436BOLB   C2D10462  22.480  10.480  43.620
  436BOLB   C3D10463  21.970  10.530  43.550
  436BOLB   C4D10464  21.860  10.900  43.820
  437BOLB   NC110465  27.775   8.470  30.460
  437BOLB   PO110466  27.455   8.500  30.200
  437BOLB   GL110467  27.585   8.010  30.160
  437BOLB   GL210468  27.575   7.870  29.920
  437BOLB   C1A10469  27.885   7.710  30.270
  437BOLB   C2A10470  28.205   7.610  30.000
  437BOLB   C3A10471  28.505   7.340  29.900
  437BOLB   C4A10472  28.805   7.060  30.000
  437BOLB   C1B10473  27.715   7.380  29.910
  437BOLB   C2B10474  27.725   6.990  29.780
  437BOLB   C3B10475  27.625   6.630  29.920
  437BOLB   C4B10476  27.455   6.280  30.110
  437BOLB   NC210477  29.515   4.890  29.610
  437BOLB   PO210478  29.175   4.740  29.500
  437BOLB   GL310479  29.075   5.140  29.500
  437BOLB   GL410480  29.295   5.410  29.530
  437BOLB   C1C10481  28.775   5.390  29.520
  437BOLB   C2C10482  28.565   5.800  29.690
  437BOLB   C3C10483  28.695   6.130  29.810
  437BOLB   C4C10484  28.795   6.610  29.970
  437BOLB   C1D10485  29.125   5.800  29.620
  437BOLB   C2D10486  29.055   6.220  29.480
  437BOLB   C3D10487  29.225   6.660  29.530
  437BOLB   C4D10488  29.175   6.930  29.730
  438BOLB   NC110489  20.680   9.630  26.980
  438BOLB   PO110490  20.310   9.860  26.990
  438BOLB   GL110491  20.100   9.610  26.600
  438BOLB   GL210492  19.790   9.670  26.720
  438BOLB   C1A10493  19.970   9.120  26.660
  438BOLB   C2A10494  19.800   8.790  26.510
  438BOLB   C3A10495  19.870   8.320  26.290
  438BOLB   C4A10496  19.820   8.250  25.820
  438BOLB   C1B10497  19.450   9.220  26.690
  438BOLB   C2B10498  19.070   9.100  26.530
  438BOLB   C3B10499  18.850   8.680  26.560
  438BOLB   C4B10500  18.970   8.250  26.860
  438BOLB   NC210501  19.000   5.810  25.300
  438BOLB   PO210502  19.180   6.180  25.220
  438BOLB   GL310503  19.450   6.490  25.360
  438BOLB   GL410504  19.740   6.530  25.290
  438BOLB   C1C10505  19.310   6.900  25.280
  438BOLB   C2C10506  19.250   7.330  25.370
  438BOLB   C3C10507  19.190   7.740  25.450
  438BOLB   C4C10508  19.540   8.120  25.460
  438BOLB   C1D10509  19.820   7.010  25.360
  438BOLB   C2D10510  20.010   7.420  25.320
  438BOLB   C3D10511  20.080   7.840  25.230
  438BOLB   C4D10512  20.210   8.190  25.430
  439BOLB   NC110513  17.830  16.730  22.810
  439BOLB   PO110514  17.540  16.780  22.460
  439BOLB   GL110515  17.480  16.570  22.070
  439BOLB   GL210516  17.330  16.370  22.120
  439BOLB   C1A10517  17.380  16.500  21.560
  439BOLB   C2A10518  17.140  16.380  21.280
  439BOLB   C3A10519  17.120  16.230  20.820
  439BOLB   C4A10520  16.920  16.150  20.500
  439BOLB   C1B10521  16.930  16.440  21.850
  439BOLB   C2B10522  16.630  16.340  21.480
  439BOLB   C3B10523  16.450  16.490  21.180
  439BOLB   C4B10524  16.590  16.480  20.770
  439BOLB   NC210525  14.830  16.210  19.400
  439BOLB   PO210526  15.180  15.920  19.260
  439BOLB   GL310527  15.260  16.110  19.650
  439BOLB   GL410528  15.000  16.100  19.880
  439BOLB   C1C10529  15.580  16.220  19.910
  439BOLB   C2C10530  15.860  16.120  20.160
  439BOLB   C3C10531  16.170  16.130  20.380
  439BOLB   C4C10532  16.540  16.250  20.340
  439BOLB   C1D10533  15.310  15.830  20.120
  439BOLB   C2D10534  15.570  15.770  20.520
  439BOLB   C3D10535  15.780  15.650  20.880
  439BOLB   C4D10536  15.860  15.650  21.370
  440BOLB   NC110537  21.480  21.110  41.780
  440BOLB   PO110538  21.440  21.510  41.430
  440BOLB   GL110539  21.430  21.950  41.570
  440BOLB   GL210540  21.740  22.040  41.730
  440BOLB   C1A10541  21.340  22.420  41.640
  440BOLB   C2A10542  21.330  22.800  41.860
  440BOLB   C3A10543  21.320  23.010  42.300
  440BOLB   C4A10544  21.040  23.260  42.480
  440BOLB   C1B10545  21.610  22.200  42.020
  440BOLB   C2B10546  21.330  22.380  42.180
  440BOLB   C3B10547  21.010  22.590  42.210
  440BOLB   C4B10548  20.790  22.980  42.140
  440BOLB   NC210549  20.700  24.700  44.420
  440BOLB   PO210550  20.350  24.880  44.210
  440BOLB   GL310551  20.300  24.660  43.820
  440BOLB   GL410552  20.210  24.340  43.820
  440BOLB   C1C10553  20.400  24.500  43.320
  440BOLB   C2C10554  20.480  24.090  43.090
  440BOLB   C3C10555  20.550  23.860  42.810
  440BOLB   C4C10556  20.930  23.560  42.750
  440BOLB   C1D10557  20.560  24.120  43.690
  440BOLB   C2D10558  20.640  23.750  43.470
  440BOLB   C3D10559  20.830  23.390  43.320
  440BOLB   C4D10560  21.030  23.090  42.960
  441BOLB   NC110561  15.340  14.190  35.340
  441BOLB   PO110562  15.040  14.480  34.990
  441BOLB   GL110563  14.730  14.140  34.860
  441BOLB   GL210564  14.640  14.290  34.590
  441BOLB   C1A10565  14.600  13.810  35.100
  441BOLB   C2A10566  14.350  13.430  35.090
  441BOLB   C3A10567  14.290  13.040  35.010
  441BOLB   C4A10568  13.960  12.800  35.010
  441BOLB   C1B10569  14.240  14.000  34.710
  441BOLB   C2B10570  14.000  13.940  34.980
  441BOLB   C3B10571  13.550  13.800  34.950
  441BOLB   C4B10572  13.220  13.450  34.870
  441BOLB   NC210573  12.060  10.970  35.640
  441BOLB   PO210574  11.980  11.340  35.520
  441BOLB   GL310575  12.160  11.710  35.370
  441BOLB   GL410576  12.310  11.760  35.000
  441BOLB   C1C10577  12.620  11.850  35.440
  441BOLB   C2C10578  13.050  11.960  35.490
  441BOLB   C3C10579  13.340  12.290  35.380
  441BOLB   C4C10580  13.560  12.600  35.260
  441BOLB   C1D10581  12.750  11.830  34.890
  441BOLB   C2D10582  13.140  12.090  34.900
  441BOLB   C3D10583  13.560  12.120  34.850
  441BOLB   C4D10584  13.780  12.450  34.750
  442BOLB   NC110585  16.020   2.480  33.870
  442BOLB   PO110586  15.710   2.440  34.200
  442BOLB   GL110587  15.870   2.050  34.120
  442BOLB   GL210588  15.890   1.960  34.400
  442BOLB   C1A10589  16.270   1.810  34.090
  442BOLB   C2A10590  16.550   1.610  34.360
  442BOLB   C3A10591  16.680   1.280  34.350
  442BOLB   C4A10592  16.640   0.910  34.110
  442BOLB   C1B10593  16.080   1.500  34.580
  442BOLB   C2B10594  16.280   1.190  34.680
  442BOLB   C3B10595  16.170   0.800  34.810
  442BOLB   C4B10596  16.250   0.390  34.830
  442BOLB   NC210597  15.260   2.440  35.020
  442BOLB   PO210598  14.990   2.060  35.120
  442BOLB   GL310599  15.390   1.870  34.970
  442BOLB   GL410600  15.580   1.760  35.160
  442BOLB   C1C10601  15.570   1.690  34.600
  442BOLB   C2C10602  15.640   1.380  34.200
  442BOLB   C3C10603  15.830   1.100  33.880
  442BOLB   C4C10604  16.300   0.880  33.800
  442BOLB   C1D10605  15.680   1.400  34.950
  442BOLB   C2D10606  15.890   1.060  35.130
  442BOLB   C3D10607  15.990   0.610  35.260
  442BOLB   C4D10608  16.250   0.320  35.320
  443BOLB   NC110609  25.360  15.460  22.460
  443BOLB   PO110610  25.230  15.080  22.260
  443BOLB   GL110611  25.090  14.900  21.780
  443BOLB   GL210612  25.380  14.840  21.600
  443BOLB   C1A10613  25.040  15.110  21.380
  443BOLB   C2A10614  25.150  15.020  20.920
  443BOLB   C3A10615  25.530  14.900  20.810
  443BOLB   C4A10616  25.990  14.640  20.640
  443BOLB   C1B10617  25.650  14.870  21.360
  443BOLB   C2B10618  25.960  14.600  21.190
  443BOLB   C3B10619  26.300  14.540  21.160
  443BOLB   C4B10620  26.485  14.160  21.090
  443BOLB   NC210621  27.365  14.090  19.310
  443BOLB   PO210622  27.515  14.550  19.300
  443BOLB   GL310623  27.035  14.640  19.240
  443BOLB   GL410624  27.035  14.480  19.540
  443BOLB   C1C10625  26.535  14.380  19.190
  443BOLB   C2C10626  26.455  14.370  19.610
  443BOLB   C3C10627  26.310  14.630  19.900
  443BOLB   C4C10628  25.990  14.630  20.290
  443BOLB   C1D10629  26.805  14.400  19.910
  443BOLB   C2D10630  26.515  14.330  20.300
  443BOLB   C3D10631  26.445  13.960  20.620
  443BOLB   C4D10632  26.310  13.770  20.830
  444BOLB   NC110633  22.490  22.050  40.660
  444BOLB   PO110634  22.620  21.750  40.890
  444BOLB   GL110635  22.740  21.950  41.270
  444BOLB   GL210636  22.660  22.240  41.110
  444BOLB   C1A10637  22.660  22.140  41.680
  444BOLB   C2A10638  22.610  22.350  41.930
  444BOLB   C3A10639  22.630  22.670  42.280
  444BOLB   C4A10640  22.900  22.580  42.650
  444BOLB   C1B10641  22.780  22.670  41.040
  444BOLB   C2B10642  22.650  23.020  41.220
  444BOLB   C3B10643  22.520  23.260  40.950
  444BOLB   C4B10644  22.350  23.660  40.750
  444BOLB   NC210645  24.420  23.240  44.570
  444BOLB   PO210646  24.320  23.400  44.120
  444BOLB   GL310647  24.110  23.060  44.010
  444BOLB   GL410648  24.220  22.810  44.190
  444BOLB   C1C10649  23.540  23.030  43.920
  444BOLB   C2C10650  23.270  22.910  43.590
  444BOLB   C3C10651  23.290  22.700  43.270
  444BOLB   C4C10652  23.170  22.430  42.930
  444BOLB   C1D10653  24.050  22.530  43.870
  444BOLB   C2D10654  23.550  22.530  43.920
  444BOLB   C3D10655  23.290  22.310  43.550
  444BOLB   C4D10656  22.980  22.110  43.290
  445BOLB   NC110657  29.015  10.360  32.860
  445BOLB   PO110658  29.375  10.470  33.160
  445BOLB   GL110659  29.845  10.450  33.180
  445BOLB   GL210660  29.875  10.410  33.470
  445BOLB   C1A10661  30.195  10.330  33.000
  445BOLB   C2A10662  30.455  10.430  33.310
  445BOLB   C3A10663  30.875  10.570  33.380
  445BOLB   C4A10664  31.205  10.690  33.760
  445BOLB   C1B10665  30.115  10.030  33.510
  445BOLB   C2B10666  30.595   9.950  33.350
  445BOLB   C3B10667  30.845   9.740  33.040
  445BOLB   C4B10668  31.215   9.920  32.930
  445BOLB   NC210669  33.535  10.470  33.530
  445BOLB   PO210670  33.485  10.450  34.010
  445BOLB   GL310671  33.065  10.580  33.850
  445BOLB   GL410672  33.025  10.330  33.800
  445BOLB   C1C10673  32.715  10.740  33.990
  445BOLB   C2C10674  32.245  10.860  34.100
  445BOLB   C3C10675  31.905  10.650  34.260
  445BOLB   C4C10676  31.555  10.480  33.990
  445BOLB   C1D10677  32.665  10.160  33.860
  445BOLB   C2D10678  32.255  10.180  33.670
  445BOLB   C3D10679  31.865  10.030  33.770
  445BOLB   C4D10680  31.465   9.980  33.840
  446BOLB   NC110681  14.840  14.980  30.830
  446BOLB   PO110682  14.840  15.360  30.610
  446BOLB   GL110683  14.390  15.370  30.510
  446BOLB   GL210684  14.340  15.060  30.590
  446BOLB   C1A10685  13.930  15.230  30.580
  446BOLB   C2A10686  13.530  15.090  30.530
  446BOLB   C3A10687  13.230  15.080  30.340
  446BOLB   C4A10688  12.970  15.010  30.100
  446BOLB   C1B10689  14.040  14.730  30.690
  446BOLB   C2B10690  13.800  14.650  30.410
  446BOLB   C3B10691  13.580  14.220  30.420
  446BOLB   C4B10692  13.450  14.010  30.790
  446BOLB   NC210693  10.590  14.980  29.160
  446BOLB   PO210694  10.690  14.700  29.480
  446BOLB   GL310695  10.980  14.880  29.660
  446BOLB   GL410696  10.830  15.090  29.900
  446BOLB   C1C10697  11.420  15.040  29.580
  446BOLB   C2C10698  11.870  15.030  29.550
  446BOLB   C3C10699  12.310  14.910  29.760
  446BOLB   C4C10700  12.670  15.040  29.960
  446BOLB   C1D10701  11.250  15.260  29.960
  446BOLB   C2D10702  11.670  15.300  29.930
  446BOLB   C3D10703  12.080  15.250  30.110
  446BOLB   C4D10704  12.480  15.390  30.330
  447BOLB   NC110705  29.475   9.890  33.230
  447BOLB   PO110706  29.535   9.850  32.710
  447BOLB   GL110707  29.885   9.650  32.890
  447BOLB   GL210708  29.765   9.540  33.200
  447BOLB   C1A10709  30.265   9.750  32.940
  447BOLB   C2A10710  30.565   9.400  32.860
  447BOLB   C3A10711  31.005   9.160  32.670
  447BOLB   C4A10712  31.385   8.990  32.470
  447BOLB   C1B10713  30.135   9.250  33.040
  447BOLB   C2B10714  30.345   8.910  33.050
  447BOLB   C3B10715  30.665   8.850  32.960
  447BOLB   C4B10716  30.945   8.520  33.050
  447BOLB   NC210717  33.265   8.280  31.090
  447BOLB   PO210718  33.355   8.740  30.870
  447BOLB   GL310719  33.105   8.710  31.210
  447BOLB   GL410720  32.795   8.920  31.170
  447BOLB   C1C10721  32.665   8.560  31.490
  447BOLB   C2C10722  32.545   8.510  31.760
  447BOLB   C3C10723  32.085   8.680  31.890
  447BOLB   C4C10724  31.755   8.750  32.280
  447BOLB   C1D10725  32.445   8.990  31.450
  447BOLB   C2D10726  32.185   9.140  31.800
  447BOLB   C3D10727  31.785   9.110  31.980
  447BOLB   C4D10728  31.365   9.230  32.040
  448BOLB   NC110729  27.465  17.100  39.520
  448BOLB   PO110730  27.495  17.680  39.490
  448BOLB   GL110731  27.935  17.830  39.550
  448BOLB   GL210732  27.995  17.800  39.170
  448BOLB   C1A10733  28.345  18.020  39.740
  448BOLB   C2A10734  28.495  18.500  39.830
  448BOLB   C3A10735  28.525  18.860  40.030
  448BOLB   C4A10736  28.665  19.250  40.120
  448BOLB   C1B10737  28.375  18.060  39.290
  448BOLB   C2B10738  28.685  18.220  39.390
  448BOLB   C3B10739  29.055  17.990  39.320
  448BOLB   C4B10740  29.445  17.860  39.170
  448BOLB   NC210741  30.515  19.880  40.660
  448BOLB   PO210742  30.555  19.580  40.980
  448BOLB   GL310743  30.255  19.380  40.790
  448BOLB   GL410744  30.275  19.140  40.950
  448BOLB   C1C10745  29.815  19.540  40.670
  448BOLB   C2C10746  29.435  19.400  40.660
  448BOLB   C3C10747  29.125  19.640  40.690
  448BOLB   C4C10748  28.765  19.680  40.420
  448BOLB   C1D10749  30.005  18.920  40.900
  448BOLB   C2D10750  29.755  19.060  40.540
  448BOLB   C3D10751  29.695  19.230  40.230
  448BOLB   C4D10752  29.555  19.660  40.210
  449BOLB   NC110753  14.260  17.240  34.940
  449BOLB   PO110754  14.050  16.850  34.780
  449BOLB   GL110755  13.800  16.600  35.130
  449BOLB   GL210756  13.810  16.310  34.940
  449BOLB   C1A10757  13.920  16.300  35.510
  449BOLB   C2A10758  13.580  16.090  35.740
  449BOLB   C3A10759  13.160  16.120  35.920
  449BOLB   C4A10760  12.700  16.240  35.990
  449BOLB   C1B10761  13.480  16.260  35.240
  449BOLB   C2B10762  13.260  15.950  35.390
  449BOLB   C3B10763  12.870  15.860  35.600
  449BOLB   C4B10764  12.370  15.860  35.750
  449BOLB   NC210765  10.330  16.030  36.490
  449BOLB   PO210766  10.300  15.610  36.620
  449BOLB   GL310767  10.770  15.660  36.650
  449BOLB   GL410768  10.820  15.450  36.430
  449BOLB   C1C10769  11.210  15.710  36.490
  449BOLB   C2C10770  11.660  15.800  36.420
  449BOLB   C3C10771  12.060  15.860  36.280
  449BOLB   C4C10772  12.440  16.080  36.280
  449BOLB   C1D10773  11.280  15.280  36.260
  449BOLB   C2D10774  11.530  15.280  35.900
  449BOLB   C3D10775  11.630  15.000  35.550
  449BOLB   C4D10776  11.650  14.600  35.430
  450BOLB   NC110777  17.180  12.460  37.170
  450BOLB   PO110778  17.220  12.350  37.650
  450BOLB   GL110779  16.840  12.450  37.860
  450BOLB   GL210780  16.550  12.540  37.840
  450BOLB   C1A10781  16.630  12.170  38.220
  450BOLB   C2A10782  16.440  11.910  38.500
  450BOLB   C3A10783  16.270  11.580  38.820
  450BOLB   C4A10784  15.910  11.360  38.690
  450BOLB   C1B10785  16.410  12.170  37.730
  450BOLB   C2B10786  16.090  11.870  37.730
  450BOLB   C3B10787  15.890  11.480  37.660
  450BOLB   C4B10788  15.860  10.970  37.790
  450BOLB   NC210789  14.480   9.690  38.720
  450BOLB   PO210790  14.110   9.880  38.940
  450BOLB   GL310791  14.420  10.180  38.770
  450BOLB   GL410792  14.360  10.350  38.430
  450BOLB   C1C10793  14.660  10.580  38.890
  450BOLB   C2C10794  15.130  10.660  38.860
  450BOLB   C3C10795  15.330  10.930  38.760
  450BOLB   C4C10796  15.590  11.190  38.800
  450BOLB   C1D10797  14.630  10.510  38.340
  450BOLB   C2D10798  14.870  10.770  38.390
  450BOLB   C3D10799  15.180  10.840  38.250
  450BOLB   C4D10800  15.450  11.110  38.230
  451BOLB   NC110801  15.950  23.700  33.070
  451BOLB   PO110802  15.680  24.210  33.130
  451BOLB   GL110803  15.520  24.640  33.110
  451BOLB   GL210804  15.380  24.730  33.480
  451BOLB   C1A10805  15.560  25.100  32.780
  451BOLB   C2A10806  15.790  25.530  32.580
  451BOLB   C3A10807  15.820  26.060  32.430
  451BOLB   C4A10808  15.930  26.430  32.200
  451BOLB   C1B10809  15.140  25.020  33.570
  451BOLB   C2B10810  14.820  25.360  33.530
  451BOLB   C3B10811  14.870  25.800  33.570
  451BOLB   C4B10812  15.160  25.960  33.770
  451BOLB   NC210813  16.300   2.620  31.350
  451BOLB   PO210814  16.470   2.340  31.620
  451BOLB   GL310815  16.770   2.030  31.530
  451BOLB   GL410816  16.680   1.900  31.190
  451BOLB   C1C10817  16.740   1.600  31.690
  451BOLB   C2C10818  16.450   1.270  31.720
  451BOLB   C3C10819  16.250   0.830  31.870
  451BOLB   C4C10820  16.080   0.340  32.010
  451BOLB   C1D10821  16.680   1.460  31.140
  451BOLB   C2D10822  16.350   1.160  31.240
  451BOLB   C3D10823  16.190   0.780  31.260
  451BOLB   C4D10824  16.190   0.440  31.480
  452BOLB   NC110825  24.550  11.130  23.760
  452BOLB   PO110826  24.950  11.100  23.630
  452BOLB   GL110827  25.120  10.920  23.400
  452BOLB   GL210828  25.030  10.580  23.310
  452BOLB   C1A10829  25.470  10.790  23.240
  452BOLB   C2A10830  25.680  10.590  22.940
  452BOLB   C3A10831  26.020  10.230  23.120
  452BOLB   C4A10832  26.495   9.970  23.130
  452BOLB   C1B10833  25.200  10.300  23.010
  452BOLB   C2B10834  25.490  10.160  22.830
  452BOLB   C3B10835  25.830  10.070  22.650
  452BOLB   C4B10836  26.200  10.310  22.520
  452BOLB   NC210837  27.655   7.720  22.210
  452BOLB   PO210838  27.695   8.200  22.090
  452BOLB   GL310839  27.615   8.510  22.210
  452BOLB   GL410840  27.805   8.710  22.330
  452BOLB   C1C10841  27.215   8.810  22.370
  452BOLB   C2C10842  26.975   9.190  22.520
  452BOLB   C3C10843  26.695   9.250  22.880
  452BOLB   C4C10844  26.515   9.520  23.070
  452BOLB   C1D10845  27.795   9.110  22.330
  452BOLB   C2D10846  27.495   9.320  22.610
  452BOLB   C3D10847  27.185   9.520  22.780
  452BOLB   C4D10848  27.015   9.860  23.100
  453BOLB   NC110849  27.035  16.780  29.370
  453BOLB   PO110850  27.225  16.890  29.700
  453BOLB   GL110851  27.555  17.260  29.690
  453BOLB   GL210852  27.885  17.240  29.860
  453BOLB   C1A10853  27.505  17.630  29.590
  453BOLB   C2A10854  27.495  17.890  29.980
  453BOLB   C3A10855  27.545  18.350  29.990
  453BOLB   C4A10856  27.725  18.730  29.830
  453BOLB   C1B10857  27.945  17.630  29.820
  453BOLB   C2B10858  27.875  18.090  29.650
  453BOLB   C3B10859  27.605  18.150  29.430
  453BOLB   C4B10860  27.285  18.140  29.440
  453BOLB   NC210861  30.185  19.890  29.140
  453BOLB   PO210862  29.795  19.960  29.470
  453BOLB   GL310863  29.555  19.690  29.710
  453BOLB   GL410864  29.515  19.390  29.430
  453BOLB   C1C10865  29.355  19.310  29.890
  453BOLB   C2C10866  28.815  19.400  30.010
  453BOLB   C3C10867  28.325  19.370  30.040
  453BOLB   C4C10868  27.975  19.120  29.780
  453BOLB   C1D10869  29.635  18.820  29.330
  453BOLB   C2D10870  29.855  18.530  29.570
  453BOLB   C3D10871  29.835  18.140  29.570
  453BOLB   C4D10872  29.525  17.780  29.490
  454BOLB   NC110873  25.420   7.500  34.080
  454BOLB   PO110874  25.800   7.620  33.830
  454BOLB   GL110875  25.870   7.150  33.930
  454BOLB   GL210876  25.630   6.990  33.980
  454BOLB   C1A10877  26.060   6.790  33.870
  454BOLB   C2A10878  26.410   6.500  33.760
  454BOLB   C3A10879  26.725   6.230  33.870
  454BOLB   C4A10880  26.935   5.890  34.060
  454BOLB   C1B10881  25.770   6.560  34.230
  454BOLB   C2B10882  25.890   6.330  34.480
  454BOLB   C3B10883  26.070   5.850  34.510
  454BOLB   C4B10884  25.940   5.470  34.650
  454BOLB   NC210885  26.615   3.400  33.880
  454BOLB   PO210886  26.805   3.320  34.320
  454BOLB   GL310887  26.735   3.730  34.340
  454BOLB   GL410888  26.360   3.820  34.070
  454BOLB   C1C10889  26.665   4.230  34.110
  454BOLB   C2C10890  26.985   4.500  33.940
  454BOLB   C3C10891  26.925   5.030  33.930
  454BOLB   C4C10892  26.945   5.470  34.120
  454BOLB   C1D10893  26.160   4.280  33.930
  454BOLB   C2D10894  26.010   4.640  34.160
  454BOLB   C3D10895  26.090   5.040  34.400
  454BOLB   C4D10896  26.495   5.280  34.370
  455BOLB   NC110897  24.110   0.280  32.330
  455BOLB   PO110898  23.690   0.490  32.330
  455BOLB   GL110899  23.680   0.090  32.570
  455BOLB   GL210900  23.620  26.390  32.950
  455BOLB   C1A10901  23.500  26.130  32.570
  455BOLB   C2A10902  23.170  25.830  32.590
  455BOLB   C3A10903  23.240  25.430  32.820
  455BOLB   C4A10904  23.660  25.120  32.770
  455BOLB   C1B10905  23.690  25.890  33.030
  455BOLB   C2B10906  23.530  25.480  33.160
  455BOLB   C3B10907  23.340  25.250  33.340
  455BOLB   C4B10908  23.160  25.040  33.670
  455BOLB   NC210909  24.900  26.090  31.510
  455BOLB   PO210910  25.290  25.980  31.610
  455BOLB   GL310911  25.060  25.620  31.710
  455BOLB   GL410912  24.980  25.660  31.310
  455BOLB   C1C10913  24.900  25.200  31.850
  455BOLB   C2C10914  24.710  25.040  32.180
  455BOLB   C3C10915  24.260  25.030  32.220
  455BOLB   C4C10916  23.890  24.930  32.520
  455BOLB   C1D10917  24.580  25.440  31.550
  455BOLB   C2D10918  24.290  25.250  31.740
  455BOLB   C3D10919  24.000  24.890  31.530
  455BOLB   C4D10920  23.650  24.660  31.300
  456BOLB   NC110921  26.895  10.490  25.670
  456BOLB   PO110922  26.655  10.840  25.330
  456BOLB   GL110923  27.045  10.670  25.180
  456BOLB   GL210924  27.265  10.790  25.000
  456BOLB   C1A10925  27.375  10.340  25.100
  456BOLB   C2A10926  27.395   9.850  25.110
  456BOLB   C3A10927  27.695   9.570  24.840
  456BOLB   C4A10928  28.005   9.160  24.790
  456BOLB   C1B10929  27.755  10.650  24.750
  456BOLB   C2B10930  28.105  10.430  24.580
  456BOLB   C3B10931  28.225  10.170  24.410
  456BOLB   C4B10932  28.015   9.960  24.060
  456BOLB   NC210933  29.005   7.060  23.770
  456BOLB   PO210934  29.395   7.120  23.880
  456BOLB   GL310935  29.015   7.320  24.170
  456BOLB   GL410936  28.965   7.200  24.470
  456BOLB   C1C10937  28.845   7.660  24.440
  456BOLB   C2C10938  28.605   7.970  24.570
  456BOLB   C3C10939  28.575   8.360  24.570
  456BOLB   C4C10940  28.255   8.730  24.640
  456BOLB   C1D10941  28.705   7.450  24.850
  456BOLB   C2D10942  28.545   7.730  25.110
  456BOLB   C3D10943  28.145   7.900  25.300
  456BOLB   C4D10944  27.905   8.250  25.360
  457BOLB   NC110945  29.195  13.030  28.280
  457BOLB   PO110946  29.145  13.330  28.030
  457BOLB   GL110947  29.595  13.320  28.090
  457BOLB   GL210948  29.595  12.940  28.010
  457BOLB   C1A10949  30.045  13.530  28.200
  457BOLB   C2A10950  30.415  13.690  28.030
  457BOLB   C3A10951  30.675  14.030  28.140
  457BOLB   C4A10952  30.845  14.330  27.870
  457BOLB   C1B10953  29.875  12.790  27.710
  457BOLB   C2B10954  30.215  12.720  27.560
  457BOLB   C3B10955  30.665  13.050  27.520
  457BOLB   C4B10956  30.845  13.350  27.340
  457BOLB   NC210957  33.475  14.570  28.310
  457BOLB   PO210958  33.095  14.590  27.980
  457BOLB   GL310959  32.755  14.660  28.300
  457BOLB   GL410960  32.975  14.680  28.550
  457BOLB   C1C10961  32.445  14.980  28.380
  457BOLB   C2C10962  32.075  15.020  28.280
  457BOLB   C3C10963  31.785  14.690  28.050
  457BOLB   C4C10964  31.285  14.580  28.030
  457BOLB   C1D10965  32.645  14.530  28.840
  457BOLB   C2D10966  32.405  14.460  29.170
  457BOLB   C3D10967  32.135  14.120  29.350
  457BOLB   C4D10968  32.005  14.040  29.750
  458BOLB   NC110969  26.495  12.260  18.630
  458BOLB   PO110970  26.290  12.620  18.550
  458BOLB   GL110971  26.120  12.530  18.990
  458BOLB   GL210972  26.455  12.400  19.140
  458BOLB   C1A10973  25.820  12.480  19.260
  458BOLB   C2A10974  25.780  12.460  19.660
  458BOLB   C3A10975  25.820  12.770  19.940
  458BOLB   C4A10976  25.740  13.240  19.980
  458BOLB   C1B10977  26.160  12.730  19.510
  458BOLB   C2B10978  25.930  13.120  19.550
  458BOLB   C3B10979  25.730  13.400  19.280
  458BOLB   C4B10980  25.510  13.720  19.100
  458BOLB   NC210981  26.575  13.260  18.150
  458BOLB   PO210982  26.795  13.050  18.480
  458BOLB   GL310983  26.795  13.420  18.750
  458BOLB   GL410984  26.765  13.300  19.050
  458BOLB   C1C10985  26.625  13.810  18.940
  458BOLB   C2C10986  26.465  13.880  19.280
  458BOLB   C3C10987  26.290  13.790  19.600
  458BOLB   C4C10988  25.960  13.580  19.870
  458BOLB   C1D10989  26.735  13.310  19.400
  458BOLB   C2D10990  26.445  13.100  19.690
  458BOLB   C3D10991  26.210  13.250  20.100
  458BOLB   C4D10992  26.140  13.560  20.410
  459BOLB   NC110993  27.135   7.740  33.880
  459BOLB   PO110994  27.205   7.840  33.470
  459BOLB   GL110995  27.435   7.590  33.280
  459BOLB   GL210996  27.755   7.710  33.350
  459BOLB   C1A10997  27.575   7.130  33.330
  459BOLB   C2A10998  27.815   6.820  33.530
  459BOLB   C3A10999  28.285   6.650  33.420
  459BOLB   C4A11000  28.765   6.670  33.490
  459BOLB   C1B11001  27.965   7.340  33.190
  459BOLB   C2B11002  28.395   7.040  33.170
  459BOLB   C3B11003  28.645   6.680  33.050
  459BOLB   C4B11004  28.695   6.400  32.710
  459BOLB   NC211005  30.245   5.020  34.000
  459BOLB   PO211006  30.445   4.970  33.630
  459BOLB   GL311007  30.235   5.270  33.450
  459BOLB   GL411008  30.025   5.380  33.740
  459BOLB   C1C11009  29.765   5.290  33.240
  459BOLB   C2C11010  29.545   5.670  33.140
  459BOLB   C3C11011  29.255   5.970  33.290
  459BOLB   C4C11012  29.085   6.390  33.370
  459BOLB   C1D11013  30.245   5.740  33.870
  459BOLB   C2D11014  30.255   6.100  33.590
  459BOLB   C3D11015  30.145   6.230  33.220
  459BOLB   C4D11016  29.945   6.280  32.780
  460BOLB   NC111017  20.270  22.010  24.840
  460BOLB   PO111018  19.870  22.180  24.420
  460BOLB   GL111019  19.960  22.510  24.230
  460BOLB   GL211020  20.060  22.780  24.440
  460BOLB   C1A11021  19.840  22.900  23.970
  460BOLB   C2A11022  19.810  23.010  23.570
  460BOLB   C3A11023  19.810  23.300  23.340
  460BOLB   C4A11024  19.990  23.450  22.970
  460BOLB   C1B11025  20.060  23.240  24.230
  460BOLB   C2B11026  19.940  23.710  24.150
  460BOLB   C3B11027  20.030  23.790  23.760
  460BOLB   C4B11028  19.910  24.100  23.480
  460BOLB   NC211029  20.760  25.220  20.900
  460BOLB   PO211030  20.940  24.750  21.120
  460BOLB   GL311031  20.780  24.570  21.550
  460BOLB   GL411032  21.080  24.530  21.820
  460BOLB   C1C11033  20.610  24.510  21.940
  460BOLB   C2C11034  20.380  24.130  22.010
  460BOLB   C3C11035  20.410  23.800  22.220
  460BOLB   C4C11036  20.400  23.540  22.610
  460BOLB   C1D11037  20.860  24.110  21.720
  460BOLB   C2D11038  20.690  23.710  21.820
  460BOLB   C3D11039  20.510  23.310  22.050
  460BOLB   C4D11040  20.590  22.880  21.820
  461BOLB   NC111041  15.000  16.220  26.670
  461BOLB   PO111042  14.760  16.440  26.410
  461BOLB   GL111043  14.420  16.430  26.210
  461BOLB   GL211044  14.260  16.370  26.450
  461BOLB   C1A11045  14.030  16.300  26.060
  461BOLB   C2A11046  13.680  16.320  25.670
  461BOLB   C3A11047  13.190  16.240  25.530
  461BOLB   C4A11048  12.840  16.170  25.360
  461BOLB   C1B11049  13.990  16.070  26.560
  461BOLB   C2B11050  13.620  15.860  26.520
  461BOLB   C3B11051  13.200  15.670  26.530
  461BOLB   C4B11052  12.730  15.630  26.520
  461BOLB   NC211053  11.580  15.870  23.650
  461BOLB   PO211054  11.660  15.980  24.140
  461BOLB   GL311055  12.070  15.920  23.970
  461BOLB   GL411056  11.990  16.220  23.680
  461BOLB   C1C11057  12.250  15.700  24.230
  461BOLB   C2C11058  12.100  15.710  24.620
  461BOLB   C3C11059  12.170  15.860  25.080
  461BOLB   C4C11060  12.400  16.040  25.340
  461BOLB   C1D11061  12.120  16.640  23.720
  461BOLB   C2D11062  12.400  17.070  23.710
  461BOLB   C3D11063  12.690  17.150  23.380
  461BOLB   C4D11064  12.700  17.010  22.920
  462BOLB   NC111065  29.475  12.510  34.780
  462BOLB   PO111066  29.755  12.730  35.070
  462BOLB   GL111067  30.075  12.860  35.300
  462BOLB   GL211068  30.095  12.990  35.700
  462BOLB   C1A11069  30.475  12.780  35.450
  462BOLB   C2A11070  30.825  13.020  35.550
  462BOLB   C3A11071  31.235  13.020  35.460
  462BOLB   C4A11072  31.475  13.310  35.800
  462BOLB   C1B11073  30.405  13.180  35.910
  462BOLB   C2B11074  30.675  13.410  35.860
  462BOLB   C3B11075  30.985  13.560  36.100
  462BOLB   C4B11076  31.325  13.630  36.250
  462BOLB   NC211077  33.515  13.700  35.270
  462BOLB   PO211078  33.655  13.680  35.760
  462BOLB   GL311079  33.325  13.640  35.950
  462BOLB   GL411080  33.335  13.430  36.100
  462BOLB   C1C11081  32.955  13.880  36.130
  462BOLB   C2C11082  32.535  13.720  36.190
  462BOLB   C3C11083  32.065  13.620  36.140
  462BOLB   C4C11084  31.755  13.480  35.980
  462BOLB   C1D11085  33.085  13.550  36.450
  462BOLB   C2D11086  32.805  13.650  36.770
  462BOLB   C3D11087  32.465  13.450  36.890
  462BOLB   C4D11088  32.185  13.390  37.270
  463BOLB   NC111089  19.960  24.410  36.260
  463BOLB   PO111090  19.720  24.110  36.400
  463BOLB   GL111091  19.600  24.600  36.490
  463BOLB   GL211092  19.700  24.800  36.290
  463BOLB   C1A11093  19.600  25.060  36.700
  463BOLB   C2A11094  19.550  25.640  36.780
  463BOLB   C3A11095  19.610  26.020  36.900
  463BOLB   C4A11096  19.190  26.330  36.950
  463BOLB   C1B11097  19.900  25.170  36.290
  463BOLB   C2B11098  20.020  25.470  36.630
  463BOLB   C3B11099  19.990  25.730  37.020
  463BOLB   C4B11100  19.710  25.320  37.110
  463BOLB   NC211101  19.530   2.110  37.540
  463BOLB   PO211102  19.960   2.140  37.620
  463BOLB   GL311103  19.940   1.770  37.340
  463BOLB   GL411104  19.730   1.520  37.480
  463BOLB   C1C11105  19.910   1.350  37.060
  463BOLB   C2C11106  19.700   0.940  37.120
  463BOLB   C3C11107  19.460   0.530  36.880
  463BOLB   C4C11108  19.240   0.350  37.090
  463BOLB   C1D11109  20.170   1.250  37.560
  463BOLB   C2D11110  20.500   1.130  37.260
  463BOLB   C3D11111  20.680   0.800  36.990
  463BOLB   C4D11112  20.780   0.400  37.060
  464BOLB   NC111113  21.300  21.880  41.100
  464BOLB   PO111114  21.580  22.050  41.060
  464BOLB   GL111115  21.650  22.360  41.240
  464BOLB   GL211116  21.680  22.710  41.110
  464BOLB   C1A11117  21.840  22.500  41.600
  464BOLB   C2A11118  21.790  22.670  41.910
  464BOLB   C3A11119  21.770  23.150  42.030
  464BOLB   C4A11120  21.820  23.530  41.650
  464BOLB   C1B11121  21.880  23.020  41.050
  464BOLB   C2B11122  22.000  23.460  41.090
  464BOLB   C3B11123  22.280  23.640  41.290
  464BOLB   C4B11124  22.510  24.010  41.440
  464BOLB   NC211125  22.690  25.930  42.120
  464BOLB   PO211126  22.540  25.500  41.980
  464BOLB   GL311127  22.370  25.110  41.840
  464BOLB   GL411128  22.430  25.090  41.500
  464BOLB   C1C11129  22.170  24.710  41.670
  464BOLB   C2C11130  21.830  24.560  41.510
  464BOLB   C3C11131  21.480  24.360  41.640
  464BOLB   C4C11132  21.620  23.910  41.610
  464BOLB   C1D11133  22.100  24.890  41.210
  464BOLB   C2D11134  21.930  24.560  40.890
  464BOLB   C3D11135  21.700  24.310  40.540
  464BOLB   C4D11136  21.310  24.430  40.300
  465BOLB   NC111137  27.575  16.230  31.530
  465BOLB   PO111138  27.875  16.390  31.330
  465BOLB   GL111139  27.975  16.850  31.300
  465BOLB   GL211140  28.015  17.130  31.560
  465BOLB   C1A11141  28.335  17.100  31.140
  465BOLB   C2A11142  28.735  17.400  31.040
  465BOLB   C3A11143  29.095  17.360  31.320
  465BOLB   C4A11144  29.545  17.320  31.460
  465BOLB   C1B11145  28.445  17.300  31.580
  465BOLB   C2B11146  28.735  17.620  31.550
  465BOLB   C3B11147  29.105  17.800  31.720
  465BOLB   C4B11148  29.215  17.820  32.160
  465BOLB   NC211149  30.805  19.120  30.950
  465BOLB   PO211150  30.785  18.890  30.560
  465BOLB   GL311151  30.445  18.560  30.370
  465BOLB   GL411152  30.715  18.320  30.550
  465BOLB   C1C11153  30.215  18.190  30.380
  465BOLB   C2C11154  29.975  17.740  30.510
  465BOLB   C3C11155  29.785  17.760  30.870
  465BOLB   C4C11156  29.825  17.420  31.110
  465BOLB   C1D11157  30.475  18.380  30.870
  465BOLB   C2D11158  30.035  18.390  30.890
  465BOLB   C3D11159  29.735  18.170  31.130
  465BOLB   C4D11160  29.445  17.780  31.300
  466BOLB   NC111161  13.340  18.810  30.800
  466BOLB   PO111162  13.300  19.220  30.580
  466BOLB   GL111163  12.910  19.140  30.870
  466BOLB   GL211164  12.890  19.000  31.090
  466BOLB   C1A11165  12.600  19.400  31.110
  466BOLB   C2A11166  12.190  19.430  31.090
  466BOLB   C3A11167  11.860  19.430  31.230
  466BOLB   C4A11168  11.480  19.180  31.170
  466BOLB   C1B11169  12.410  18.920  30.980
  466BOLB   C2B11170  11.980  18.950  30.840
  466BOLB   C3B11171  11.650  18.780  30.450
  466BOLB   C4B11172  11.350  18.870  30.230
  466BOLB   NC211173   8.920  18.470  31.230
  466BOLB   PO211174   9.150  18.180  31.140
  466BOLB   GL311175   9.540  18.260  31.390
  466BOLB   GL411176   9.670  18.550  31.270
  466BOLB   C1C11177  10.050  18.270  31.460
  466BOLB   C2C11178  10.330  18.510  31.220
  466BOLB   C3C11179  10.740  18.710  31.180
  466BOLB   C4C11180  11.120  19.000  31.380
  466BOLB   C1D11181   9.970  18.730  31.000
  466BOLB   C2D11182  10.270  18.990  30.910
  466BOLB   C3D11183  10.820  19.120  30.900
  466BOLB   C4D11184  11.120  19.460  30.890
  467BOLB   NC111185  28.815  13.890  36.500
  467BOLB   PO111186  29.255  13.970  36.290
  467BOLB   GL111187  29.665  14.150  36.440
  467BOLB   GL211188  29.805  13.990  36.520
  467BOLB   C1A11189  30.125  14.410  36.410
  467BOLB   C2A11190  30.475  14.330  36.680
  467BOLB   C3A11191  30.745  14.520  36.870
  467BOLB   C4A11192  31.185  14.670  36.620
  467BOLB   C1B11193  30.195  13.940  36.640
  467BOLB   C2B11194  30.345  14.090  37.090
  467BOLB   C3B11195  30.365  14.100  37.650
  467BOLB   C4B11196  30.745  14.030  37.940
  467BOLB   NC211197  32.935  15.310  37.780
  467BOLB   PO211198  32.895  14.980  38.140
  467BOLB   GL311199  32.555  15.030  37.870
  467BOLB   GL411200  32.345  15.180  38.090
  467BOLB   C1C11201  32.395  14.890  37.510
  467BOLB   C2C11202  32.135  14.780  37.110
  467BOLB   C3C11203  31.975  14.780  36.750
  467BOLB   C4C11204  31.545  14.830  36.580
  467BOLB   C1D11205  32.125  15.050  38.480
  467BOLB   C2D11206  31.815  14.790  38.540
  467BOLB   C3D11207  31.465  14.530  38.570
  467BOLB   C4D11208  31.175  14.570  38.770
  468BOLB   NC111209  27.275  15.130  40.830
  468BOLB   PO111210  26.995  15.220  41.170
  468BOLB   GL111211  27.225  15.220  41.440
  468BOLB   GL211212  27.405  15.030  41.320
  468BOLB   C1A11213  27.405  15.100  41.810
  468BOLB   C2A11214  27.545  14.810  42.150
  468BOLB   C3A11215  27.635  14.560  42.420
  468BOLB   C4A11216  27.725  14.170  42.580
  468BOLB   C1B11217  27.745  15.100  41.430
  468BOLB   C2B11218  27.985  15.120  41.900
  468BOLB   C3B11219  28.255  15.250  42.240
  468BOLB   C4B11220  28.475  15.530  42.580
  468BOLB   NC211221  28.915  13.040  43.970
  468BOLB   PO211222  28.985  12.620  43.750
  468BOLB   GL311223  28.455  12.720  43.720
  468BOLB   GL411224  28.425  13.170  43.760
  468BOLB   C1C11225  28.055  12.750  43.580
  468BOLB   C2C11226  27.905  13.090  43.370
  468BOLB   C3C11227  27.825  13.510  43.050
  468BOLB   C4C11228  27.725  13.940  42.910
  468BOLB   C1D11229  28.355  13.430  43.370
  468BOLB   C2D11230  28.235  13.320  42.990
  468BOLB   C3D11231  28.045  13.040  42.830
  468BOLB   C4D11232  27.775  12.750  42.610
  469BOLB   NC111233  27.765  17.600  37.590
  469BOLB   PO111234  27.955  17.230  37.770
  469BOLB   GL111235  28.235  17.480  37.900
  469BOLB   GL211236  28.305  17.530  38.320
  469BOLB   C1A11237  28.515  17.890  37.950
  469BOLB   C2A11238  28.745  18.080  37.800
  469BOLB   C3A11239  29.145  18.290  37.710
  469BOLB   C4A11240  29.215  18.750  37.650
  469BOLB   C1B11241  28.695  17.780  38.400
  469BOLB   C2B11242  28.805  18.200  38.340
  469BOLB   C3B11243  29.185  18.370  38.170
  469BOLB   C4B11244  29.555  18.630  38.020
  469BOLB   NC211245  31.135  20.000  37.970
  469BOLB   PO211246  31.175  19.510  37.770
  469BOLB   GL311247  30.905  19.290  37.970
  469BOLB   GL411248  30.585  19.300  37.790
  469BOLB   C1C11249  30.675  19.130  38.280
  469BOLB   C2C11250  30.195  19.220  38.250
  469BOLB   C3C11251  29.775  19.120  38.100
  469BOLB   C4C11252  29.445  19.080  37.770
  469BOLB   C1D11253  30.555  18.820  37.930
  469BOLB   C2D11254  30.335  18.680  38.120
  469BOLB   C3D11255  30.325  18.230  38.180
  469BOLB   C4D11256  30.445  17.920  37.890
  470BOLB   NC111257  19.800  13.460  23.460
  470BOLB   PO111258  19.410  13.360  23.490
  470BOLB   GL111259  19.020  13.370  23.210
  470BOLB   GL211260  19.140  13.370  22.900
  470BOLB   C1A11261  18.830  12.920  22.950
  470BOLB   C2A11262  18.580  12.840  22.620
  470BOLB   C3A11263  18.270  12.390  22.560
  470BOLB   C4A11264  17.900  12.070  22.440
  470BOLB   C1B11265  18.950  13.220  22.570
  470BOLB   C2B11266  18.620  13.110  22.180
  470BOLB   C3B11267  18.390  12.960  21.900
  470BOLB   C4B11268  18.490  12.650  21.670
  470BOLB   NC211269  15.750  11.370  20.860
  470BOLB   PO211270  16.140  11.480  20.720
  470BOLB   GL311271  16.390  11.830  21.070
  470BOLB   GL411272  16.490  12.190  21.120
  470BOLB   C1C11273  16.820  11.760  21.180
  470BOLB   C2C11274  16.900  11.670  21.600
  470BOLB   C3C11275  17.260  11.800  21.830
  470BOLB   C4C11276  17.520  11.930  22.210
  470BOLB   C1D11277  16.440  12.360  21.420
  470BOLB   C2D11278  16.190  12.620  21.740
  470BOLB   C3D11279  15.790  12.370  21.930
  470BOLB   C4D11280  15.650  12.080  22.130
  471BOLB   NC111281  27.115   8.260  36.130
  471BOLB   PO111282  27.475   8.420  35.950
  471BOLB   GL111283  27.815   8.210  35.860
  471BOLB   GL211284  27.775   7.950  35.640
  471BOLB   C1A11285  28.045   7.920  36.030
  471BOLB   C2A11286  28.115   7.590  36.310
  471BOLB   C3A11287  28.265   7.200  36.470
  471BOLB   C4A11288  28.455   6.920  36.510
  471BOLB   C1B11289  27.975   7.560  35.600
  471BOLB   C2B11290  28.115   7.280  35.320
  471BOLB   C3B11291  28.075   6.900  35.480
  471BOLB   C4B11292  27.955   6.560  35.810
  471BOLB   NC211293  29.675   5.310  36.930
  471BOLB   PO211294  30.215   5.330  37.090
  471BOLB   GL311295  30.125   5.700  37.070
  471BOLB   GL411296  30.225   5.760  36.700
  471BOLB   C1C11297  29.765   5.970  37.060
  471BOLB   C2C11298  29.455   6.280  36.940
  471BOLB   C3C11299  29.055   6.430  36.730
  471BOLB   C4C11300  28.655   6.600  36.730
  471BOLB   C1D11301  30.015   6.210  36.730
  471BOLB   C2D11302  29.745   6.610  36.610
  471BOLB   C3D11303  29.535   6.990  36.480
  471BOLB   C4D11304  29.455   7.400  36.650
  472BOLB   NC111305  26.585  18.860  37.230
  472BOLB   PO111306  26.440  19.320  37.440
  472BOLB   GL111307  26.795  19.640  37.440
  472BOLB   GL211308  26.875  19.640  37.180
  472BOLB   C1A11309  27.195  19.700  37.680
  472BOLB   C2A11310  27.335  19.960  37.920
  472BOLB   C3A11311  27.615  20.430  38.000
  472BOLB   C4A11312  27.855  20.760  37.950
  472BOLB   C1B11313  27.295  19.870  37.250
  472BOLB   C2B11314  27.565  20.150  37.570
  472BOLB   C3B11315  27.925  20.270  37.390
  472BOLB   C4B11316  28.185  20.590  37.150
  472BOLB   NC211317  29.715  22.140  38.220
  472BOLB   PO211318  29.905  21.720  38.350
  472BOLB   GL311319  29.425  21.700  38.390
  472BOLB   GL411320  29.225  21.930  38.180
  472BOLB   C1C11321  29.295  21.390  38.690
  472BOLB   C2C11322  28.985  21.220  38.490
  472BOLB   C3C11323  28.515  21.160  38.270
  472BOLB   C4C11324  28.175  21.080  38.000
  472BOLB   C1D11325  28.825  21.710  38.330
  472BOLB   C2D11326  28.415  21.550  38.610
  472BOLB   C3D11327  27.945  21.740  38.690
  472BOLB   C4D11328  27.605  22.060  38.760
  473BOLB   NC111329  25.970   7.500  30.380
  473BOLB   PO111330  25.540   7.430  30.450
  473BOLB   GL111331  25.520   7.050  30.520
  473BOLB   GL211332  25.570   6.890  30.810
  473BOLB   C1A11333  25.310   6.580  30.600
  473BOLB   C2A11334  25.170   6.140  30.510
  473BOLB   C3A11335  25.180   5.640  30.520
  473BOLB   C4A11336  25.410   5.270  30.460
  473BOLB   C1B11337  25.770   6.600  31.100
  473BOLB   C2B11338  25.950   6.180  31.260
  473BOLB   C3B11339  26.060   5.880  30.890
  473BOLB   C4B11340  25.680   5.650  30.640
  473BOLB   NC211341  26.440   3.130  29.420
  473BOLB   PO211342  26.010   3.350  29.400
  473BOLB   GL311343  26.270   3.650  29.370
  473BOLB   GL411344  26.220   3.790  29.140
  473BOLB   C1C11345  26.230   4.140  29.410
  473BOLB   C2C11346  26.060   4.530  29.640
  473BOLB   C3C11347  25.820   4.790  29.960
  473BOLB   C4C11348  25.550   5.010  30.250
  473BOLB   C1D11349  25.860   4.160  29.100
  473BOLB   C2D11350  25.530   4.400  29.180
  473BOLB   C3D11351  25.550   4.630  29.560
  473BOLB   C4D11352  25.480   5.060  29.770
  474BOLB   NC111353  23.430  14.880  47.410
  474BOLB   PO111354  23.150  14.870  47.710
  474BOLB   GL111355  22.970  14.880  47.280
  474BOLB   GL211356  22.680  15.080  47.190
  474BOLB   C1A11357  22.910  14.670  46.900
  474BOLB   C2A11358  22.610  14.500  46.580
  474BOLB   C3A11359  22.630  14.570  46.140
  474BOLB   C4A11360  22.690  14.510  45.690
  474BOLB   C1B11361  22.910  15.130  46.840
  474BOLB   C2B11362  23.190  14.990  46.520
  474BOLB   C3B11363  23.080  14.680  46.230
  474BOLB   C4B11364  23.090  14.450  45.980
  474BOLB   NC211365  23.690  13.650  46.930
  474BOLB   PO211366  23.840  14.100  47.050
  474BOLB   GL311367  23.920  14.310  46.620
  474BOLB   GL411368  23.670  14.060  46.580
  474BOLB   C1C11369  23.950  14.450  46.200
  474BOLB   C2C11370  23.720  14.450  45.790
  474BOLB   C3C11371  23.460  14.550  45.420
  474BOLB   C4C11372  23.070  14.710  45.410
  474BOLB   C1D11373  23.890  13.970  46.260
  474BOLB   C2D11374  23.870  13.890  45.790
  474BOLB   C3D11375  24.040  13.820  45.530
  474BOLB   C4D11376  24.290  14.120  45.270
  475BOLB   NC111377  22.130   1.470  30.860
  475BOLB   PO111378  21.920   1.350  31.200
  475BOLB   GL111379  21.790   0.970  31.130
  475BOLB   GL211380  21.890   0.790  31.380
  475BOLB   C1A11381  21.460   0.740  31.080
  475BOLB   C2A11382  21.380   0.470  31.520
  475BOLB   C3A11383  21.440   0.030  31.430
  475BOLB   C4A11384  21.810  26.360  31.410
  475BOLB   C1B11385  22.360   0.740  31.500
  475BOLB   C2B11386  22.540   0.370  31.700
  475BOLB   C3B11387  22.680   0.140  31.450
  475BOLB   C4B11388  22.570   0.030  31.020
  475BOLB   NC211389  23.780   0.950  32.410
  475BOLB   PO211390  23.260   1.050  32.400
  475BOLB   GL311391  23.150   0.600  32.330
  475BOLB   GL411392  23.260   0.360  32.500
  475BOLB   C1C11393  22.850   0.330  32.130
  475BOLB   C2C11394  22.910  26.310  31.880
  475BOLB   C3C11395  22.490  26.160  31.740
  475BOLB   C4C11396  22.220  26.390  31.600
  475BOLB   C1D11397  23.060  26.320  32.420
  475BOLB   C2D11398  22.700  25.930  32.560
  475BOLB   C3D11399  22.470  25.600  32.480
  475BOLB   C4D11400  22.290  25.240  32.530
  476BOLB   NC111401  20.360  22.460  25.680
  476BOLB   PO111402  20.550  22.760  25.890
  476BOLB   GL111403  20.870  22.910  25.740
  476BOLB   GL211404  20.840  23.140  25.450
  476BOLB   C1A11405  21.170  23.220  25.790
  476BOLB   C2A11406  21.510  23.600  25.830
  476BOLB   C3A11407  21.930  23.610  25.890
  476BOLB   C4A11408  22.260  23.660  25.600
  476BOLB   C1B11409  20.890  23.540  25.450
  476BOLB   C2B11410  21.010  23.920  25.210
  476BOLB   C3B11411  20.950  24.300  25.090
  476BOLB   C4B11412  21.070  24.640  24.790
  476BOLB   NC211413  24.360  25.360  25.740
  476BOLB   PO211414  24.100  25.520  26.110
  476BOLB   GL311415  23.910  25.140  26.070
  476BOLB   GL411416  24.100  24.890  25.900
  476BOLB   C1C11417  23.510  24.860  25.810
  476BOLB   C2C11418  23.230  24.530  25.860
  476BOLB   C3C11419  22.950  24.210  25.800
  476BOLB   C4C11420  22.700  23.730  25.760
  476BOLB   C1D11421  23.780  24.620  26.180
  476BOLB   C2D11422  23.480  24.240  26.320
  476BOLB   C3D11423  23.060  24.070  26.300
  476BOLB   C4D11424  22.880  23.900  26.150
  477BOLB   NC111425   9.930  16.060  34.720
  477BOLB   PO111426  10.180  15.680  34.540
  477BOLB   GL111427  10.570  15.750  34.570
  477BOLB   GL211428  10.600  15.310  34.440
  477BOLB   C1A11429  10.940  15.980  34.460
  477BOLB   C2A11430  11.290  16.180  34.490
  477BOLB   C3A11431  11.730  16.370  34.460
  477BOLB   C4A11432  12.140  16.260  34.600
  477BOLB   C1B11433  11.000  15.480  34.380
  477BOLB   C2B11434  11.360  15.640  34.250
  477BOLB   C3B11435  11.830  15.510  34.040
  477BOLB   C4B11436  12.140  15.420  33.810
  477BOLB   NC211437   9.970  14.960  35.630
  477BOLB   PO211438  10.230  14.610  35.480
  477BOLB   GL311439  10.690  14.750  35.270
  477BOLB   GL411440  10.700  14.980  35.420
  477BOLB   C1C11441  11.210  14.930  35.300
  477BOLB   C2C11442  11.580  15.230  35.070
  477BOLB   C3C11443  11.770  15.640  35.140
  477BOLB   C4C11444  12.090  16.040  35.000
  477BOLB   C1D11445  10.680  15.410  35.440
  477BOLB   C2D11446  10.970  15.820  35.530
  477BOLB   C3D11447  11.150  16.180  35.590
  477BOLB   C4D11448  11.230  16.670  35.560
  478BOLB   NC111449  16.460  12.190  35.810
  478BOLB   PO111450  16.820  11.970  36.030
  478BOLB   GL111451  16.530  11.700  35.960
  478BOLB   GL211452  16.690  11.530  36.150
  478BOLB   C1A11453  16.210  11.360  35.890
  478BOLB   C2A11454  15.820  11.180  35.980
  478BOLB   C3A11455  15.420  11.370  35.810
  478BOLB   C4A11456  15.000  11.570  35.550
  478BOLB   C1B11457  16.510  11.080  36.150
  478BOLB   C2B11458  16.400  10.900  36.490
  478BOLB   C3B11459  16.350  10.880  36.870
  478BOLB   C4B11460  16.330  10.590  37.210
  478BOLB   NC211461  13.140  10.300  36.790
  478BOLB   PO211462  13.240  10.220  36.280
  478BOLB   GL311463  13.450  10.410  36.020
  478BOLB   GL411464  13.350  10.450  35.700
  478BOLB   C1C11465  13.710  10.700  36.040
  478BOLB   C2C11466  14.000  10.960  35.840
  478BOLB   C3C11467  14.170  11.370  35.800
  478BOLB   C4C11468  14.480  11.570  35.540
  478BOLB   C1D11469  13.510  10.820  35.630
  478BOLB   C2D11470  13.660  11.220  35.490
  478BOLB   C3D11471  13.960  11.400  35.360
  478BOLB   C4D11472  14.330  11.590  35.090
  479BOLB   NC111473  26.060  15.120  23.800
  479BOLB   PO111474  26.495  14.830  23.710
  479BOLB   GL111475  26.695  14.870  23.310
  479BOLB   GL211476  26.925  15.200  23.240
  479BOLB   C1A11477  26.815  14.650  22.940
  479BOLB   C2A11478  26.975  14.450  22.720
  479BOLB   C3A11479  27.225  14.350  22.360
  479BOLB   C4A11480  27.365  14.160  22.040
  479BOLB   C1B11481  27.265  15.050  22.990
  479BOLB   C2B11482  27.245  14.840  22.590
  479BOLB   C3B11483  27.305  14.870  22.180
  479BOLB   C4B11484  27.155  14.640  21.920
  479BOLB   NC211485  28.915  12.550  20.350
  479BOLB   PO211486  28.515  12.770  20.420
  479BOLB   GL311487  28.335  13.000  20.670
  479BOLB   GL411488  28.035  12.970  20.550
  479BOLB   C1C11489  28.165  13.270  21.000
  479BOLB   C2C11490  27.825  13.340  21.250
  479BOLB   C3C11491  27.765  13.720  21.370
  479BOLB   C4C11492  27.585  13.890  21.670
  479BOLB   C1D11493  27.555  13.080  20.730
  479BOLB   C2D11494  27.455  12.700  20.940
  479BOLB   C3D11495  27.145  12.510  21.100
  479BOLB   C4D11496  26.915  12.370  21.310
  480BOLB   NC111497  22.960   7.770  33.520
  480BOLB   PO111498  23.310   7.570  33.740
  480BOLB   GL111499  22.980   7.470  34.050
  480BOLB   GL211500  22.690   7.330  33.830
  480BOLB   C1A11501  22.820   7.130  34.280
  480BOLB   C2A11502  22.760   6.730  34.350
  480BOLB   C3A11503  22.600   6.410  34.520
  480BOLB   C4A11504  22.190   6.090  34.610
  480BOLB   C1B11505  22.540   6.970  33.770
  480BOLB   C2B11506  22.490   6.520  33.900
  480BOLB   C3B11507  22.290   6.120  34.150
  480BOLB   C4B11508  22.220   5.690  34.110
  480BOLB   NC211509  20.050   4.170  34.510
  480BOLB   PO211510  20.380   4.440  34.460
  480BOLB   GL311511  20.600   4.760  34.400
  480BOLB   GL411512  20.640   4.880  34.080
  480BOLB   C1C11513  20.990   4.990  34.500
  480BOLB   C2C11514  21.230   5.270  34.670
  480BOLB   C3C11515  21.360   5.720  34.750
  480BOLB   C4C11516  21.780   5.920  34.560
  480BOLB   C1D11517  20.900   5.220  34.090
  480BOLB   C2D11518  21.140   5.600  34.250
  480BOLB   C3D11519  21.360   6.010  34.320
  480BOLB   C4D11520  21.310   6.320  34.010
  481BOLB   NC111521  19.450  14.500  41.270
  481BOLB   PO111522  19.180  14.150  41.130
  481BOLB   GL111523  18.970  13.880  41.340
  481BOLB   GL211524  19.200  13.740  41.560
  481BOLB   C1A11525  18.670  13.720  41.560
  481BOLB   C2A11526  18.320  13.380  41.600
  481BOLB   C3A11527  18.160  13.240  41.910
  481BOLB   C4A11528  18.070  13.000  42.330
  481BOLB   C1B11529  19.110  13.450  41.980
  481BOLB   C2B11530  19.010  13.260  42.420
  481BOLB   C3B11531  18.930  13.350  42.890
  481BOLB   C4B11532  18.930  13.380  43.370
  481BOLB   NC211533  17.870  11.190  43.930
  481BOLB   PO211534  17.470  11.170  43.770
  481BOLB   GL311535  17.580  11.470  43.520
  481BOLB   GL411536  17.810  11.300  43.320
  481BOLB   C1C11537  17.640  11.810  43.190
  481BOLB   C2C11538  17.870  12.080  42.900
  481BOLB   C3C11539  18.110  12.350  42.740
  481BOLB   C4C11540  18.110  12.630  42.470
  481BOLB   C1D11541  18.070  10.950  43.210
  481BOLB   C2D11542  18.100  10.570  43.110
  481BOLB   C3D11543  18.470  10.470  42.950
  481BOLB   C4D11544  19.000  10.540  42.920
  482BOLB   NC111545  22.810  13.170  21.490
  482BOLB   PO111546  22.720  12.700  21.550
  482BOLB   GL111547  22.700  12.700  21.130
  482BOLB   GL211548  22.450  12.650  21.120
  482BOLB   C1A11549  22.800  12.790  20.750
  482BOLB   C2A11550  22.690  12.760  20.380
  482BOLB   C3A11551  22.880  12.740  19.990
  482BOLB   C4A11552  23.190  12.900  20.010
  482BOLB   C1B11553  22.030  12.550  20.960
  482BOLB   C2B11554  22.000  12.460  20.550
  482BOLB   C3B11555  21.920  12.180  20.200
  482BOLB   C4B11556  22.100  12.000  19.960
  482BOLB   NC211557  23.850  13.730  17.400
  482BOLB   PO211558  23.820  13.380  17.640
  482BOLB   GL311559  23.840  13.280  18.110
  482BOLB   GL411560  24.220  13.340  18.200
  482BOLB   C1C11561  23.830  13.120  18.560
  482BOLB   C2C11562  23.840  12.760  18.830
  482BOLB   C3C11563  23.550  12.680  19.150
  482BOLB   C4C11564  23.420  12.760  19.610
  482BOLB   C1D11565  24.270  13.820  18.280
  482BOLB   C2D11566  24.080  14.140  18.640
  482BOLB   C3D11567  23.750  14.220  18.870
  482BOLB   C4D11568  23.500  14.050  19.110
  483BOLB   NC111569  19.570  12.050  24.430
  483BOLB   PO111570  19.810  12.190  24.110
  483BOLB   GL111571  19.390  11.950  23.910
  483BOLB   GL211572  19.630  11.690  24.030
  483BOLB   C1A11573  19.410  11.720  23.610
  483BOLB   C2A11574  19.400  11.510  23.270
  483BOLB   C3A11575  19.010  11.440  23.000
  483BOLB   C4A11576  19.100  11.070  22.770
  483BOLB   C1B11577  19.380  11.220  23.820
  483BOLB   C2B11578  19.380  11.020  23.590
  483BOLB   C3B11579  19.090  11.020  23.270
  483BOLB   C4B11580  18.930  10.600  23.080
  483BOLB   NC211581  18.560   9.380  21.120
  483BOLB   PO211582  18.560   9.640  20.930
  483BOLB   GL311583  18.660  10.150  21.040
  483BOLB   GL411584  18.850  10.300  20.750
  483BOLB   C1C11585  18.720  10.550  21.190
  483BOLB   C2C11586  18.780  10.720  21.600
  483BOLB   C3C11587  18.780  10.810  21.990
  483BOLB   C4C11588  18.800  10.880  22.470
  483BOLB   C1D11589  19.180  10.390  21.130
  483BOLB   C2D11590  19.530  10.740  21.150
  483BOLB   C3D11591  19.970  10.920  21.210
  483BOLB   C4D11592  20.280  11.150  21.220
  484BOLB   NC111593  21.850  18.740  43.560
  484BOLB   PO111594  22.100  18.920  43.220
  484BOLB   GL111595  22.190  19.060  43.690
  484BOLB   GL211596  22.160  18.860  43.900
  484BOLB   C1A11597  22.200  19.400  43.920
  484BOLB   C2A11598  22.040  19.710  44.270
  484BOLB   C3A11599  21.910  19.780  44.690
  484BOLB   C4A11600  21.910  20.210  44.960
  484BOLB   C1B11601  22.170  19.060  44.310
  484BOLB   C2B11602  22.530  19.030  44.570
  484BOLB   C3B11603  22.760  19.010  45.040
  484BOLB   C4B11604  23.110  19.200  45.220
  484BOLB   NC211605  21.340  21.480  46.760
  484BOLB   PO211606  21.470  21.780  46.480
  484BOLB   GL311607  21.470  21.340  46.270
  484BOLB   GL411608  21.140  21.290  46.210
  484BOLB   C1C11609  21.440  20.940  46.290
  484BOLB   C2C11610  21.390  20.740  45.830
  484BOLB   C3C11611  21.640  20.720  45.410
  484BOLB   C4C11612  21.720  20.620  45.080
  484BOLB   C1D11613  21.310  21.210  45.820
  484BOLB   C2D11614  21.310  21.110  45.410
  484BOLB   C3D11615  21.390  21.040  45.070
  484BOLB   C4D11616  21.630  21.030  44.700
  485BOLB   NC111617  17.610  12.040  33.070
  485BOLB   PO111618  17.420  11.680  32.970
  485BOLB   GL111619  17.510  11.290  33.220
  485BOLB   GL211620  17.540  11.300  33.550
  485BOLB   C1A11621  17.700  10.810  33.190
  485BOLB   C2A11622  17.480  10.430  33.130
  485BOLB   C3A11623  17.290  10.050  33.030
  485BOLB   C4A11624  17.110   9.700  33.140
  485BOLB   C1B11625  17.210  11.100  33.610
  485BOLB   C2B11626  17.000  10.840  33.710
  485BOLB   C3B11627  16.680  10.500  33.850
  485BOLB   C4B11628  16.400  10.170  33.740
  485BOLB   NC211629  15.210   7.420  32.480
  485BOLB   PO211630  15.240   7.870  32.760
  485BOLB   GL311631  15.540   8.100  32.910
  485BOLB   GL411632  15.550   8.520  32.830
  485BOLB   C1C11633  15.990   8.270  32.800
  485BOLB   C2C11634  16.290   8.610  32.830
  485BOLB   C3C11635  16.710   8.840  32.940
  485BOLB   C4C11636  17.020   9.210  33.070
  485BOLB   C1D11637  15.840   8.780  32.590
  485BOLB   C2D11638  15.880   9.090  32.230
  485BOLB   C3D11639  16.110   9.280  32.030
  485BOLB   C4D11640  16.280   9.350  32.430
  486BOLB   NC111641  23.750   7.900  35.580
  486BOLB   PO111642  23.730   7.830  35.130
  486BOLB   GL111643  23.650   7.460  35.390
  486BOLB   GL211644  23.780   7.170  35.250
  486BOLB   C1A11645  23.410   7.200  35.700
  486BOLB   C2A11646  23.240   6.800  35.960
  486BOLB   C3A11647  23.260   6.520  36.290
  486BOLB   C4A11648  23.150   6.110  36.570
  486BOLB   C1B11649  23.530   6.760  35.430
  486BOLB   C2B11650  23.520   6.250  35.330
  486BOLB   C3B11651  23.720   5.890  35.370
  486BOLB   C4B11652  24.160   5.810  35.130
  486BOLB   NC211653  22.490   4.010  36.600
  486BOLB   PO211654  22.710   4.190  36.970
  486BOLB   GL311655  22.890   4.580  36.780
  486BOLB   GL411656  22.660   4.850  36.920
  486BOLB   C1C11657  23.220   4.850  36.990
  486BOLB   C2C11658  23.380   5.100  37.080
  486BOLB   C3C11659  23.460   5.570  37.010
  486BOLB   C4C11660  23.460   5.810  36.690
  486BOLB   C1D11661  22.600   5.140  36.600
  486BOLB   C2D11662  22.630   5.560  36.680
  486BOLB   C3D11663  22.930   5.840  36.920
  486BOLB   C4D11664  23.350   6.100  37.100
  487BOLB   NC111665  27.885   9.120  37.070
  487BOLB   PO111666  27.535   8.980  37.210
  487BOLB   GL111667  27.825   8.870  37.540
  487BOLB   GL211668  27.685   8.810  37.780
  487BOLB   C1A11669  28.175   8.730  37.500
  487BOLB   C2A11670  28.365   8.390  37.790
  487BOLB   C3A11671  28.705   8.100  37.670
  487BOLB   C4A11672  28.635   7.690  37.680
  487BOLB   C1B11673  27.875   8.510  37.900
  487BOLB   C2B11674  27.865   8.120  37.750
  487BOLB   C3B11675  27.535   7.710  37.710
  487BOLB   C4B11676  27.325   7.560  37.450
  487BOLB   NC211677  29.075   5.650  38.520
  487BOLB   PO211678  28.995   5.850  38.950
  487BOLB   GL311679  28.835   6.310  38.880
  487BOLB   GL411680  29.125   6.590  38.720
  487BOLB   C1C11681  28.595   6.610  38.540
  487BOLB   C2C11682  28.265   6.680  38.240
  487BOLB   C3C11683  28.345   7.050  37.910
  487BOLB   C4C11684  28.605   7.350  37.910
  487BOLB   C1D11685  28.955   6.960  38.580
  487BOLB   C2D11686  28.595   7.190  38.370
  487BOLB   C3D11687  28.255   7.460  38.270
  487BOLB   C4D11688  28.135   7.780  38.010
  488BOLB   NC111689  17.280  21.710  23.330
  488BOLB   PO111690  17.050  22.150  23.260
  488BOLB   GL111691  17.120  22.440  23.010
  488BOLB   GL211692  16.790  22.490  22.940
  488BOLB   C1A11693  17.360  22.710  22.810
  488BOLB   C2A11694  17.430  23.050  22.570
  488BOLB   C3A11695  17.530  23.300  22.370
  488BOLB   C4A11696  17.600  23.580  22.000
  488BOLB   C1B11697  16.960  22.720  22.560
  488BOLB   C2B11698  17.220  22.740  22.270
  488BOLB   C3B11699  17.430  23.070  21.990
  488BOLB   C4B11700  17.530  23.180  21.630
  488BOLB   NC211701  17.100  25.930  21.660
  488BOLB   PO211702  16.680  25.750  21.350
  488BOLB   GL311703  16.960  25.450  21.350
  488BOLB   GL411704  17.100  25.400  21.710
  488BOLB   C1C11705  17.140  25.090  21.320
  488BOLB   C2C11706  17.070  24.690  21.450
  488BOLB   C3C11707  17.290  24.330  21.590
  488BOLB   C4C11708  17.450  24.000  21.920
  488BOLB   C1D11709  17.270  24.900  21.830
  488BOLB   C2D11710  17.390  24.570  22.170
  488BOLB   C3D11711  17.330  24.140  22.380
  488BOLB   C4D11712  17.690  23.790  22.520
  489BOLB   NC111713  18.320  19.780  41.280
  489BOLB   PO111714  18.030  19.940  41.580
  489BOLB   GL111715  17.740  20.030  41.920
  489BOLB   GL211716  17.480  20.030  41.680
  489BOLB   C1A11717  17.480  20.120  42.270
  489BOLB   C2A11718  17.210  20.270  42.680
  489BOLB   C3A11719  16.940  20.410  43.000
  489BOLB   C4A11720  16.750  20.690  43.130
  489BOLB   C1B11721  17.170  19.890  41.960
  489BOLB   C2B11722  16.920  19.980  42.340
  489BOLB   C3B11723  16.740  19.720  42.660
  489BOLB   C4B11724  16.590  19.570  42.980
  489BOLB   NC211725  16.700  22.010  44.830
  489BOLB   PO211726  16.270  22.220  44.730
  489BOLB   GL311727  16.530  22.080  44.410
  489BOLB   GL411728  16.740  22.160  44.190
  489BOLB   C1C11729  16.380  21.800  44.070
  489BOLB   C2C11730  16.340  21.310  44.010
  489BOLB   C3C11731  16.280  20.870  43.920
  489BOLB   C4C11732  16.550  20.650  43.550
  489BOLB   C1D11733  17.090  22.330  43.920
  489BOLB   C2D11734  17.060  22.600  43.560
  489BOLB   C3D11735  17.300  22.870  43.360
  489BOLB   C4D11736  17.550  23.200  43.450
  490BOLB   NC111737  23.810  13.970  21.890
  490BOLB   PO111738  23.870  13.670  21.630
  490BOLB   GL111739  23.900  13.350  21.290
  490BOLB   GL211740  23.600  13.330  21.160
  490BOLB   C1A11741  24.280  13.330  21.020
  490BOLB   C2A11742  24.580  13.460  20.730
  490BOLB   C3A11743  24.510  13.570  20.310
  490BOLB   C4A11744  24.520  13.640  19.900
  490BOLB   C1B11745  23.440  13.180  20.720
  490BOLB   C2B11746  23.230  12.840  20.530
  490BOLB   C3B11747  23.170  12.420  20.300
  490BOLB   C4B11748  22.820  12.230  20.150
  490BOLB   NC211749  24.460  14.390  17.740
  490BOLB   PO211750  24.630  14.790  17.620
  490BOLB   GL311751  24.260  14.840  17.900
  490BOLB   GL411752  24.240  15.140  18.100
  490BOLB   C1C11753  24.260  14.690  18.370
  490BOLB   C2C11754  24.290  14.600  18.850
  490BOLB   C3C11755  24.320  14.240  19.140
  490BOLB   C4C11756  24.490  13.940  19.520
  490BOLB   C1D11757  23.770  15.170  18.320
  490BOLB   C2D11758  23.380  15.040  18.630
  490BOLB   C3D11759  23.180  15.040  19.100
  490BOLB   C4D11760  22.890  14.700  19.380
  491BOLB   NC111761  19.900  11.710  39.710
  491BOLB   PO111762  19.540  12.000  39.890
  491BOLB   GL111763  19.520  11.560  40.020
  491BOLB   GL211764  19.710  11.440  40.200
  491BOLB   C1A11765  19.160  11.290  40.050
  491BOLB   C2A11766  18.830  11.080  39.820
  491BOLB   C3A11767  18.530  10.810  39.980
  491BOLB   C4A11768  18.130  10.610  40.110
  491BOLB   C1B11769  19.420  11.250  40.460
  491BOLB   C2B11770  19.120  11.250  40.700
  491BOLB   C3B11771  18.730  11.000  40.800
  491BOLB   C4B11772  18.370  10.870  40.570
  491BOLB   NC211773  17.480   8.890  42.030
  491BOLB   PO211774  17.910   9.000  41.890
  491BOLB   GL311775  17.730   9.330  41.670
  491BOLB   GL411776  18.030   9.500  41.570
  491BOLB   C1C11777  17.620   9.720  41.360
  491BOLB   C2C11778  17.710   9.930  40.940
  491BOLB   C3C11779  17.610  10.270  40.710
  491BOLB   C4C11780  17.790  10.530  40.400
  491BOLB   C1D11781  18.030   9.960  41.320
  491BOLB   C2D11782  18.210  10.190  41.090
  491BOLB   C3D11783  18.500  10.510  40.990
  491BOLB   C4D11784  18.760  10.810  41.280
  492BOLB   NC111785  27.865  15.640  39.210
  492BOLB   PO111786  28.105  15.960  39.180
  492BOLB   GL111787  28.475  16.150  39.300
  492BOLB   GL211788  28.415  16.320  39.000
  492BOLB   C1A11789  28.705  16.380  39.510
  492BOLB   C2A11790  29.055  16.530  39.590
  492BOLB   C3A11791  29.155  16.570  40.000
  492BOLB   C4A11792  29.435  16.680  40.340
  492BOLB   C1B11793  28.845  16.490  39.010
  492BOLB   C2B11794  29.275  16.760  39.090
  492BOLB   C3B11795  29.625  16.980  39.000
  492BOLB   C4B11796  29.645  17.450  38.830
  492BOLB   NC211797  30.895  17.670  41.690
  492BOLB   PO211798  30.945  18.060  41.650
  492BOLB   GL311799  30.705  17.960  41.410
  492BOLB   GL411800  30.585  18.160  41.190
  492BOLB   C1C11801  30.445  17.590  41.260
  492BOLB   C2C11802  30.255  17.310  41.050
  492BOLB   C3C11803  30.005  17.070  40.730
  492BOLB   C4C11804  29.655  16.970  40.460
  492BOLB   C1D11805  30.175  18.070  41.270
  492BOLB   C2D11806  29.945  18.240  41.510
  492BOLB   C3D11807  29.635  18.130  41.690
  492BOLB   C4D11808  29.265  18.160  41.650
  493BOLB   NC111809  16.290  19.270  21.920
  493BOLB   PO111810  16.530  19.630  22.110
  493BOLB   GL111811  16.540  19.580  21.630
  493BOLB   GL211812  16.320  19.400  21.450
  493BOLB   C1A11813  16.460  19.920  21.250
  493BOLB   C2A11814  16.300  20.370  21.260
  493BOLB   C3A11815  16.000  20.630  21.420
  493BOLB   C4A11816  15.680  20.810  21.260
  493BOLB   C1B11817  16.040  19.690  21.300
  493BOLB   C2B11818  15.580  19.670  21.180
  493BOLB   C3B11819  15.270  19.970  21.280
  493BOLB   C4B11820  15.080  19.730  21.580
  493BOLB   NC211821  13.150  20.370  20.020
  493BOLB   PO211822  13.400  20.690  19.970
  493BOLB   GL311823  13.780  20.760  20.280
  493BOLB   GL411824  13.900  20.590  20.000
  493BOLB   C1C11825  14.200  20.850  20.490
  493BOLB   C2C11826  14.550  21.120  20.670
  493BOLB   C3C11827  14.910  21.050  20.960
  493BOLB   C4C11828  15.310  20.960  20.990
  493BOLB   C1D11829  14.200  20.330  20.130
  493BOLB   C2D11830  14.620  20.230  20.310
  493BOLB   C3D11831  14.710  20.090  20.640
  493BOLB   C4D11832  15.160  20.090  20.780
  494BOLB   NC111833  28.385   9.540  30.150
  494BOLB   PO111834  28.565   9.090  30.290
  494BOLB   GL111835  28.925   8.870  30.210
  494BOLB   GL211836  29.095   9.090  30.190
  494BOLB   C1A11837  29.175   8.540  30.220
  494BOLB   C2A11838  29.585   8.350  30.300
  494BOLB   C3A11839  29.895   8.290  30.480
  494BOLB   C4A11840  30.285   8.100  30.620
  494BOLB   C1B11841  29.455   8.950  30.250
  494BOLB   C2B11842  29.835   8.860  30.030
  494BOLB   C3B11843  29.965   8.420  29.960
  494BOLB   C4B11844  30.225   8.180  29.730
  494BOLB   NC211845  32.285   6.790  30.220
  494BOLB   PO211846  31.875   6.600  30.200
  494BOLB   GL311847  31.835   7.010  30.390
  494BOLB   GL411848  31.675   7.130  30.710
  494BOLB   C1C11849  31.465   7.270  30.190
  494BOLB   C2C11850  31.095   7.430  30.400
  494BOLB   C3C11851  30.805   7.510  30.710
  494BOLB   C4C11852  30.445   7.850  30.880
  494BOLB   C1D11853  31.575   7.440  30.660
  494BOLB   C2D11854  31.435   7.790  30.600
  494BOLB   C3D11855  30.955   7.970  30.590
  494BOLB   C4D11856  30.725   8.360  30.590
  495BOLB   NC111857  23.280  20.660  26.680
  495BOLB   PO111858  23.490  21.060  26.520
  495BOLB   GL111859  23.740  21.240  26.230
  495BOLB   GL211860  23.750  21.540  26.360
  495BOLB   C1A11861  24.070  21.210  25.930
  495BOLB   C2A11862  24.510  21.150  25.900
  495BOLB   C3A11863  24.910  21.250  26.100
  495BOLB   C4A11864  25.270  21.430  26.340
  495BOLB   C1B11865  24.000  21.650  26.080
  495BOLB   C2B11866  24.230  21.590  25.710
  495BOLB   C3B11867  24.650  21.540  25.610
  495BOLB   C4B11868  24.920  21.740  25.420
  495BOLB   NC211869  26.440  23.410  27.360
  495BOLB   PO211870  26.180  23.340  27.000
  495BOLB   GL311871  25.870  22.970  26.950
  495BOLB   GL411872  25.590  22.980  26.940
  495BOLB   C1C11873  25.780  22.470  27.050
  495BOLB   C2C11874  25.790  22.140  27.180
  495BOLB   C3C11875  25.760  21.790  26.870
  495BOLB   C4C11876  25.640  21.530  26.590
  495BOLB   C1D11877  25.220  22.940  26.680
  495BOLB   C2D11878  24.770  22.980  26.430
  495BOLB   C3D11879  24.430  22.660  26.420
  495BOLB   C4D11880  24.460  22.380  26.770
  496BOLB   NC111881  25.160  10.890  24.820
  496BOLB   PO111882  25.070  10.490  24.630
  496BOLB   GL111883  25.320  10.260  24.260
  496BOLB   GL211884  25.500  10.420  24.190
  496BOLB   C1A11885  25.500  10.000  23.920
  496BOLB   C2A11886  25.620   9.780  23.630
  496BOLB   C3A11887  25.850   9.870  23.400
  496BOLB   C4A11888  26.130   9.570  23.410
  496BOLB   C1B11889  25.750  10.430  23.930
  496BOLB   C2B11890  26.110  10.160  23.730
  496BOLB   C3B11891  26.380   9.860  23.770
  496BOLB   C4B11892  26.755   9.630  23.530
  496BOLB   NC211893  27.435   8.370  21.670
  496BOLB   PO211894  27.085   8.030  21.710
  496BOLB   GL311895  26.955   8.330  21.930
  496BOLB   GL411896  27.165   8.330  22.220
  496BOLB   C1C11897  26.705   8.600  22.210
  496BOLB   C2C11898  26.605   8.880  22.400
  496BOLB   C3C11899  26.250   9.000  22.770
  496BOLB   C4C11900  26.160   9.200  23.150
  496BOLB   C1D11901  26.995   8.450  22.600
  496BOLB   C2D11902  27.045   8.740  22.880
  496BOLB   C3D11903  27.245   9.090  23.080
  496BOLB   C4D11904  27.205   9.450  23.260
  497BOLB   NC111905  17.990  24.520  33.700
  497BOLB   PO111906  18.220  24.980  33.830
  497BOLB   GL111907  18.360  25.190  34.150
  497BOLB   GL211908  18.110  25.270  34.410
  497BOLB   C1A11909  18.490  25.590  34.270
  497BOLB   C2A11910  18.620  25.960  34.250
  497BOLB   C3A11911  18.360  26.190  34.490
  497BOLB   C4A11912  18.140   0.130  34.540
  497BOLB   C1B11913  18.100  25.750  34.600
  497BOLB   C2B11914  17.810  26.150  34.520
  497BOLB   C3B11915  17.660   0.130  34.700
  497BOLB   C4B11916  17.890   0.510  34.610
  497BOLB   NC211917  19.040   2.730  33.590
  497BOLB   PO211918  19.010   2.340  33.820
  497BOLB   GL311919  18.760   2.010  33.740
  497BOLB   GL411920  18.550   2.020  33.450
  497BOLB   C1C11921  18.670   1.650  33.810
  497BOLB   C2C11922  18.540   1.320  34.070
  497BOLB   C3C11923  18.490   0.920  34.250
  497BOLB   C4C11924  18.330   0.480  34.360
  497BOLB   C1D11925  18.180   1.810  33.650
  497BOLB   C2D11926  18.010   1.540  33.920
  497BOLB   C3D11927  18.090   1.550  34.400
  497BOLB   C4D11928  18.100   1.850  34.800
  498BOLB   NC111929  27.225  13.090  24.660
  498BOLB   PO111930  26.945  13.130  24.480
  498BOLB   GL111931  27.095  13.170  24.160
  498BOLB   GL211932  27.395  13.290  24.160
  498BOLB   C1A11933  27.235  13.430  23.690
  498BOLB   C2A11934  27.515  13.460  23.420
  498BOLB   C3A11935  27.925  13.470  23.180
  498BOLB   C4A11936  28.195  13.670  22.900
  498BOLB   C1B11937  27.745  13.450  24.010
  498BOLB   C2B11938  28.055  13.290  23.770
  498BOLB   C3B11939  28.135  12.990  23.450
  498BOLB   C4B11940  28.165  12.840  22.980
  498BOLB   NC211941  30.265  14.160  21.450
  498BOLB   PO211942  30.105  13.810  21.460
  498BOLB   GL311943  29.885  13.620  21.820
  498BOLB   GL411944  30.065  13.650  22.170
  498BOLB   C1C11945  29.515  13.540  22.080
  498BOLB   C2C11946  29.235  13.460  22.490
  498BOLB   C3C11947  28.925  13.380  22.720
  498BOLB   C4C11948  28.615  13.580  22.880
  498BOLB   C1D11949  29.835  14.030  22.010
  498BOLB   C2D11950  29.465  13.940  21.800
  498BOLB   C3D11951  29.195  13.750  21.680
  498BOLB   C4D11952  29.055  13.410  21.330
  499BOLB   NC111953  22.600  23.430  35.110
  499BOLB   PO111954  22.300  23.310  34.810
  499BOLB   GL111955  22.370  23.780  34.810
  499BOLB   GL211956  22.300  23.940  35.050
  499BOLB   C1A11957  22.540  24.190  34.740
  499BOLB   C2A11958  22.840  24.330  34.430
  499BOLB   C3A11959  23.130  24.620  34.200
  499BOLB   C4A11960  23.300  24.900  34.400
  499BOLB   C1B11961  22.220  24.400  35.080
  499BOLB   C2B11962  22.250  24.800  35.110
  499BOLB   C3B11963  22.440  25.210  34.990
  499BOLB   C4B11964  22.570  25.670  34.930
  499BOLB   NC211965  24.230   0.730  34.210
  499BOLB   PO211966  24.050   0.450  33.970
  499BOLB   GL311967  24.080   0.220  34.350
  499BOLB   GL411968  23.840   0.370  34.460
  499BOLB   C1C11969  23.990  26.210  34.560
  499BOLB   C2C11970  23.900  25.890  34.830
  499BOLB   C3C11971  23.600  25.620  34.880
  499BOLB   C4C11972  23.380  25.220  34.760
  499BOLB   C1D11973  23.570   0.070  34.430
  499BOLB   C2D11974  23.540  26.140  34.350
  499BOLB   C3D11975  23.530  25.700  34.370
  499BOLB   C4D11976  23.700  25.300  34.400
  500BOLB   NC111977  24.830  19.980  40.900
  500BOLB   PO111978  24.970  20.340  40.650
  500BOLB   GL111979  25.230  20.730  40.720
  500BOLB   GL211980  25.390  20.650  41.000
  500BOLB   C1A11981  25.730  20.770  40.670
  500BOLB   C2A11982  26.120  20.770  40.880
  500BOLB   C3A11983  26.080  20.750  41.370
  500BOLB   C4A11984  25.960  20.830  41.800
  500BOLB   C1B11985  25.560  20.690  41.470
  500BOLB   C2B11986  25.520  20.630  41.920
  500BOLB   C3B11987  25.760  20.660  42.300
  500BOLB   C4B11988  25.730  20.590  42.740
  500BOLB   NC211989  26.845  22.830  43.380
  500BOLB   PO211990  26.505  22.690  43.070
  500BOLB   GL311991  26.350  22.360  43.020
  500BOLB   GL411992  26.080  22.460  43.210
  500BOLB   C1C11993  26.280  22.190  42.640
  500BOLB   C2C11994  26.430  21.950  42.260
  500BOLB   C3C11995  26.240  21.490  42.160
  500BOLB   C4C11996  25.990  21.090  42.160
  500BOLB   C1D11997  25.810  22.270  43.220
  500BOLB   C2D11998  25.550  21.980  43.180
  500BOLB   C3D11999  25.770  21.580  43.360
  500BOLB   C4D12000  25.670  21.170  43.220
  501BOLB   NC112001  16.820  24.840  35.020
  501BOLB   PO112002  17.140  24.890  34.870
  501BOLB   GL112003  17.190  25.310  34.860
  501BOLB   GL212004  17.270  25.490  34.550
  501BOLB   C1A12005  17.080  25.750  35.060
  501BOLB   C2A12006  17.170  25.990  35.360
  501BOLB   C3A12007  17.240  26.300  35.680
  501BOLB   C4A12008  17.150   0.020  36.100
  501BOLB   C1B12009  17.020  25.750  34.270
  501BOLB   C2B12010  17.000  26.130  34.070
  501BOLB   C3B12011  17.120   0.130  33.940
  501BOLB   C4B12012  16.860   0.340  33.830
  501BOLB   NC212013  17.170   1.560  38.100
  501BOLB   PO212014  16.730   1.650  37.810
  501BOLB   GL312015  16.870   1.230  37.860
  501BOLB   GL412016  17.040   1.050  38.170
  501BOLB   C1C12017  16.970   0.990  37.510
  501BOLB   C2C12018  16.960   0.650  37.170
  501BOLB   C3C12019  17.060   0.320  36.970
  501BOLB   C4C12020  17.230   0.140  36.540
  501BOLB   C1D12021  17.180   0.750  37.870
  501BOLB   C2D12022  17.230   0.470  37.550
  501BOLB   C3D12023  17.380   0.050  37.490
  501BOLB   C4D12024  17.210  26.210  37.710
  502BOLB   NC112025  19.040  11.740  37.640
  502BOLB   PO112026  19.030  11.430  38.000
  502BOLB   GL112027  18.810  11.030  38.070
  502BOLB   GL212028  18.800  10.840  37.760
  502BOLB   C1A12029  18.400  10.900  38.100
  502BOLB   C2A12030  18.140  10.470  38.190
  502BOLB   C3A12031  18.110  10.200  38.330
  502BOLB   C4A12032  17.860   9.860  38.440
  502BOLB   C1B12033  18.770  10.490  38.030
  502BOLB   C2B12034  18.600  10.140  38.120
  502BOLB   C3B12035  18.710   9.790  38.330
  502BOLB   C4B12036  18.610   9.490  38.640
  502BOLB   NC212037  17.400   8.090  39.880
  502BOLB   PO212038  17.100   8.410  40.030
  502BOLB   GL312039  17.200   8.890  39.890
  502BOLB   GL412040  16.960   8.880  39.760
  502BOLB   C1C12041  17.320   9.190  39.460
  502BOLB   C2C12042  17.320   9.220  39.040
  502BOLB   C3C12043  17.380   9.610  38.860
  502BOLB   C4C12044  17.620   9.780  38.730
  502BOLB   C1D12045  16.960   9.380  39.700
  502BOLB   C2D12046  17.130   9.730  39.420
  502BOLB   C3D12047  17.290  10.130  39.300
  502BOLB   C4D12048  17.200  10.250  38.890
  503BOLB   NC112049  19.630  20.610  41.810
  503BOLB   PO112050  20.150  20.610  41.650
  503BOLB   GL112051  20.150  20.980  41.970
  503BOLB   GL212052  19.860  21.090  42.110
  503BOLB   C1A12053  20.250  21.370  42.320
  503BOLB   C2A12054  20.030  21.490  42.700
  503BOLB   C3A12055  20.170  21.800  42.950
  503BOLB   C4A12056  20.200  22.220  42.900
  503BOLB   C1B12057  19.630  21.390  42.360
  503BOLB   C2B12058  19.530  21.630  42.670
  503BOLB   C3B12059  19.700  21.990  42.880
  503BOLB   C4B12060  19.880  22.080  43.280
  503BOLB   NC212061  21.170  24.120  44.580
  503BOLB   PO212062  20.670  24.210  44.580
  503BOLB   GL312063  20.570  23.940  44.270
  503BOLB   GL412064  20.260  23.880  44.120
  503BOLB   C1C12065  20.620  23.480  44.010
  503BOLB   C2C12066  20.440  23.220  43.610
  503BOLB   C3C12067  20.130  23.030  43.240
  503BOLB   C4C12068  20.260  22.620  43.040
  503BOLB   C1D12069  20.200  23.730  43.670
  503BOLB   C2D12070  20.250  23.670  43.230
  503BOLB   C3D12071  20.250  23.490  42.870
  503BOLB   C4D12072  20.520  23.150  42.940
  504BOLB   NC112073  15.260  23.650  28.770
  504BOLB   PO112074  15.200  23.430  28.310
  504BOLB   GL112075  15.070  23.850  28.260
  504BOLB   GL212076  15.070  23.930  27.990
  504BOLB   C1A12077  15.090  24.300  28.370
  504BOLB   C2A12078  14.870  24.600  28.320
  504BOLB   C3A12079  14.680  24.980  28.460
  504BOLB   C4A12080  14.450  25.260  28.670
  504BOLB   C1B12081  14.820  24.200  27.930
  504BOLB   C2B12082  14.710  24.520  27.760
  504BOLB   C3B12083  14.600  24.980  27.920
  504BOLB   C4B12084  14.490  25.340  28.140
  504BOLB   NC212085  13.580   1.260  29.270
  504BOLB   PO212086  14.020   1.160  29.200
  504BOLB   GL312087  14.240   0.900  29.410
  504BOLB   GL412088  14.410   0.820  29.730
  504BOLB   C1C12089  14.370   0.460  29.390
  504BOLB   C2C12090  14.510   0.140  29.120
  504BOLB   C3C12091  14.650  26.040  28.960
  504BOLB   C4C12092  14.580  25.670  28.760
  504BOLB   C1D12093  14.740   0.660  29.740
  504BOLB   C2D12094  14.760   0.150  29.700
  504BOLB   C3D12095  14.680  26.220  29.530
  504BOLB   C4D12096  14.480  25.910  29.390
  505BOLB   NC112097  28.615   9.050  35.510
  505BOLB   PO112098  28.275   8.800  35.410
  505BOLB   GL112099  28.315   8.440  35.430
  505BOLB   GL212100  28.285   8.430  35.720
  505BOLB   C1A12101  28.465   8.160  35.150
  505BOLB   C2A12102  28.765   7.840  35.280
  505BOLB   C3A12103  28.805   7.470  35.340
  505BOLB   C4A12104  28.515   7.090  35.560
  505BOLB   C1B12105  28.585   8.100  35.950
  505BOLB   C2B12106  28.715   7.830  36.130
  505BOLB   C3B12107  29.065   7.790  36.260
  505BOLB   C4B12108  29.505   7.830  35.970
  505BOLB   NC212109  30.025   4.510  35.490
  505BOLB   PO212110  29.875   4.860  35.690
  505BOLB   GL312111  29.615   5.190  35.780
  505BOLB   GL412112  29.315   5.140  35.510
  505BOLB   C1C12113  29.395   5.610  35.540
  505BOLB   C2C12114  28.985   5.900  35.340
  505BOLB   C3C12115  28.775   6.370  35.370
  505BOLB   C4C12116  28.575   6.680  35.530
  505BOLB   C1D12117  28.945   5.330  35.450
  505BOLB   C2D12118  28.685   5.550  35.630
  505BOLB   C3D12119  28.415   5.980  35.550
  505BOLB   C4D12120  28.205   6.400  35.410
  506BOLB   NC112121  31.285  14.810  21.710
  506BOLB   PO112122  31.145  14.630  22.010
  506BOLB   GL112123  30.835  14.620  22.400
  506BOLB   GL212124  30.515  14.340  22.310
  506BOLB   C1A12125  30.355  14.780  22.480
  506BOLB   C2A12126  30.045  14.820  22.380
  506BOLB   C3A12127  29.645  14.920  22.520
  506BOLB   C4A12128  29.265  14.900  22.440
  506BOLB   C1B12129  30.125  14.290  22.330
  506BOLB   C2B12130  29.805  13.990  22.550
  506BOLB   C3B12131  29.445  13.940  22.310
  506BOLB   C4B12132  29.045  13.980  22.070
  506BOLB   NC212133  29.565  15.330  20.610
  506BOLB   PO212134  29.575  14.880  20.780
  506BOLB   GL312135  29.285  14.810  21.050
  506BOLB   GL412136  29.325  14.460  21.170
  506BOLB   C1C12137  28.945  14.820  21.490
  506BOLB   C2C12138  28.695  14.750  21.830
  506BOLB   C3C12139  28.505  14.840  22.240
  506BOLB   C4C12140  28.845  14.690  22.530
  506BOLB   C1D12141  29.055  14.270  21.430
  506BOLB   C2D12142  28.875  14.310  21.780
  506BOLB   C3D12143  28.745  14.370  22.200
  506BOLB   C4D12144  28.985  14.210  22.510
  507BOLB   NC112145  16.130  15.540  24.630
  507BOLB   PO112146  16.320  15.140  24.720
  507BOLB   GL112147  16.050  15.040  24.630
  507BOLB   GL212148  15.800  15.200  24.740
  507BOLB   C1A12149  15.850  14.650  24.440
  507BOLB   C2A12150  15.460  14.470  24.280
  507BOLB   C3A12151  15.090  14.710  24.220
  507BOLB   C4A12152  14.620  14.610  24.250
  507BOLB   C1B12153  15.380  14.900  24.620
  507BOLB   C2B12154  14.910  15.030  24.550
  507BOLB   C3B12155  14.510  15.110  24.370
  507BOLB   C4B12156  14.230  15.390  24.160
  507BOLB   NC212157  12.830  13.170  23.200
  507BOLB   PO212158  13.030  13.520  23.010
  507BOLB   GL312159  13.490  13.490  23.180
  507BOLB   GL412160  13.620  13.460  23.490
  507BOLB   C1C12161  13.730  13.860  23.110
  507BOLB   C2C12162  13.940  14.170  23.310
  507BOLB   C3C12163  14.240  14.400  23.500
  507BOLB   C4C12164  14.330  14.530  23.880
  507BOLB   C1D12165  13.880  13.740  23.590
  507BOLB   C2D12166  14.110  13.940  23.770
  507BOLB   C3D12167  14.460  14.110  24.130
  507BOLB   C4D12168  14.940  14.070  24.180
  508BOLB   NC112169  28.455   8.740  29.900
  508BOLB   PO112170  28.665   9.220  29.790
  508BOLB   GL112171  28.815   8.920  29.610
  508BOLB   GL212172  28.985   8.670  29.770
  508BOLB   C1A12173  29.135   8.840  29.280
  508BOLB   C2A12174  29.445   8.460  29.210
  508BOLB   C3A12175  29.835   8.370  29.280
  508BOLB   C4A12176  30.065   8.070  29.280
  508BOLB   C1B12177  29.065   8.350  29.510
  508BOLB   C2B12178  29.215   8.000  29.350
  508BOLB   C3B12179  29.255   7.680  28.980
  508BOLB   C4B12180  29.495   7.430  28.690
  508BOLB   NC212181  32.015   6.990  28.000
  508BOLB   PO212182  31.955   7.440  28.230
  508BOLB   GL312183  31.545   7.420  28.130
  508BOLB   GL412184  31.525   7.060  28.130
  508BOLB   C1C12185  31.135   7.540  28.110
  508BOLB   C2C12186  31.125   7.530  28.570
  508BOLB   C3C12187  30.805   7.360  28.970
  508BOLB   C4C12188  30.485   7.770  29.070
  508BOLB   C1D12189  31.115   7.100  28.270
  508BOLB   C2D12190  30.715   7.060  28.420
  508BOLB   C3D12191  30.405   7.370  28.630
  508BOLB   C4D12192  30.025   7.320  28.790
  509BOLB   NC112193  23.630  22.060  37.760
  509BOLB   PO112194  23.310  22.190  37.430
  509BOLB   GL112195  23.460  22.530  37.510
  509BOLB   GL212196  23.760  22.450  37.480
  509BOLB   C1A12197  23.760  22.970  37.570
  509BOLB   C2A12198  23.970  23.370  37.600
  509BOLB   C3A12199  24.390  23.460  37.570
  509BOLB   C4A12200  24.740  23.540  37.340
  509BOLB   C1B12201  24.110  22.620  37.620
  509BOLB   C2B12202  24.100  23.000  38.020
  509BOLB   C3B12203  24.320  23.200  38.320
  509BOLB   C4B12204  24.400  23.690  38.450
  509BOLB   NC212205  26.775  25.360  36.190
  509BOLB   PO212206  26.765  24.970  36.470
  509BOLB   GL312207  26.410  24.750  36.390
  509BOLB   GL412208  26.160  24.880  36.710
  509BOLB   C1C12209  25.920  24.560  36.320
  509BOLB   C2C12210  25.710  24.270  36.480
  509BOLB   C3C12211  25.350  24.070  36.860
  509BOLB   C4C12212  24.960  23.970  37.070
  509BOLB   C1D12213  26.120  24.420  36.760
  509BOLB   C2D12214  25.820  24.250  37.090
  509BOLB   C3D12215  25.450  24.190  37.320
  509BOLB   C4D12216  25.100  23.920  37.530
  510BOLB   NC112217  23.760   7.380  30.250
  510BOLB   PO112218  24.100   7.190  30.580
  510BOLB   GL112219  24.220   7.020  30.240
  510BOLB   GL212220  24.090   7.140  29.960
  510BOLB   C1A12221  24.430   6.650  29.900
  510BOLB   C2A12222  24.610   6.290  29.690
  510BOLB   C3A12223  24.430   5.800  29.700
  510BOLB   C4A12224  24.160   5.420  29.700
  510BOLB   C1B12225  23.950   6.720  29.730
  510BOLB   C2B12226  23.580   6.430  29.610
  510BOLB   C3B12227  23.250   6.220  29.260
  510BOLB   C4B12228  23.140   5.760  29.150
  510BOLB   NC212229  25.320   3.830  30.370
  510BOLB   PO212230  25.020   3.710  30.530
  510BOLB   GL312231  24.670   3.980  30.620
  510BOLB   GL412232  24.480   3.980  30.990
  510BOLB   C1C12233  24.320   4.300  30.500
  510BOLB   C2C12234  23.950   4.360  30.340
  510BOLB   C3C12235  23.760   4.610  30.010
  510BOLB   C4C12236  23.880   5.020  29.810
  510BOLB   C1D12237  24.520   4.390  31.060
  510BOLB   C2D12238  24.430   4.810  31.240
  510BOLB   C3D12239  24.630   5.240  31.250
  510BOLB   C4D12240  24.830   5.670  31.410
  511BOLB   NC112241  20.730   8.800  35.820
  511BOLB   PO112242  20.740   8.720  35.360
  511BOLB   GL112243  20.440   8.510  35.570
  511BOLB   GL212244  20.060   8.450  35.630
  511BOLB   C1A12245  20.460   8.090  35.860
  511BOLB   C2A12246  20.370   7.630  35.890
  511BOLB   C3A12247  20.250   7.250  35.770
  511BOLB   C4A12248  20.090   6.890  35.860
  511BOLB   C1B12249  19.730   8.510  36.020
  511BOLB   C2B12250  19.330   8.450  36.130
  511BOLB   C3B12251  18.970   8.140  36.030
  511BOLB   C4B12252  18.550   8.020  36.290
  511BOLB   NC212253  18.600   5.410  35.020
  511BOLB   PO212254  18.850   5.170  34.700
  511BOLB   GL312255  18.880   5.640  34.680
  511BOLB   GL412256  18.760   5.850  34.360
  511BOLB   C1C12257  19.210   6.010  34.660
  511BOLB   C2C12258  19.300   6.420  34.850
  511BOLB   C3C12259  19.730   6.500  35.140
  511BOLB   C4C12260  19.990   6.610  35.510
  511BOLB   C1D12261  18.950   6.290  34.340
  511BOLB   C2D12262  19.070   6.810  34.390
  511BOLB   C3D12263  19.040   7.250  34.410
  511BOLB   C4D12264  18.910   7.580  34.520
  512BOLB   NC112265  29.775  11.740  34.380
  512BOLB   PO112266  29.755  12.030  34.770
  512BOLB   GL112267  30.135  12.150  34.590
  512BOLB   GL212268  30.025  12.560  34.660
  512BOLB   C1A12269  30.485  12.160  34.770
  512BOLB   C2A12270  30.625  11.980  35.210
  512BOLB   C3A12271  31.065  11.950  35.440
  512BOLB   C4A12272  31.435  11.880  35.750
  512BOLB   C1B12273  30.385  12.600  34.900
  512BOLB   C2B12274  30.785  12.450  35.100
  512BOLB   C3B12275  31.145  12.530  35.220
  512BOLB   C4B12276  31.505  12.160  35.150
  512BOLB   NC212277  33.675  10.780  35.700
  512BOLB   PO212278  33.505  11.160  35.740
  512BOLB   GL312279  33.075  11.190  35.840
  512BOLB   GL412280  32.915  11.490  35.800
  512BOLB   C1C12281  32.685  10.980  35.990
  512BOLB   C2C12282  32.285  11.050  36.200
  512BOLB   C3C12283  31.935  11.330  36.060
  512BOLB   C4C12284  31.775  11.790  35.870
  512BOLB   C1D12285  32.515  11.480  35.930
  512BOLB   C2D12286  32.195  11.780  36.150
  512BOLB   C3D12287  31.975  12.030  36.390
  512BOLB   C4D12288  31.595  12.300  36.520
  513BOLB   NC112289  19.410  17.160  42.790
  513BOLB   PO112290  19.760  16.880  42.650
  513BOLB   GL112291  19.440  16.600  42.870
  513BOLB   GL212292  19.170  16.770  42.820
  513BOLB   C1A12293  19.250  16.360  42.980
  513BOLB   C2A12294  18.920  16.310  43.280
  513BOLB   C3A12295  18.830  16.060  43.680
  513BOLB   C4A12296  18.830  15.920  44.140
  513BOLB   C1B12297  19.140  16.770  43.350
  513BOLB   C2B12298  18.990  16.950  43.720
  513BOLB   C3B12299  18.990  17.170  44.000
  513BOLB   C4B12300  18.620  17.130  44.150
  513BOLB   NC212301  17.120  14.550  45.530
  513BOLB   PO212302  16.830  14.840  45.270
  513BOLB   GL312303  17.170  14.930  45.100
  513BOLB   GL412304  17.240  15.200  45.040
  513BOLB   C1C12305  17.640  14.900  44.990
  513BOLB   C2C12306  18.020  15.160  44.730
  513BOLB   C3C12307  18.380  15.300  44.630
  513BOLB   C4C12308  18.550  15.640  44.410
  513BOLB   C1D12309  17.480  15.150  44.580
  513BOLB   C2D12310  17.740  15.030  44.260
  513BOLB   C3D12311  18.150  15.080  44.120
  513BOLB   C4D12312  18.470  15.060  43.820
  514BOLB   NC112313  28.915  15.400  32.750
  514BOLB   PO112314  29.115  15.070  32.530
  514BOLB   GL112315  29.425  15.270  32.750
  514BOLB   GL212316  29.495  15.210  33.010
  514BOLB   C1A12317  29.735  15.580  32.690
  514BOLB   C2A12318  30.175  15.670  32.670
  514BOLB   C3A12319  30.635  15.740  32.810
  514BOLB   C4A12320  31.025  15.890  33.000
  514BOLB   C1B12321  29.965  15.280  33.080
  514BOLB   C2B12322  30.345  15.540  33.190
  514BOLB   C3B12323  30.695  15.680  33.420
  514BOLB   C4B12324  30.985  15.720  33.760
  514BOLB   NC212325  32.795  16.490  32.390
  514BOLB   PO212326  32.865  16.710  31.960
  514BOLB   GL312327  32.515  16.780  31.750
  514BOLB   GL412328  32.555  16.960  31.540
  514BOLB   C1C12329  32.095  16.500  31.930
  514BOLB   C2C12330  31.815  16.320  32.150
  514BOLB   C3C12331  31.625  16.020  32.370
  514BOLB   C4C12332  31.485  15.970  32.730
  514BOLB   C1D12333  32.085  16.890  31.540
  514BOLB   C2D12334  31.715  16.650  31.450
  514BOLB   C3D12335  31.245  16.710  31.520
  514BOLB   C4D12336  30.805  16.730  31.460
  515BOLB   NC112337  19.450  10.220  28.880
  515BOLB   PO112338  19.550  10.420  28.470
  515BOLB   GL112339  19.120  10.120  28.470
  515BOLB   GL212340  18.800  10.060  28.210
  515BOLB   C1A12341  18.780   9.960  28.790
  515BOLB   C2A12342  18.380   9.720  28.810
  515BOLB   C3A12343  18.090   9.400  28.730
  515BOLB   C4A12344  17.710   9.320  28.410
  515BOLB   C1B12345  18.660   9.780  27.930
  515BOLB   C2B12346  18.550   9.340  27.680
  515BOLB   C3B12347  18.290   9.140  27.300
  515BOLB   C4B12348  17.880   9.250  27.080
  515BOLB   NC212349  16.020   7.460  27.620
  515BOLB   PO212350  16.060   7.580  28.110
  515BOLB   GL312351  16.100   8.140  27.880
  515BOLB   GL412352  15.850   8.270  27.820
  515BOLB   C1C12353  16.280   8.550  27.780
  515BOLB   C2C12354  16.570   8.780  27.960
  515BOLB   C3C12355  16.950   9.010  28.120
  515BOLB   C4C12356  17.320   9.180  28.360
  515BOLB   C1D12357  15.840   8.630  28.130
  515BOLB   C2D12358  16.170   8.890  28.260
  515BOLB   C3D12359  16.510   9.220  28.250
  515BOLB   C4D12360  16.860   9.520  28.290
  516BOLB   NC112361  26.625  11.460  39.390
  516BOLB   PO112362  26.905  11.470  39.820
  516BOLB   GL112363  27.165  11.330  40.150
  516BOLB   GL212364  26.985  11.350  40.430
  516BOLB   C1A12365  27.455  11.090  40.490
  516BOLB   C2A12366  27.795  11.060  40.860
  516BOLB   C3A12367  28.095  11.240  40.870
  516BOLB   C4A12368  28.335  11.480  41.200
  516BOLB   C1B12369  27.175  11.310  40.830
  516BOLB   C2B12370  27.245  11.050  41.140
  516BOLB   C3B12371  27.345  10.760  41.450
  516BOLB   C4B12372  27.165  10.370  41.650
  516BOLB   NC212373  29.995  11.630  43.340
  516BOLB   PO212374  29.655  11.450  43.040
  516BOLB   GL312375  29.565  11.400  42.640
  516BOLB   GL412376  29.465  11.710  42.560
  516BOLB   C1C12377  29.225  11.180  42.320
  516BOLB   C2C12378  28.725  11.060  42.160
  516BOLB   C3C12379  28.435  11.270  41.970
  516BOLB   C4C12380  28.515  11.520  41.650
  516BOLB   C1D12381  29.535  11.710  42.040
  516BOLB   C2D12382  29.235  11.910  41.840
  516BOLB   C3D12383  28.795  11.910  41.710
  516BOLB   C4D12384  28.435  11.950  41.430
  517BOLB   NC112385  23.110  19.070  42.570
  517BOLB   PO112386  22.890  19.010  42.930
  517BOLB   GL112387  23.110  18.830  43.210
  517BOLB   GL212388  22.960  18.930  43.520
  517BOLB   C1A12389  23.470  18.880  43.540
  517BOLB   C2A12390  23.700  19.060  43.840
  517BOLB   C3A12391  23.670  19.130  44.300
  517BOLB   C4A12392  23.870  19.090  44.750
  517BOLB   C1B12393  23.140  18.870  43.950
  517BOLB   C2B12394  23.470  18.630  44.020
  517BOLB   C3B12395  23.880  18.720  44.150
  517BOLB   C4B12396  24.280  18.820  44.350
  517BOLB   NC212397  24.290  19.360  47.260
  517BOLB   PO212398  24.190  18.930  46.930
  517BOLB   GL312399  24.160  18.770  46.500
  517BOLB   GL412400  24.120  18.440  46.380
  517BOLB   C1C12401  24.360  18.910  46.110
  517BOLB   C2C12402  24.460  19.110  45.680
  517BOLB   C3C12403  24.400  18.960  45.250
  517BOLB   C4C12404  24.260  18.970  44.820
  517BOLB   C1D12405  24.070  18.600  45.950
  517BOLB   C2D12406  23.600  18.800  45.790
  517BOLB   C3D12407  23.200  18.780  45.530
  517BOLB   C4D12408  23.160  18.700  45.090
  518BOLB   NC112409  15.710  14.090  37.250
  518BOLB   PO112410  15.600  13.760  36.980
  518BOLB   GL112411  15.170  13.610  36.900
  518BOLB   GL212412  15.280  13.400  37.010
  518BOLB   C1A12413  14.760  13.410  36.830
  518BOLB   C2A12414  14.520  13.160  36.630
  518BOLB   C3A12415  14.170  12.930  36.650
  518BOLB   C4A12416  13.790  12.830  36.790
  518BOLB   C1B12417  14.940  13.140  37.280
  518BOLB   C2B12418  14.630  12.880  37.460
  518BOLB   C3B12419  14.520  12.510  37.510
  518BOLB   C4B12420  14.480  12.230  37.820
  518BOLB   NC212421  11.670  11.750  36.620
  518BOLB   PO212422  11.480  12.170  36.850
  518BOLB   GL312423  11.820  12.480  36.680
  518BOLB   GL412424  11.940  12.790  36.790
  518BOLB   C1C12425  12.220  12.490  36.540
  518BOLB   C2C12426  12.520  12.780  36.470
  518BOLB   C3C12427  12.930  12.840  36.430
  518BOLB   C4C12428  13.390  12.890  36.670
  518BOLB   C1D12429  12.430  12.860  36.980
  518BOLB   C2D12430  12.660  13.010  37.100
  518BOLB   C3D12431  13.050  12.820  37.060
  518BOLB   C4D12432  13.390  12.660  37.230
  519BOLB   NC112433  21.550  22.620  38.330
  519BOLB   PO112434  21.510  22.710  38.710
  519BOLB   GL112435  21.670  22.890  39.120
  519BOLB   GL212436  21.600  23.200  39.010
  519BOLB   C1A12437  22.060  23.080  39.240
  519BOLB   C2A12438  22.260  23.490  39.250
  519BOLB   C3A12439  22.080  23.870  39.130
  519BOLB   C4A12440  22.220  24.260  39.220
  519BOLB   C1B12441  21.690  23.570  39.020
  519BOLB   C2B12442  21.680  23.890  39.400
  519BOLB   C3B12443  21.830  24.260  39.490
  519BOLB   C4B12444  22.010  24.640  39.630
  519BOLB   NC212445  22.700   0.240  39.390
  519BOLB   PO212446  22.950   0.290  39.710
  519BOLB   GL312447  22.830  26.260  39.630
  519BOLB   GL412448  22.610  26.220  39.920
  519BOLB   C1C12449  22.800  25.960  39.370
  519BOLB   C2C12450  22.760  25.520  39.340
  519BOLB   C3C12451  22.700  25.030  39.380
  519BOLB   C4C12452  22.500  24.630  39.470
  519BOLB   C1D12453  22.140  25.970  39.910
  519BOLB   C2D12454  21.860  25.600  39.790
  519BOLB   C3D12455  21.750  25.370  39.420
  519BOLB   C4D12456  21.580  24.980  39.230
  520BOLB   NC112457  19.590  14.620  21.890
  520BOLB   PO112458  19.360  14.650  22.180
  520BOLB   GL112459  19.060  14.510  21.850
  520BOLB   GL212460  19.230  14.340  21.650
  520BOLB   C1A12461  18.710  14.300  21.620
  520BOLB   C2A12462  18.550  14.050  21.410
  520BOLB   C3A12463  18.540  13.700  21.410
  520BOLB   C4A12464  18.740  13.520  21.110
  520BOLB   C1B12465  19.210  14.130  21.260
  520BOLB   C2B12466  18.900  13.980  21.020
  520BOLB   C3B12467  18.350  13.890  20.980
  520BOLB   C4B12468  18.200  13.500  20.960
  520BOLB   NC212469  18.230  12.270  19.180
  520BOLB   PO212470  17.920  12.480  19.410
  520BOLB   GL312471  17.900  12.530  19.830
  520BOLB   GL412472  17.850  12.780  19.800
  520BOLB   C1C12473  17.960  12.420  20.240
  520BOLB   C2C12474  18.110  12.630  20.590
  520BOLB   C3C12475  18.300  12.960  20.780
  520BOLB   C4C12476  18.580  13.240  20.810
  520BOLB   C1D12477  17.550  13.060  19.820
  520BOLB   C2D12478  17.590  13.400  20.060
  520BOLB   C3D12479  17.570  13.570  20.420
  520BOLB   C4D12480  17.370  13.780  20.820
  521BOLB   NC112481  24.730  13.030  22.950
  521BOLB   PO112482  24.640  12.780  22.580
  521BOLB   GL112483  24.890  12.660  22.260
  521BOLB   GL212484  25.170  12.470  22.430
  521BOLB   C1A12485  24.950  12.540  21.860
  521BOLB   C2A12486  24.950  12.550  21.460
  521BOLB   C3A12487  24.830  12.640  21.130
  521BOLB   C4A12488  24.830  12.530  20.730
  521BOLB   C1B12489  25.340  12.220  22.130
  521BOLB   C2B12490  25.280  12.100  21.780
  521BOLB   C3B12491  25.640  11.960  21.440
  521BOLB   C4B12492  26.020  12.090  21.350
  521BOLB   NC212493  25.990  11.350  18.640
  521BOLB   PO212494  25.630  11.290  18.990
  521BOLB   GL312495  25.480  11.580  19.310
  521BOLB   GL412496  25.230  11.620  19.190
  521BOLB   C1C12497  25.460  11.620  19.720
  521BOLB   C2C12498  25.080  11.830  19.840
  521BOLB   C3C12499  25.030  12.190  20.100
  521BOLB   C4C12500  25.000  12.470  20.420
  521BOLB   C1D12501  25.000  11.380  19.590
  521BOLB   C2D12502  24.620  11.300  19.830
  521BOLB   C3D12503  24.320  11.030  19.840
  521BOLB   C4D12504  24.030  10.800  20.080
  522BOLB   NC112505  16.220  14.440  25.760
  522BOLB   PO112506  16.300  14.160  26.140
  522BOLB   GL112507  15.920  13.860  26.250
  522BOLB   GL212508  15.820  13.690  25.900
  522BOLB   C1A12509  15.630  13.570  26.340
  522BOLB   C2A12510  15.230  13.520  26.140
  522BOLB   C3A12511  14.850  13.480  26.010
  522BOLB   C4A12512  14.450  13.520  25.710
  522BOLB   C1B12513  15.550  13.410  25.770
  522BOLB   C2B12514  15.150  13.130  25.820
  522BOLB   C3B12515  14.670  13.070  25.820
  522BOLB   C4B12516  14.330  13.240  26.080
  522BOLB   NC212517  13.210  11.990  24.220
  522BOLB   PO212518  12.730  12.190  24.200
  522BOLB   GL312519  13.150  12.490  24.240
  522BOLB   GL412520  13.260  12.740  23.920
  522BOLB   C1C12521  13.510  12.730  24.360
  522BOLB   C2C12522  13.820  12.910  24.690
  522BOLB   C3C12523  14.180  13.130  24.980
  522BOLB   C4C12524  14.350  13.310  25.340
  522BOLB   C1D12525  13.700  12.820  23.760
  522BOLB   C2D12526  14.210  12.680  23.720
  522BOLB   C3D12527  14.640  12.690  23.750
  522BOLB   C4D12528  14.860  12.650  24.090
  523BOLB   NC112529  27.135  18.630  38.440
  523BOLB   PO112530  26.825  18.970  38.460
  523BOLB   GL112531  27.265  19.060  38.510
  523BOLB   GL212532  27.245  18.970  38.810
  523BOLB   C1A12533  27.475  19.410  38.700
  523BOLB   C2A12534  27.935  19.470  38.760
  523BOLB   C3A12535  28.255  19.660  38.990
  523BOLB   C4A12536  28.595  19.700  39.270
  523BOLB   C1B12537  27.705  18.950  38.960
  523BOLB   C2B12538  27.995  19.040  39.210
  523BOLB   C3B12539  28.395  19.230  39.280
  523BOLB   C4B12540  28.535  19.330  39.640
  523BOLB   NC212541  31.135  20.460  38.790
  523BOLB   PO212542  30.875  20.140  39.020
  523BOLB   GL312543  30.635  19.940  38.830
  523BOLB   GL412544  30.565  20.000  38.530
  523BOLB   C1C12545  30.155  19.920  38.810
  523BOLB   C2C12546  29.645  19.930  38.830
  523BOLB   C3C12547  29.175  19.910  38.790
  523BOLB   C4C12548  28.885  19.990  39.120
  523BOLB   C1D12549  30.245  20.280  38.410
  523BOLB   C2D12550  29.925  20.180  38.200
  523BOLB   C3D12551  29.815  19.990  37.900
  523BOLB   C4D12552  29.625  19.560  37.860
  524BOLB   NC112553  15.340  18.260  23.430
  524BOLB   PO112554  15.360  18.610  23.230
  524BOLB   GL112555  15.170  18.250  22.960
  524BOLB   GL212556  15.320  18.300  22.690
  524BOLB   C1A12557  14.820  18.280  22.660
  524BOLB   C2A12558  14.730  18.090  22.260
  524BOLB   C3A12559  14.640  17.960  21.840
  524BOLB   C4A12560  14.390  17.750  21.610
  524BOLB   C1B12561  15.370  18.260  22.250
  524BOLB   C2B12562  15.610  18.400  21.770
  524BOLB   C3B12563  15.830  18.140  21.400
  524BOLB   C4B12564  15.880  17.820  21.330
  524BOLB   NC212565  12.530  16.760  21.970
  524BOLB   PO212566  12.450  16.790  21.530
  524BOLB   GL312567  12.810  16.560  21.590
  524BOLB   GL412568  12.950  16.860  21.690
  524BOLB   C1C12569  13.300  16.570  21.790
  524BOLB   C2C12570  13.690  16.670  21.680
  524BOLB   C3C12571  13.820  17.140  21.660
  524BOLB   C4C12572  14.110  17.410  21.670
  524BOLB   C1D12573  13.260  17.050  21.940
  524BOLB   C2D12574  13.670  17.180  22.120
  524BOLB   C3D12575  13.980  17.420  22.180
  524BOLB   C4D12576  14.240  17.790  22.140
  525BOLB   NC112577  14.800  22.750  27.640
  525BOLB   PO112578  14.510  22.810  28.040
  525BOLB   GL112579  14.430  23.290  28.020
  525BOLB   GL212580  14.710  23.290  28.230
  525BOLB   C1A12581  14.250  23.650  27.820
  525BOLB   C2A12582  14.240  24.110  27.990
  525BOLB   C3A12583  14.260  24.580  27.910
  525BOLB   C4A12584  14.060  24.660  27.530
  525BOLB   C1B12585  14.610  23.780  28.120
  525BOLB   C2B12586  14.530  24.110  28.340
  525BOLB   C3B12587  14.270  24.420  28.390
  525BOLB   C4B12588  13.880  24.560  28.430
  525BOLB   NC212589  12.830   0.150  26.730
  525BOLB   PO212590  12.400  26.420  26.900
  525BOLB   GL312591  12.560  26.020  26.850
  525BOLB   GL412592  12.610  25.810  26.670
  525BOLB   C1C12593  12.980  25.840  27.020
  525BOLB   C2C12594  13.240  25.500  27.130
  525BOLB   C3C12595  13.370  25.190  27.390
  525BOLB   C4C12596  13.810  24.980  27.430
  525BOLB   C1D12597  12.830  25.390  26.780
  525BOLB   C2D12598  13.070  25.010  26.930
  525BOLB   C3D12599  13.380  24.770  27.130
  525BOLB   C4D12600  13.670  24.430  27.300
  526BOLB   NC112601  20.810   8.810  31.660
  526BOLB   PO112602  20.600   8.760  31.370
  526BOLB   GL112603  20.520   8.340  31.200
  526BOLB   GL212604  20.270   8.460  31.080
  526BOLB   C1A12605  20.770   8.000  31.190
  526BOLB   C2A12606  20.580   7.580  31.260
  526BOLB   C3A12607  20.300   7.230  31.170
  526BOLB   C4A12608  20.050   7.040  30.820
  526BOLB   C1B12609  20.180   8.020  31.080
  526BOLB   C2B12610  20.090   7.650  31.170
  526BOLB   C3B12611  19.790   7.300  31.130
  526BOLB   C4B12612  19.540   6.960  31.050
  526BOLB   NC212613  19.360   4.690  30.410
  526BOLB   PO212614  19.120   4.970  30.740
  526BOLB   GL312615  19.320   5.360  30.500
  526BOLB   GL412616  19.290   5.650  30.780
  526BOLB   C1C12617  19.510   5.610  30.270
  526BOLB   C2C12618  19.450   5.950  30.390
  526BOLB   C3C12619  19.750   6.260  30.460
  526BOLB   C4C12620  19.850   6.710  30.510
  526BOLB   C1D12621  19.730   5.610  30.690
  526BOLB   C2D12622  20.220   5.460  30.780
  526BOLB   C3D12623  20.400   5.730  31.030
  526BOLB   C4D12624  20.700   6.110  30.770
  527BOLB   NC112625  17.400  12.980  38.460
  527BOLB   PO112626  17.260  13.300  38.670
  527BOLB   GL112627  16.870  13.030  38.740
  527BOLB   GL212628  16.940  12.710  38.680
  527BOLB   C1A12629  16.490  12.920  38.960
  527BOLB   C2A12630  16.290  12.580  39.130
  527BOLB   C3A12631  16.030  12.290  39.320
  527BOLB   C4A12632  15.860  12.320  39.800
  527BOLB   C1B12633  16.860  12.260  38.670
  527BOLB   C2B12634  16.860  11.790  38.890
  527BOLB   C3B12635  16.700  11.670  39.300
  527BOLB   C4B12636  16.650  11.460  39.760
  527BOLB   NC212637  13.420  11.790  40.220
  527BOLB   PO212638  13.460  12.030  40.030
  527BOLB   GL312639  13.810  12.070  39.830
  527BOLB   GL412640  13.870  11.960  39.480
  527BOLB   C1C12641  14.200  12.180  39.780
  527BOLB   C2C12642  14.650  12.210  39.900
  527BOLB   C3C12643  15.080  12.120  40.040
  527BOLB   C4C12644  15.520  12.040  39.880
  527BOLB   C1D12645  14.090  12.320  39.200
  527BOLB   C2D12646  14.210  12.610  38.850
  527BOLB   C3D12647  14.510  12.880  38.680
  527BOLB   C4D12648  14.740  13.050  38.400
  528BOLB   NC112649  31.255   6.180  27.940
  528BOLB   PO112650  30.795   6.200  28.120
  528BOLB   GL112651  30.535   6.680  28.140
  528BOLB   GL212652  30.365   6.580  27.880
  528BOLB   C1A12653  30.085   6.950  28.170
  528BOLB   C2A12654  29.875   7.220  28.280
  528BOLB   C3A12655  29.495   7.430  28.120
  528BOLB   C4A12656  29.225   7.600  27.840
  528BOLB   C1B12657  30.355   7.020  27.690
  528BOLB   C2B12658  30.085   7.340  27.820
  528BOLB   C3B12659  30.065   7.690  28.040
  528BOLB   C4B12660  30.175   7.890  28.450
  528BOLB   NC212661  30.265   6.490  26.750
  528BOLB   PO212662  30.575   6.680  26.440
  528BOLB   GL312663  30.285   7.020  26.600
  528BOLB   GL412664  30.325   7.370  26.550
  528BOLB   C1C12665  29.905   7.180  26.600
  528BOLB   C2C12666  29.515   7.280  26.670
  528BOLB   C3C12667  29.265   7.600  26.840
  528BOLB   C4C12668  29.155   7.550  27.360
  528BOLB   C1D12669  30.035   7.640  26.370
  528BOLB   C2D12670  29.765   7.800  26.470
  528BOLB   C3D12671  29.825   8.160  26.710
  528BOLB   C4D12672  29.945   8.570  26.610
  529BOLB   NC112673  21.920  16.910  43.760
  529BOLB   PO112674  22.080  16.610  43.510
  529BOLB   GL112675  22.030  16.380  43.870
  529BOLB   GL212676  21.710  16.490  43.940
  529BOLB   C1A12677  21.930  16.220  44.270
  529BOLB   C2A12678  22.040  15.830  44.570
  529BOLB   C3A12679  21.900  15.950  45.030
  529BOLB   C4A12680  21.940  15.940  45.450
  529BOLB   C1B12681  21.600  16.590  44.290
  529BOLB   C2B12682  21.730  16.530  44.670
  529BOLB   C3B12683  21.910  16.470  45.130
  529BOLB   C4B12684  21.960  16.430  45.570
  529BOLB   NC212685  21.850  17.340  47.990
  529BOLB   PO212686  22.030  17.120  47.620
  529BOLB   GL312687  21.930  16.940  47.150
  529BOLB   GL412688  22.160  17.030  46.960
  529BOLB   C1C12689  21.540  16.680  47.030
  529BOLB   C2C12690  21.540  16.280  46.740
  529BOLB   C3C12691  21.670  16.060  46.380
  529BOLB   C4C12692  21.780  16.010  45.930
  529BOLB   C1D12693  21.860  16.800  46.660
  529BOLB   C2D12694  21.590  16.690  46.340
  529BOLB   C3D12695  21.460  16.410  46.120
  529BOLB   C4D12696  21.160  16.300  45.890
  530BOLB   NC112697  27.985  14.590  27.770
  530BOLB   PO112698  28.395  14.770  27.850
  530BOLB   GL112699  28.645  14.990  27.640
  530BOLB   GL212700  28.865  15.040  28.010
  530BOLB   C1A12701  28.955  15.170  27.540
  530BOLB   C2A12702  29.405  15.370  27.540
  530BOLB   C3A12703  29.815  15.330  27.400
  530BOLB   C4A12704  30.125  15.170  27.110
  530BOLB   C1B12705  29.235  15.080  28.150
  530BOLB   C2B12706  29.495  15.410  28.260
  530BOLB   C3B12707  29.825  15.620  28.580
  530BOLB   C4B12708  30.225  15.760  28.500
  530BOLB   NC212709  32.135  16.800  26.810
  530BOLB   PO212710  32.075  16.470  26.560
  530BOLB   GL312711  31.885  16.040  26.580
  530BOLB   GL412712  32.005  15.870  26.760
  530BOLB   C1C12713  31.545  15.780  26.590
  530BOLB   C2C12714  31.335  15.470  26.920
  530BOLB   C3C12715  30.855  15.260  26.800
  530BOLB   C4C12716  30.475  15.200  26.940
  530BOLB   C1D12717  31.725  15.750  27.120
  530BOLB   C2D12718  31.385  15.930  27.340
  530BOLB   C3D12719  31.145  15.840  27.580
  530BOLB   C4D12720  30.825  15.830  27.760
  531BOLB   NC112721  25.910  16.950  25.660
  531BOLB   PO112722  26.120  17.000  25.170
  531BOLB   GL112723  26.545  16.990  25.130
  531BOLB   GL212724  26.505  17.320  24.980
  531BOLB   C1A12725  26.945  17.080  25.290
  531BOLB   C2A12726  27.415  17.190  25.330
  531BOLB   C3A12727  27.755  17.230  25.050
  531BOLB   C4A12728  28.265  17.310  24.960
  531BOLB   C1B12729  26.895  17.340  24.880
  531BOLB   C2B12730  27.255  17.510  24.810
  531BOLB   C3B12731  27.615  17.790  24.600
  531BOLB   C4B12732  27.825  18.160  24.600
  531BOLB   NC212733  31.095  18.410  24.050
  531BOLB   PO212734  30.615  18.310  24.130
  531BOLB   GL312735  30.165  18.070  24.060
  531BOLB   GL412736  30.235  17.790  23.870
  531BOLB   C1C12737  29.885  17.880  24.300
  531BOLB   C2C12738  29.445  17.620  24.490
  531BOLB   C3C12739  29.095  17.400  24.540
  531BOLB   C4C12740  28.655  17.350  24.650
  531BOLB   C1D12741  29.905  17.480  23.940
  531BOLB   C2D12742  29.475  17.340  24.080
  531BOLB   C3D12743  29.085  17.420  24.040
  531BOLB   C4D12744  28.775  17.170  23.970
  532BOLB   NC112745  16.000  22.940  24.600
  532BOLB   PO112746  15.920  23.050  24.200
  532BOLB   GL112747  16.000  23.270  23.980
  532BOLB   GL212748  16.220  23.410  23.810
  532BOLB   C1A12749  15.770  23.430  23.660
  532BOLB   C2A12750  15.940  23.400  23.290
  532BOLB   C3A12751  16.160  23.600  22.970
  532BOLB   C4A12752  16.170  23.780  22.490
  532BOLB   C1B12753  16.160  23.690  23.610
  532BOLB   C2B12754  15.990  23.950  23.660
  532BOLB   C3B12755  16.000  24.140  23.940
  532BOLB   C4B12756  16.160  24.190  24.310
  532BOLB   NC212757  16.690  25.400  20.880
  532BOLB   PO212758  16.650  25.140  20.550
  532BOLB   GL312759  16.790  24.910  20.870
  532BOLB   GL412760  16.570  25.070  21.280
  532BOLB   C1C12761  16.620  24.520  21.120
  532BOLB   C2C12762  16.650  24.380  21.540
  532BOLB   C3C12763  16.370  24.090  21.650
  532BOLB   C4C12764  16.210  23.830  21.990
  532BOLB   C1D12765  16.740  24.990  21.680
  532BOLB   C2D12766  16.510  25.030  22.030
  532BOLB   C3D12767  16.280  24.730  22.290
  532BOLB   C4D12768  16.520  24.640  22.680
  533BOLB   NC112769  25.240   8.590  26.600
  533BOLB   PO112770  24.980   8.330  26.660
  533BOLB   GL112771  24.950   7.980  26.450
  533BOLB   GL212772  24.730   8.050  26.160
  533BOLB   C1A12773  24.990   7.610  26.220
  533BOLB   C2A12774  25.160   7.180  26.190
  533BOLB   C3A12775  25.490   7.040  25.890
  533BOLB   C4A12776  25.690   7.020  25.530
  533BOLB   C1B12777  24.860   7.840  25.840
  533BOLB   C2B12778  24.640   7.680  25.560
  533BOLB   C3B12779  24.380   7.470  25.160
  533BOLB   C4B12780  24.470   7.150  24.900
  533BOLB   NC212781  26.645   5.170  25.140
  533BOLB   PO212782  26.935   5.330  24.800
  533BOLB   GL312783  26.735   5.730  24.600
  533BOLB   GL412784  27.055   6.030  24.560
  533BOLB   C1C12785  26.515   6.100  24.510
  533BOLB   C2C12786  26.370   6.510  24.610
  533BOLB   C3C12787  26.290   6.980  24.840
  533BOLB   C4C12788  25.960   7.050  25.100
  533BOLB   C1D12789  27.035   6.180  24.820
  533BOLB   C2D12790  27.015   6.460  25.140
  533BOLB   C3D12791  26.925   6.710  25.480
  533BOLB   C4D12792  27.075   6.850  25.930
  534BOLB   NC112793  16.160  14.970  38.710
  534BOLB   PO112794  16.350  14.620  38.530
  534BOLB   GL112795  16.210  14.450  38.900
  534BOLB   GL212796  15.960  14.610  38.990
  534BOLB   C1A12797  15.900  14.190  39.150
  534BOLB   C2A12798  15.510  13.890  39.310
  534BOLB   C3A12799  15.180  13.690  39.480
  534BOLB   C4A12800  14.810  13.570  39.750
  534BOLB   C1B12801  15.590  14.580  39.260
  534BOLB   C2B12802  15.150  14.580  39.230
  534BOLB   C3B12803  14.820  14.690  39.460
  534BOLB   C4B12804  14.430  14.480  39.670
  534BOLB   NC212805  12.770  13.690  40.550
  534BOLB   PO212806  12.800  13.960  40.950
  534BOLB   GL312807  13.160  13.990  40.700
  534BOLB   GL412808  13.250  13.630  40.680
  534BOLB   C1C12809  13.570  14.050  40.530
  534BOLB   C2C12810  13.860  13.920  40.210
  534BOLB   C3C12811  14.300  13.790  40.140
  534BOLB   C4C12812  14.630  13.660  40.030
  534BOLB   C1D12813  13.640  13.530  40.450
  534BOLB   C2D12814  13.960  13.300  40.220
  534BOLB   C3D12815  14.000  13.170  39.820
  534BOLB   C4D12816  14.360  13.400  39.690
  535BOLB   NC112817  19.980  11.530  25.450
  535BOLB   PO112818  19.880  10.990  25.200
  535BOLB   GL112819  19.530  10.850  25.240
  535BOLB   GL212820  19.510  10.540  25.230
  535BOLB   C1A12821  19.290  11.020  24.940
  535BOLB   C2A12822  19.050  10.890  24.680
  535BOLB   C3A12823  18.790  10.650  24.480
  535BOLB   C4A12824  18.700  10.280  24.330
  535BOLB   C1B12825  19.160  10.530  25.020
  535BOLB   C2B12826  18.890  10.170  24.990
  535BOLB   C3B12827  18.480  10.080  24.740
  535BOLB   C4B12828  18.210  10.290  24.510
  535BOLB   NC212829  16.750   9.500  23.530
  535BOLB   PO212830  16.980   9.280  23.130
  535BOLB   GL312831  17.230   9.410  23.500
  535BOLB   GL412832  17.110   9.630  23.860
  535BOLB   C1C12833  17.530   9.610  23.700
  535BOLB   C2C12834  17.970   9.690  23.660
  535BOLB   C3C12835  18.320   9.920  23.690
  535BOLB   C4C12836  18.310   9.990  24.150
  535BOLB   C1D12837  17.330   9.940  23.990
  535BOLB   C2D12838  17.750   9.870  24.170
  535BOLB   C3D12839  17.970   9.770  24.540
  535BOLB   C4D12840  18.340   9.650  24.510
  536BOLB   NC112841  21.120  11.910  41.090
  536BOLB   PO112842  21.380  11.980  41.410
  536BOLB   GL112843  21.020  11.780  41.610
  536BOLB   GL212844  21.090  11.460  41.620
  536BOLB   C1A12845  20.660  11.720  41.810
  536BOLB   C2A12846  20.660  11.570  42.140
  536BOLB   C3A12847  20.360  11.420  42.460
  536BOLB   C4A12848  20.590  11.330  42.810
  536BOLB   C1B12849  20.810  11.150  41.790
  536BOLB   C2B12850  20.640  11.060  42.240
  536BOLB   C3B12851  20.430  10.920  42.550
  536BOLB   C4B12852  20.020  10.700  42.480
  536BOLB   NC212853  19.120   9.950  44.840
  536BOLB   PO212854  19.520  10.110  44.590
  536BOLB   GL312855  19.740   9.980  44.210
  536BOLB   GL412856  19.450   9.970  44.010
  536BOLB   C1C12857  20.230   9.990  44.090
  536BOLB   C2C12858  20.630  10.310  44.050
  536BOLB   C3C12859  20.560  10.740  43.740
  536BOLB   C4C12860  20.590  10.950  43.210
  536BOLB   C1D12861  19.400  10.440  43.940
  536BOLB   C2D12862  19.530  10.570  43.550
  536BOLB   C3D12863  19.640  10.900  43.380
  536BOLB   C4D12864  19.670  11.200  43.600
  537BOLB   NC112865  28.645  10.800  27.710
  537BOLB   PO112866  28.405  10.430  27.820
  537BOLB   GL112867  28.595  10.220  27.550
  537BOLB   GL212868  28.935  10.420  27.460
  537BOLB   C1A12869  28.875   9.910  27.490
  537BOLB   C2A12870  29.355   9.880  27.310
  537BOLB   C3A12871  29.725   9.750  27.160
  537BOLB   C4A12872  30.115   9.560  27.200
  537BOLB   C1B12873  29.235  10.290  27.090
  537BOLB   C2B12874  29.385   9.960  26.780
  537BOLB   C3B12875  29.665   9.700  26.630
  537BOLB   C4B12876  29.875   9.520  26.380
  537BOLB   NC212877  31.945   8.870  26.000
  537BOLB   PO212878  32.255   9.250  25.910
  537BOLB   GL312879  31.855   9.370  26.140
  537BOLB   GL412880  31.625   9.410  25.840
  537BOLB   C1C12881  31.585   9.420  26.410
  537BOLB   C2C12882  31.185   9.320  26.530
  537BOLB   C3C12883  30.895   9.480  26.870
  537BOLB   C4C12884  30.535   9.630  27.080
  537BOLB   C1D12885  31.215   9.490  25.900
  537BOLB   C2D12886  31.155   9.730  26.230
  537BOLB   C3D12887  31.125   9.880  26.660
  537BOLB   C4D12888  31.055   9.880  27.000
  538BOLB   NC112889  24.090  12.260  41.090
  538BOLB   PO112890  24.080  11.780  41.060
  538BOLB   GL112891  24.140  11.420  41.460
  538BOLB   GL212892  24.280  11.540  41.910
  538BOLB   C1A12893  24.080  11.060  41.690
  538BOLB   C2A12894  24.070  11.030  42.160
  538BOLB   C3A12895  24.170  10.760  42.540
  538BOLB   C4A12896  24.110  10.230  42.480
  538BOLB   C1B12897  24.650  11.440  42.250
  538BOLB   C2B12898  24.510  11.140  42.540
  538BOLB   C3B12899  24.700  10.750  42.790
  538BOLB   C4B12900  24.760  10.600  43.130
  538BOLB   NC212901  24.460   8.050  43.380
  538BOLB   PO212902  24.120   8.120  43.620
  538BOLB   GL312903  24.160   8.500  43.490
  538BOLB   GL412904  24.570   8.630  43.330
  538BOLB   C1C12905  24.060   8.790  43.320
  538BOLB   C2C12906  24.020   9.100  43.110
  538BOLB   C3C12907  23.930   9.490  42.870
  538BOLB   C4C12908  23.880   9.860  42.610
  538BOLB   C1D12909  24.510   8.930  43.090
  538BOLB   C2D12910  24.650   9.200  42.760
  538BOLB   C3D12911  24.780   9.430  42.440
  538BOLB   C4D12912  24.900   9.240  42.000
  539BOLB   NC112913  28.035  14.160  25.930
  539BOLB   PO112914  28.175  14.290  26.310
  539BOLB   GL112915  28.405  14.490  25.920
  539BOLB   GL212916  28.535  14.810  25.980
  539BOLB   C1A12917  28.685  14.320  25.560
  539BOLB   C2A12918  29.055  14.350  25.290
  539BOLB   C3A12919  29.355  14.670  25.230
  539BOLB   C4A12920  29.395  14.870  24.910
  539BOLB   C1B12921  28.915  14.940  25.810
  539BOLB   C2B12922  29.285  15.150  25.590
  539BOLB   C3B12923  29.575  15.420  25.670
  539BOLB   C4B12924  29.975  15.670  25.740
  539BOLB   NC212925  31.535  15.400  23.510
  539BOLB   PO212926  31.415  15.640  23.970
  539BOLB   GL312927  30.975  15.530  23.960
  539BOLB   GL412928  30.835  15.490  24.380
  539BOLB   C1C12929  30.545  15.490  24.000
  539BOLB   C2C12930  30.115  15.540  24.270
  539BOLB   C3C12931  29.725  15.460  24.460
  539BOLB   C4C12932  29.475  15.240  24.670
  539BOLB   C1D12933  30.585  15.660  24.600
  539BOLB   C2D12934  30.225  15.510  24.790
  539BOLB   C3D12935  30.135  15.190  24.760
  539BOLB   C4D12936  29.905  14.810  24.800
  540BOLB   NC112937  23.610  18.200  17.910
  540BOLB   PO112938  24.070  18.230  17.860
  540BOLB   GL112939  24.030  18.300  18.260
  540BOLB   GL212940  23.780  18.150  18.340
  540BOLB   C1A12941  23.890  18.370  18.790
  540BOLB   C2A12942  23.750  18.630  19.150
  540BOLB   C3A12943  23.620  18.560  19.630
  540BOLB   C4A12944  23.480  18.530  19.960
  540BOLB   C1B12945  23.480  18.020  18.700
  540BOLB   C2B12946  23.630  18.030  19.180
  540BOLB   C3B12947  23.910  18.250  19.460
  540BOLB   C4B12948  23.820  18.030  19.910
  540BOLB   NC212949  22.650  16.850  21.070
  540BOLB   PO212950  23.090  16.570  21.030
  540BOLB   GL312951  23.090  16.980  20.810
  540BOLB   GL412952  23.120  17.310  20.950
  540BOLB   C1C12953  22.830  17.190  20.460
  540BOLB   C2C12954  22.900  17.610  20.490
  540BOLB   C3C12955  23.070  17.980  20.560
  540BOLB   C4C12956  23.190  18.310  20.260
  540BOLB   C1D12957  23.370  17.630  20.690
  540BOLB   C2D12958  23.640  17.780  20.360
  540BOLB   C3D12959  23.700  18.200  20.380
  540BOLB   C4D12960  23.720  18.690  20.380
  541BOLB   NC112961  15.980  13.230  29.250
  541BOLB   PO112962  15.990  13.020  28.840
  541BOLB   GL112963  15.660  12.800  28.620
  541BOLB   GL212964  15.760  12.530  28.920
  541BOLB   C1A12965  15.370  13.010  28.460
  541BOLB   C2A12966  15.070  12.910  28.160
  541BOLB   C3A12967  14.710  12.690  28.050
  541BOLB   C4A12968  14.530  12.770  27.670
  541BOLB   C1B12969  15.680  12.040  28.780
  541BOLB   C2B12970  15.500  11.650  28.800
  541BOLB   C3B12971  15.570  11.180  28.640
  541BOLB   C4B12972  15.790  10.930  28.390
  541BOLB   NC212973  12.230  12.060  26.490
  541BOLB   PO212974  12.650  12.070  26.380
  541BOLB   GL312975  12.930  12.330  26.660
  541BOLB   GL412976  12.870  12.680  26.820
  541BOLB   C1C12977  13.270  12.390  26.700
  541BOLB   C2C12978  13.650  12.510  26.940
  541BOLB   C3C12979  14.060  12.720  27.030
  541BOLB   C4C12980  14.400  12.710  27.250
  541BOLB   C1D12981  12.890  13.190  26.780
  541BOLB   C2D12982  12.920  13.610  26.740
  541BOLB   C3D12983  13.270  13.950  26.730
  541BOLB   C4D12984  13.620  14.000  27.020
  542BOLB   NC112985  14.100  19.770  35.850
  542BOLB   PO112986  13.870  19.530  35.690
  542BOLB   GL112987  13.490  19.810  35.630
  542BOLB   GL212988  13.310  19.670  35.400
  542BOLB   C1A12989  13.140  19.950  35.810
  542BOLB   C2A12990  12.800  19.930  36.050
  542BOLB   C3A12991  12.470  20.000  36.140
  542BOLB   C4A12992  12.060  19.880  36.370
  542BOLB   C1B12993  12.830  19.690  35.560
  542BOLB   C2B12994  12.390  19.840  35.640
  542BOLB   C3B12995  12.020  19.990  35.860
  542BOLB   C4B12996  11.630  19.970  36.070
  542BOLB   NC212997   9.870  20.350  37.160
  542BOLB   PO212998  10.090  20.160  37.450
  542BOLB   GL312999  10.320  20.050  37.040
  542BOLB   GL413000  10.380  20.360  36.770
  542BOLB   C1C13001  10.790  20.170  37.030
  542BOLB   C2C13002  11.040  19.750  36.990
  542BOLB   C3C13003  11.470  19.660  36.910
  542BOLB   C4C13004  11.740  19.870  36.620
  542BOLB   C1D13005  10.720  20.690  36.650
  542BOLB   C2D13006  11.050  20.980  36.820
  542BOLB   C3D13007  11.330  21.390  36.900
  542BOLB   C4D13008  11.340  21.830  36.730
  543BOLB   NC113009  27.165   7.420  42.890
  543BOLB   PO113010  26.755   7.700  43.100
  543BOLB   GL113011  26.535   7.970  42.680
  543BOLB   GL213012  26.635   8.300  42.820
  543BOLB   C1A13013  26.455   8.130  42.320
  543BOLB   C2A13014  26.280   8.310  41.990
  543BOLB   C3A13015  26.040   8.620  41.770
  543BOLB   C4A13016  25.830   8.970  41.820
  543BOLB   C1B13017  26.855   8.390  42.430
  543BOLB   C2B13018  26.695   8.600  42.120
  543BOLB   C3B13019  26.705   8.770  41.770
  543BOLB   C4B13020  27.015   9.020  41.580
  543BOLB   NC213021  25.510   7.810  43.260
  543BOLB   PO213022  25.360   8.090  43.580
  543BOLB   GL313023  25.350   8.560  43.470
  543BOLB   GL413024  25.120   8.800  43.370
  543BOLB   C1C13025  25.600   8.960  43.380
  543BOLB   C2C13026  25.680   9.210  43.000
  543BOLB   C3C13027  25.770   9.170  42.570
  543BOLB   C4C13028  25.670   9.100  42.190
  543BOLB   C1D13029  24.990   9.060  43.020
  543BOLB   C2D13030  25.130   9.290  42.750
  543BOLB   C3D13031  25.300   9.410  42.410
  543BOLB   C4D13032  25.320   9.510  41.890
  544BOLB   NC113033  23.400  20.530  28.440
  544BOLB   PO113034  23.670  20.590  28.680
  544BOLB   GL113035  24.110  20.900  28.710
  544BOLB   GL213036  24.170  21.190  28.390
  544BOLB   C1A13037  24.350  21.300  28.870
  544BOLB   C2A13038  24.720  21.590  29.120
  544BOLB   C3A13039  25.050  21.850  29.090
  544BOLB   C4A13040  25.560  22.050  29.120
  544BOLB   C1B13041  24.660  21.090  28.410
  544BOLB   C2B13042  25.140  21.090  28.540
  544BOLB   C3B13043  25.550  21.240  28.650
  544BOLB   C4B13044  25.860  20.950  28.550
  544BOLB   NC213045  26.985  22.580  29.540
  544BOLB   PO213046  27.175  22.160  29.550
  544BOLB   GL313047  26.725  22.150  29.580
  544BOLB   GL413048  26.475  22.400  29.550
  544BOLB   C1C13049  26.465  22.060  29.950
  544BOLB   C2C13050  26.080  21.900  30.000
  544BOLB   C3C13051  25.720  21.820  29.720
  544BOLB   C4C13052  25.730  21.920  29.340
  544BOLB   C1D13053  26.210  22.100  29.470
  544BOLB   C2D13054  26.110  21.650  29.300
  544BOLB   C3D13055  25.800  21.500  29.130
  544BOLB   C4D13056  25.420  21.590  29.000
  545BOLB   NC113057  28.225  16.520  32.270
  545BOLB   PO113058  28.105  16.840  32.020
  545BOLB   GL113059  28.145  17.270  32.010
  545BOLB   GL213060  27.905  17.360  32.010
  545BOLB   C1A13061  28.375  17.730  31.930
  545BOLB   C2A13062  28.725  17.860  32.060
  545BOLB   C3A13063  28.915  18.260  32.120
  545BOLB   C4A13064  29.345  18.360  32.090
  545BOLB   C1B13065  27.935  17.670  31.660
  545BOLB   C2B13066  28.105  18.180  31.570
  545BOLB   C3B13067  28.305  18.520  31.300
  545BOLB   C4B13068  28.595  18.800  30.960
  545BOLB   NC213069  29.555  20.850  32.840
  545BOLB   PO213070  29.695  20.610  33.170
  545BOLB   GL313071  29.605  20.080  33.050
  545BOLB   GL413072  29.655  19.950  33.450
  545BOLB   C1C13073  29.595  19.560  33.010
  545BOLB   C2C13074  29.545  19.130  32.850
  545BOLB   C3C13075  29.695  18.820  32.690
  545BOLB   C4C13076  29.525  18.690  32.370
  545BOLB   C1D13077  29.235  19.730  33.650
  545BOLB   C2D13078  28.975  19.550  33.940
  545BOLB   C3D13079  28.535  19.610  34.030
  545BOLB   C4D13080  28.265  19.350  34.250
  546BOLB   NC113081  24.210  21.750  38.450
  546BOLB   PO113082  24.100  21.550  38.850
  546BOLB   GL113083  24.430  21.750  38.930
  546BOLB   GL213084  24.440  21.880  39.220
  546BOLB   C1A13085  24.810  22.000  38.940
  546BOLB   C2A13086  25.110  22.250  38.920
  546BOLB   C3A13087  25.360  22.490  39.130
  546BOLB   C4A13088  25.370  22.910  39.060
  546BOLB   C1B13089  24.480  22.220  39.400
  546BOLB   C2B13090  24.770  22.320  39.710
  546BOLB   C3B13091  25.250  22.440  39.850
  546BOLB   C4B13092  25.260  22.890  39.730
  546BOLB   NC213093  26.825  24.980  39.330
  546BOLB   PO213094  26.535  24.720  39.290
  546BOLB   GL313095  26.270  24.300  39.280
  546BOLB   GL413096  26.190  24.480  38.900
  546BOLB   C1C13097  26.140  23.940  39.350
  546BOLB   C2C13098  25.970  23.700  39.420
  546BOLB   C3C13099  25.760  23.330  39.330
  546BOLB   C4C13100  25.540  23.010  39.330
  546BOLB   C1D13101  25.880  24.160  38.920
  546BOLB   C2D13102  25.610  23.840  38.720
  546BOLB   C3D13103  25.170  23.680  38.560
  546BOLB   C4D13104  24.990  23.500  38.350
  547BOLB   NC113105  20.050  17.760  42.860
  547BOLB   PO113106  19.870  17.800  43.360
  547BOLB   GL113107  19.890  18.010  43.750
  547BOLB   GL213108  20.280  18.310  43.800
  547BOLB   C1A13109  19.680  17.970  44.190
  547BOLB   C2A13110  19.520  17.890  44.570
  547BOLB   C3A13111  19.300  18.030  44.930
  547BOLB   C4A13112  19.040  18.050  45.270
  547BOLB   C1B13113  20.020  18.290  44.140
  547BOLB   C2B13114  20.030  18.090  44.520
  547BOLB   C3B13115  19.960  17.920  45.020
  547BOLB   C4B13116  19.620  17.790  45.350
  547BOLB   NC213117  18.110  19.690  46.940
  547BOLB   PO213118  18.210  19.950  46.650
  547BOLB   GL313119  18.520  19.770  46.310
  547BOLB   GL413120  18.480  19.890  46.030
  547BOLB   C1C13121  18.770  19.470  46.220
  547BOLB   C2C13122  18.910  19.060  46.010
  547BOLB   C3C13123  19.140  18.660  46.060
  547BOLB   C4C13124  19.070  18.270  45.690
  547BOLB   C1D13125  18.720  19.790  45.690
  547BOLB   C2D13126  18.970  19.850  45.300
  547BOLB   C3D13127  19.270  19.810  45.020
  547BOLB   C4D13128  19.170  19.930  44.660
  548BOLB   NC113129  15.190  15.850  25.880
  548BOLB   PO113130  15.190  16.180  26.150
  548BOLB   GL113131  14.760  16.030  26.060
  548BOLB   GL213132  14.740  15.760  26.060
  548BOLB   C1A13133  14.320  15.840  26.230
  548BOLB   C2A13134  13.920  15.750  26.200
  548BOLB   C3A13135  13.570  15.500  26.030
  548BOLB   C4A13136  13.210  15.310  26.170
  548BOLB   C1B13137  14.510  15.730  25.700
  548BOLB   C2B13138  14.090  15.820  25.720
  548BOLB   C3B13139  13.650  15.850  25.630
  548BOLB   C4B13140  13.210  15.750  25.750
  548BOLB   NC213141  11.380  13.390  26.770
  548BOLB   PO213142  11.870  13.350  26.560
  548BOLB   GL313143  12.020  13.750  26.480
  548BOLB   GL413144  11.910  13.970  26.190
  548BOLB   C1C13145  12.440  13.980  26.470
  548BOLB   C2C13146  12.570  14.380  26.430
  548BOLB   C3C13147  12.730  14.750  26.360
  548BOLB   C4C13148  12.890  15.140  26.350
  548BOLB   C1D13149  12.020  14.400  26.330
  548BOLB   C2D13150  12.250  14.830  26.370
  548BOLB   C3D13151  12.440  15.230  26.440
  548BOLB   C4D13152  12.280  15.590  26.320
  549BOLB   NC113153  31.465   9.330  24.030
  549BOLB   PO113154  31.165   9.130  24.210
  549BOLB   GL113155  30.875   9.200  24.560
  549BOLB   GL213156  30.845   9.490  24.570
  549BOLB   C1A13157  30.465   9.150  24.690
  549BOLB   C2A13158  30.175   9.430  24.850
  549BOLB   C3A13159  29.835   9.750  24.860
  549BOLB   C4A13160  29.655  10.080  25.000
  549BOLB   C1B13161  30.515   9.800  24.670
  549BOLB   C2B13162  30.205  10.120  24.880
  549BOLB   C3B13163  30.055  10.440  24.780
  549BOLB   C4B13164  29.895  10.700  25.060
  549BOLB   NC213165  32.115   9.930  24.680
  549BOLB   PO213166  32.025  10.380  24.670
  549BOLB   GL313167  31.655  10.330  25.100
  549BOLB   GL413168  31.525  10.690  25.210
  549BOLB   C1C13169  31.335  10.250  25.330
  549BOLB   C2C13170  30.895  10.230  25.420
  549BOLB   C3C13171  30.475  10.340  25.240
  549BOLB   C4C13172  29.915  10.260  25.250
  549BOLB   C1D13173  31.365  11.040  25.520
  549BOLB   C2D13174  31.025  11.210  25.740
  549BOLB   C3D13175  30.675  11.120  25.890
  549BOLB   C4D13176  30.585  10.750  26.170
  550BOLB   NC113177  25.380   9.490  26.260
  550BOLB   PO113178  25.380   9.290  25.820
  550BOLB   GL113179  25.590   8.990  25.500
  550BOLB   GL213180  25.740   8.760  25.720
  550BOLB   C1A13181  25.740   8.710  25.210
  550BOLB   C2A13182  25.910   8.370  24.980
  550BOLB   C3A13183  26.180   8.180  24.780
  550BOLB   C4A13184  26.505   7.970  24.850
  550BOLB   C1B13185  25.990   8.400  25.540
  550BOLB   C2B13186  26.300   8.220  25.290
  550BOLB   C3B13187  26.675   8.220  25.240
  550BOLB   C4B13188  27.135   8.200  25.120
  550BOLB   NC213189  27.755   6.640  22.910
  550BOLB   PO213190  27.635   6.750  23.350
  550BOLB   GL313191  27.555   6.950  23.780
  550BOLB   GL413192  27.385   6.690  24.020
  550BOLB   C1C13193  27.455   7.210  24.010
  550BOLB   C2C13194  27.405   7.440  24.320
  550BOLB   C3C13195  27.375   7.750  24.480
  550BOLB   C4C13196  27.005   7.860  24.640
  550BOLB   C1D13197  27.045   6.910  24.200
  550BOLB   C2D13198  26.895   7.340  24.340
  550BOLB   C3D13199  26.475   7.580  24.350
  550BOLB   C4D13200  26.615   7.980  24.400
  551BOLB   NC113201  22.300   8.380  30.240
  551BOLB   PO113202  22.630   8.260  29.970
  551BOLB   GL113203  22.280   8.130  29.810
  551BOLB   GL213204  21.980   8.200  29.740
  551BOLB   C1A13205  22.300   7.680  29.700
  551BOLB   C2A13206  22.180   7.320  29.740
  551BOLB   C3A13207  21.930   7.010  29.560
  551BOLB   C4A13208  21.770   6.600  29.370
  551BOLB   C1B13209  21.790   7.750  29.660
  551BOLB   C2B13210  21.550   7.250  29.720
  551BOLB   C3B13211  21.580   6.770  29.860
  551BOLB   C4B13212  21.730   6.420  29.850
  551BOLB   NC213213  19.940   5.240  27.530
  551BOLB   PO213214  20.360   5.170  27.850
  551BOLB   GL313215  20.540   5.490  27.990
  551BOLB   GL413216  20.480   5.610  27.680
  551BOLB   C1C13217  20.830   5.700  28.210
  551BOLB   C2C13218  21.170   5.720  28.560
  551BOLB   C3C13219  21.480   5.880  28.870
  551BOLB   C4C13220  21.440   6.360  29.000
  551BOLB   C1D13221  20.730   5.940  27.680
  551BOLB   C2D13222  20.780   6.410  27.530
  551BOLB   C3D13223  20.900   6.810  27.310
  551BOLB   C4D13224  20.990   7.000  26.960
  552BOLB   NC113225  23.270  21.290  26.000
  552BOLB   PO113226  23.220  21.200  25.530
  552BOLB   GL113227  23.630  21.340  25.330
  552BOLB   GL213228  23.790  21.490  25.520
  552BOLB   C1A13229  23.930  21.320  25.010
  552BOLB   C2A13230  24.250  21.470  24.960
  552BOLB   C3A13231  24.590  21.650  25.140
  552BOLB   C4A13232  24.990  21.700  24.910
  552BOLB   C1B13233  23.950  21.760  25.290
  552BOLB   C2B13234  24.140  21.970  24.950
  552BOLB   C3B13235  24.240  22.200  24.530
  552BOLB   C4B13236  24.500  22.290  24.190
  552BOLB   NC213237  26.320  23.350  23.460
  552BOLB   PO213238  26.020  23.520  23.870
  552BOLB   GL313239  25.740  23.190  23.820
  552BOLB   GL413240  25.460  23.190  23.590
  552BOLB   C1C13241  25.670  22.880  23.950
  552BOLB   C2C13242  25.410  22.710  24.300
  552BOLB   C3C13243  25.200  22.420  24.570
  552BOLB   C4C13244  25.250  21.990  24.900
  552BOLB   C1D13245  25.230  23.110  23.910
  552BOLB   C2D13246  24.970  22.740  24.070
  552BOLB   C3D13247  24.580  22.740  23.970
  552BOLB   C4D13248  24.170  22.720  24.000
  553BOLB   NC113249  21.610   9.400  25.480
  553BOLB   PO113250  21.360   9.830  25.630
  553BOLB   GL113251  21.120   9.460  25.560
  553BOLB   GL213252  20.880   9.520  25.280
  553BOLB   C1A13253  20.970   9.080  25.590
  553BOLB   C2A13254  21.060   8.670  25.760
  553BOLB   C3A13255  21.170   8.370  25.590
  553BOLB   C4A13256  20.980   7.940  25.480
  553BOLB   C1B13257  20.650   9.120  25.150
  553BOLB   C2B13258  20.380   8.910  25.050
  553BOLB   C3B13259  19.950   8.680  24.770
  553BOLB   C4B13260  20.060   8.450  24.390
  553BOLB   NC213261  20.440   5.810  24.740
  553BOLB   PO213262  20.120   6.000  24.780
  553BOLB   GL313263  20.160   6.370  24.960
  553BOLB   GL413264  19.930   6.560  24.790
  553BOLB   C1C13265  20.270   6.790  25.230
  553BOLB   C2C13266  20.360   7.080  25.400
  553BOLB   C3C13267  20.490   7.460  25.300
  553BOLB   C4C13268  20.780   7.730  25.240
  553BOLB   C1D13269  19.790   6.920  24.830
  553BOLB   C2D13270  19.600   7.330  24.980
  553BOLB   C3D13271  19.110   7.490  24.940
  553BOLB   C4D13272  18.790   7.460  25.170
  554BOLB   NC113273  24.420  21.300  37.750
  554BOLB   PO113274  24.240  21.530  38.030
  554BOLB   GL113275  24.550  21.780  37.980
  554BOLB   GL213276  24.790  21.640  38.030
  554BOLB   C1A13277  24.750  22.240  38.040
  554BOLB   C2A13278  24.810  22.540  37.830
  554BOLB   C3A13279  24.640  22.940  37.860
  554BOLB   C4A13280  24.760  23.330  37.910
  554BOLB   C1B13281  25.160  21.940  38.090
  554BOLB   C2B13282  25.520  22.220  38.250
  554BOLB   C3B13283  25.780  22.550  38.360
  554BOLB   C4B13284  25.990  22.970  38.450
  554BOLB   NC213285  26.875  24.990  37.000
  554BOLB   PO213286  26.635  24.650  37.100
  554BOLB   GL313287  26.150  24.550  37.250
  554BOLB   GL413288  25.830  24.710  37.260
  554BOLB   C1C13289  25.880  24.290  37.570
  554BOLB   C2C13290  25.660  23.950  37.670
  554BOLB   C3C13291  25.470  23.610  37.680
  554BOLB   C4C13292  25.110  23.500  37.840
  554BOLB   C1D13293  25.470  24.670  37.560
  554BOLB   C2D13294  25.090  24.510  37.640
  554BOLB   C3D13295  24.670  24.340  37.720
  554BOLB   C4D13296  24.240  24.390  37.450
  555BOLB   NC113297  22.450  11.670  23.060
  555BOLB   PO113298  22.420  11.160  23.120
  555BOLB   GL113299  22.230  10.830  22.790
  555BOLB   GL213300  22.030  10.620  23.000
  555BOLB   C1A13301  22.360  10.830  22.390
  555BOLB   C2A13302  22.210  10.950  22.050
  555BOLB   C3A13303  21.810  10.840  21.960
  555BOLB   C4A13304  21.410  10.590  21.880
  555BOLB   C1B13305  21.970  10.300  22.700
  555BOLB   C2B13306  21.750   9.950  22.620
  555BOLB   C3B13307  21.810   9.510  22.450
  555BOLB   C4B13308  21.930   9.090  22.500
  555BOLB   NC213309  20.710   9.360  19.890
  555BOLB   PO213310  21.050   9.100  19.990
  555BOLB   GL313311  21.060   9.540  20.250
  555BOLB   GL413312  20.700   9.540  20.330
  555BOLB   C1C13313  21.240   9.430  20.690
  555BOLB   C2C13314  21.460   9.480  21.160
  555BOLB   C3C13315  21.350   9.830  21.510
  555BOLB   C4C13316  21.410  10.210  21.640
  555BOLB   C1D13317  20.750   9.620  20.740
  555BOLB   C2D13318  20.780   9.590  21.150
  555BOLB   C3D13319  20.870   9.780  21.490
  555BOLB   C4D13320  21.000   9.920  21.900
  556BOLB   NC113321  28.985  15.540  36.440
  556BOLB   PO113322  29.185  15.300  35.990
  556BOLB   GL113323  29.445  15.590  35.900
  556BOLB   GL213324  29.715  15.410  35.750
  556BOLB   C1A13325  29.795  15.860  35.840
  556BOLB   C2A13326  30.185  16.060  35.760
  556BOLB   C3A13327  30.595  16.010  35.690
  556BOLB   C4A13328  30.975  16.040  35.510
  556BOLB   C1B13329  29.915  15.500  35.420
  556BOLB   C2B13330  30.355  15.700  35.400
  556BOLB   C3B13331  30.805  15.640  35.340
  556BOLB   C4B13332  31.185  15.500  35.380
  556BOLB   NC213333  33.035  17.290  35.430
  556BOLB   PO213334  32.885  17.110  35.000
  556BOLB   GL313335  32.635  17.020  35.240
  556BOLB   GL413336  32.385  17.120  34.940
  556BOLB   C1C13337  32.295  16.890  35.410
  556BOLB   C2C13338  32.005  16.560  35.610
  556BOLB   C3C13339  31.755  16.250  35.570
  556BOLB   C4C13340  31.275  16.230  35.540
  556BOLB   C1D13341  32.415  16.840  34.510
  556BOLB   C2D13342  32.265  16.600  34.330
  556BOLB   C3D13343  31.965  16.440  34.210
  556BOLB   C4D13344  31.795  16.050  34.150
  557BOLB   NC113345  16.800  13.520  38.820
  557BOLB   PO113346  17.090  13.600  39.140
  557BOLB   GL113347  16.790  13.190  39.240
  557BOLB   GL213348  16.550  13.380  39.260
  557BOLB   C1A13349  16.580  12.940  39.510
  557BOLB   C2A13350  16.230  12.760  39.660
  557BOLB   C3A13351  15.870  12.820  39.720
  557BOLB   C4A13352  15.600  12.840  39.850
  557BOLB   C1B13353  16.160  13.220  39.330
  557BOLB   C2B13354  15.890  12.980  39.230
  557BOLB   C3B13355  15.630  12.710  39.270
  557BOLB   C4B13356  15.200  12.790  39.290
  557BOLB   NC213357  14.170  10.770  40.750
  557BOLB   PO213358  14.050  11.190  40.500
  557BOLB   GL313359  14.240  11.490  40.370
  557BOLB   GL413360  14.620  11.560  40.500
  557BOLB   C1C13361  14.330  12.030  40.260
  557BOLB   C2C13362  14.390  12.380  40.300
  557BOLB   C3C13363  14.780  12.600  40.200
  557BOLB   C4C13364  15.140  12.790  40.000
  557BOLB   C1D13365  15.000  11.760  40.480
  557BOLB   C2D13366  15.390  12.010  40.440
  557BOLB   C3D13367  15.710  12.220  40.650
  557BOLB   C4D13368  16.030  12.310  41.040
  558BOLB   NC113369  29.845  13.450  31.270
  558BOLB   PO113370  29.575  13.360  31.020
  558BOLB   GL113371  29.825  13.400  30.640
  558BOLB   GL213372  30.005  13.180  30.560
  558BOLB   C1A13373  30.145  13.750  30.710
  558BOLB   C2A13374  30.235  14.100  30.950
  558BOLB   C3A13375  30.715  14.210  30.920
  558BOLB   C4A13376  31.115  14.330  31.150
  558BOLB   C1B13377  30.305  13.240  30.800
  558BOLB   C2B13378  30.695  13.230  30.790
  558BOLB   C3B13379  31.145  13.170  31.080
  558BOLB   C4B13380  31.385  13.430  31.470
  558BOLB   NC213381  33.325  14.600  30.400
  558BOLB   PO213382  33.225  15.020  30.110
  558BOLB   GL313383  32.905  15.020  30.370
  558BOLB   GL413384  32.635  15.230  30.550
  558BOLB   C1C13385  32.585  14.710  30.580
  558BOLB   C2C13386  32.235  14.590  30.670
  558BOLB   C3C13387  31.845  14.290  30.650
  558BOLB   C4C13388  31.545  14.280  30.920
  558BOLB   C1D13389  32.455  15.260  30.930
  558BOLB   C2D13390  32.055  15.370  31.210
  558BOLB   C3D13391  31.785  15.170  31.400
  558BOLB   C4D13392  31.425  15.010  31.560
  559BOLB   NC113393  19.830  11.490  39.260
  559BOLB   PO113394  19.370  11.570  39.000
  559BOLB   GL113395  19.330  11.150  38.930
  559BOLB   GL213396  19.210  11.040  38.600
  559BOLB   C1A13397  19.200  10.740  39.000
  559BOLB   C2A13398  19.080  10.370  38.810
  559BOLB   C3A13399  18.940   9.890  38.860
  559BOLB   C4A13400  18.830   9.690  39.120
  559BOLB   C1B13401  18.850  10.730  38.560
  559BOLB   C2B13402  18.570  10.370  38.550
  559BOLB   C3B13403  18.410   9.970  38.690
  559BOLB   C4B13404  18.290   9.650  39.020
  559BOLB   NC213405  17.660   7.980  40.810
  559BOLB   PO213406  17.520   8.290  40.670
  559BOLB   GL313407  17.940   8.340  40.500
  559BOLB   GL413408  18.130   8.420  40.720
  559BOLB   C1C13409  18.120   8.670  40.240
  559BOLB   C2C13410  18.210   9.090  40.030
  559BOLB   C3C13411  18.460   9.300  39.840
  559BOLB   C4C13412  18.610   9.490  39.470
  559BOLB   C1D13413  18.480   8.420  40.470
  559BOLB   C2D13414  18.810   8.610  40.500
  559BOLB   C3D13415  18.910   8.810  40.740
  559BOLB   C4D13416  19.150   9.020  41.110
  560BOLB   NC113417  18.380   1.770  29.520
  560BOLB   PO113418  18.720   1.860  29.250
  560BOLB   GL113419  18.950   1.500  29.160
  560BOLB   GL213420  18.900   1.500  28.870
  560BOLB   C1A13421  18.920   0.940  29.050
  560BOLB   C2A13422  18.960   0.670  29.360
  560BOLB   C3A13423  18.970   0.240  29.450
  560BOLB   C4A13424  18.890  26.260  29.100
  560BOLB   C1B13425  19.080   1.130  28.610
  560BOLB   C2B13426  19.050   0.820  28.300
  560BOLB   C3B13427  18.850   0.460  28.190
  560BOLB   C4B13428  18.500   0.240  28.430
  560BOLB   NC213429  19.800   1.850  28.490
  560BOLB   PO213430  19.790   1.780  28.010
  560BOLB   GL313431  19.550   1.400  27.990
  560BOLB   GL413432  19.260   1.570  27.840
  560BOLB   C1C13433  19.540   0.880  28.040
  560BOLB   C2C13434  19.350   0.460  28.170
  560BOLB   C3C13435  19.230   0.140  28.370
  560BOLB   C4C13436  18.900  26.390  28.610
  560BOLB   C1D13437  19.180   1.090  27.710
  560BOLB   C2D13438  19.110   0.690  27.780
  560BOLB   C3D13439  19.190   0.230  27.550
  560BOLB   C4D13440  18.990  26.430  27.270
  561BOLB   NC113441  21.000  14.080  21.890
  561BOLB   PO113442  20.820  13.680  21.860
  561BOLB   GL113443  20.460  13.640  21.510
  561BOLB   GL213444  20.390  13.710  21.260
  561BOLB   C1A13445  20.380  13.230  21.280
  561BOLB   C2A13446  20.390  12.960  20.840
  561BOLB   C3A13447  20.200  12.540  20.800
  561BOLB   C4A13448  19.760  12.330  20.760
  561BOLB   C1B13449  20.530  13.470  20.850
  561BOLB   C2B13450  20.590  13.260  20.460
  561BOLB   C3B13451  20.840  13.190  20.110
  561BOLB   C4B13452  20.850  13.080  19.710
  561BOLB   NC213453  19.260  10.290  19.290
  561BOLB   PO213454  19.510  10.660  19.150
  561BOLB   GL313455  19.610  10.990  19.440
  561BOLB   GL413456  19.660  11.030  19.800
  561BOLB   C1C13457  19.870  11.400  19.500
  561BOLB   C2C13458  19.890  11.500  19.890
  561BOLB   C3C13459  19.860  11.660  20.210
  561BOLB   C4C13460  19.570  12.040  20.450
  561BOLB   C1D13461  19.320  10.930  20.050
  561BOLB   C2D13462  19.350  11.020  20.450
  561BOLB   C3D13463  19.370  11.230  20.910
  561BOLB   C4D13464  19.530  11.220  21.350
  562BOLB   NC113465  18.180   7.280  23.570
  562BOLB   PO113466  17.930   7.620  23.480
  562BOLB   GL113467  18.080   7.920  23.720
  562BOLB   GL213468  18.070   8.100  24.010
  562BOLB   C1A13469  18.560   8.130  23.720
  562BOLB   C2A13470  18.800   8.560  23.630
  562BOLB   C3A13471  18.950   8.970  23.650
  562BOLB   C4A13472  18.690   9.310  23.640
  562BOLB   C1B13473  18.460   8.380  24.240
  562BOLB   C2B13474  18.760   8.390  24.620
  562BOLB   C3B13475  18.780   8.880  24.680
  562BOLB   C4B13476  19.060   9.210  24.820
  562BOLB   NC213477  16.980   8.730  22.930
  562BOLB   PO213478  17.080   8.440  23.270
  562BOLB   GL313479  17.150   8.810  23.480
  562BOLB   GL413480  17.350   8.900  23.260
  562BOLB   C1C13481  17.400   9.010  23.820
  562BOLB   C2C13482  17.590   9.360  24.110
  562BOLB   C3C13483  18.000   9.470  24.090
  562BOLB   C4C13484  18.410   9.390  23.900
  562BOLB   C1D13485  17.720   9.230  23.420
  562BOLB   C2D13486  18.070   9.060  23.710
  562BOLB   C3D13487  18.420   8.890  23.870
  562BOLB   C4D13488  18.670   8.860  24.210
  563BOLB   NC113489  27.945  21.000  29.420
  563BOLB   PO113490  27.765  21.330  29.190
  563BOLB   GL113491  27.355  21.200  29.050
  563BOLB   GL213492  27.205  21.270  29.200
  563BOLB   C1A13493  27.025  21.270  28.700
  563BOLB   C2A13494  26.635  21.020  28.420
  563BOLB   C3A13495  26.360  20.850  28.070
  563BOLB   C4A13496  26.240  20.930  27.600
  563BOLB   C1B13497  26.755  21.270  29.220
  563BOLB   C2B13498  26.390  21.250  29.290
  563BOLB   C3B13499  26.030  21.060  29.360
  563BOLB   C4B13500  25.680  20.920  29.110
  563BOLB   NC213501  27.695  22.130  28.050
  563BOLB   PO213502  27.695  22.160  27.670
  563BOLB   GL313503  27.505  21.840  27.610
  563BOLB   GL413504  27.595  21.600  27.850
  563BOLB   C1C13505  27.095  21.750  27.450
  563BOLB   C2C13506  26.855  21.750  27.060
  563BOLB   C3C13507  26.465  21.490  27.030
  563BOLB   C4C13508  26.240  21.190  27.260
  563BOLB   C1D13509  27.165  21.380  27.870
  563BOLB   C2D13510  27.025  20.960  28.160
  563BOLB   C3D13511  26.815  20.610  28.090
  563BOLB   C4D13512  26.805  20.250  27.930
  564BOLB   NC113513  24.660  12.280  22.650
  564BOLB   PO113514  24.420  12.330  22.360
  564BOLB   GL113515  24.490  12.220  21.910
  564BOLB   GL213516  24.430  12.420  21.710
  564BOLB   C1A13517  24.720  12.030  21.550
  564BOLB   C2A13518  25.070  11.920  21.410
  564BOLB   C3A13519  25.350  11.790  21.050
  564BOLB   C4A13520  25.540  11.590  20.770
  564BOLB   C1B13521  24.380  12.290  21.250
  564BOLB   C2B13522  24.800  12.110  21.030
  564BOLB   C3B13523  24.870  11.990  20.620
  564BOLB   C4B13524  25.320  11.720  20.290
  564BOLB   NC213525  25.720   9.550  19.520
  564BOLB   PO213526  25.250   9.620  19.720
  564BOLB   GL313527  25.070   9.950  19.840
  564BOLB   GL413528  24.740   9.880  20.060
  564BOLB   C1C13529  25.280  10.070  20.190
  564BOLB   C2C13530  25.500  10.380  20.300
  564BOLB   C3C13531  25.400  10.810  20.330
  564BOLB   C4C13532  25.410  11.220  20.500
  564BOLB   C1D13533  24.430  10.120  20.360
  564BOLB   C2D13534  24.110  10.420  20.520
  564BOLB   C3D13535  23.670  10.470  20.670
  564BOLB   C4D13536  23.460  10.940  20.710
  565BOLB   NC113537  29.125  11.460  28.850
  565BOLB   PO113538  29.245  11.530  28.440
  565BOLB   GL113539  29.435  11.360  28.110
  565BOLB   GL213540  29.365  11.330  27.800
  565BOLB   C1A13541  29.855  11.450  27.960
  565BOLB   C2A13542  30.025  11.130  27.910
  565BOLB   C3A13543  30.235  10.760  28.040
  565BOLB   C4A13544  30.545  10.550  28.220
  565BOLB   C1B13545  29.585  11.050  27.670
  565BOLB   C2B13546  29.955  11.020  27.310
  565BOLB   C3B13547  29.995  10.790  26.880
  565BOLB   C4B13548  30.105  10.890  26.410
  565BOLB   NC213549  32.705   9.710  28.090
  565BOLB   PO213550  32.885  10.100  27.890
  565BOLB   GL313551  32.695  10.160  28.330
  565BOLB   GL413552  32.805  10.350  28.710
  565BOLB   C1C13553  32.245  10.370  28.430
  565BOLB   C2C13554  31.785  10.370  28.440
  565BOLB   C3C13555  31.385  10.490  28.350
  565BOLB   C4C13556  30.945  10.480  28.090
  565BOLB   C1D13557  32.405  10.180  28.880
  565BOLB   C2D13558  32.145  10.040  29.270
  565BOLB   C3D13559  31.755  10.030  29.510
  565BOLB   C4D13560  31.255  10.120  29.470
  566BOLB   NC113561  18.200  21.320  22.280
  566BOLB   PO113562  17.770  21.450  22.320
  566BOLB   GL113563  17.750  21.760  22.180
  566BOLB   GL213564  17.410  21.860  22.180
  566BOLB   C1A13565  17.750  22.220  22.080
  566BOLB   C2A13566  17.460  22.400  21.860
  566BOLB   C3A13567  17.460  22.720  21.590
  566BOLB   C4A13568  17.320  22.900  21.210
  566BOLB   C1B13569  17.230  21.880  21.780
  566BOLB   C2B13570  16.810  21.810  21.540
  566BOLB   C3B13571  16.430  21.660  21.420
  566BOLB   C4B13572  15.990  21.710  21.160
  566BOLB   NC213573  15.220  24.750  20.250
  566BOLB   PO213574  15.720  24.700  20.150
  566BOLB   GL313575  16.070  24.410  20.400
  566BOLB   GL413576  15.850  24.180  20.590
  566BOLB   C1C13577  16.340  24.130  20.480
  566BOLB   C2C13578  16.600  23.740  20.500
  566BOLB   C3C13579  17.090  23.500  20.510
  566BOLB   C4C13580  17.190  23.130  20.850
  566BOLB   C1D13581  16.080  23.830  20.780
  566BOLB   C2D13582  16.400  23.600  20.940
  566BOLB   C3D13583  16.730  23.330  21.060
  566BOLB   C4D13584  17.090  23.350  21.270
  567BOLB   NC113585  17.680  17.710  40.660
  567BOLB   PO113586  17.440  17.600  41.180
  567BOLB   GL113587  17.370  17.800  41.600
  567BOLB   GL213588  17.070  17.590  41.600
  567BOLB   C1A13589  17.180  17.870  42.020
  567BOLB   C2A13590  17.050  17.590  42.320
  567BOLB   C3A13591  16.830  17.110  42.370
  567BOLB   C4A13592  16.580  17.000  42.710
  567BOLB   C1B13593  16.700  17.770  41.840
  567BOLB   C2B13594  16.280  17.720  42.060
  567BOLB   C3B13595  15.880  17.580  41.810
  567BOLB   C4B13596  15.430  17.670  41.760
  567BOLB   NC213597  14.450  16.600  44.710
  567BOLB   PO213598  14.630  16.800  44.330
  567BOLB   GL313599  14.970  16.980  44.040
  567BOLB   GL413600  15.270  17.040  44.310
  567BOLB   C1C13601  15.300  17.100  43.750
  567BOLB   C2C13602  15.580  17.000  43.390
  567BOLB   C3C13603  15.790  16.800  43.130
  567BOLB   C4C13604  16.210  16.870  42.970
  567BOLB   C1D13605  15.600  16.940  44.170
  567BOLB   C2D13606  15.890  16.770  43.800
  567BOLB   C3D13607  16.140  16.780  43.460
  567BOLB   C4D13608  16.570  16.920  43.440
  568BOLB   NC113609  16.260  19.440  22.480
  568BOLB   PO113610  16.410  19.020  22.410
  568BOLB   GL113611  16.020  18.810  22.120
  568BOLB   GL213612  15.920  18.500  22.080
  568BOLB   C1A13613  15.690  18.920  21.920
  568BOLB   C2A13614  15.260  18.770  21.860
  568BOLB   C3A13615  15.060  18.330  21.670
  568BOLB   C4A13616  14.890  17.970  21.450
  568BOLB   C1B13617  15.940  18.600  21.550
  568BOLB   C2B13618  16.000  18.950  21.270
  568BOLB   C3B13619  16.050  19.330  20.960
  568BOLB   C4B13620  16.110  19.650  20.690
  568BOLB   NC213621  12.650  18.700  20.520
  568BOLB   PO213622  12.920  18.690  20.130
  568BOLB   GL313623  13.150  18.520  20.550
  568BOLB   GL413624  13.320  18.790  20.720
  568BOLB   C1C13625  13.600  18.310  20.640
  568BOLB   C2C13626  13.950  18.240  20.860
  568BOLB   C3C13627  14.320  18.040  20.930
  568BOLB   C4C13628  14.640  17.920  21.110
  568BOLB   C1D13629  13.720  18.700  20.870
  568BOLB   C2D13630  14.040  18.760  21.110
  568BOLB   C3D13631  14.310  18.790  21.540
  568BOLB   C4D13632  14.660  18.850  21.630
  569BOLB   NC113633  22.180  15.220  43.020
  569BOLB   PO113634  21.810  15.110  43.110
  569BOLB   GL113635  21.650  15.140  43.450
  569BOLB   GL213636  21.870  15.390  43.630
  569BOLB   C1A13637  21.410  14.760  43.780
  569BOLB   C2A13638  21.270  14.540  44.190
  569BOLB   C3A13639  21.340  14.450  44.660
  569BOLB   C4A13640  21.070  14.590  44.990
  569BOLB   C1B13641  21.770  15.240  43.980
  569BOLB   C2B13642  21.680  14.830  44.260
  569BOLB   C3B13643  21.920  14.690  44.640
  569BOLB   C4B13644  21.710  14.440  44.990
  569BOLB   NC213645  19.100  14.020  46.480
  569BOLB   PO213646  19.570  14.080  46.610
  569BOLB   GL313647  19.570  14.120  46.140
  569BOLB   GL413648  19.360  14.050  45.980
  569BOLB   C1C13649  19.770  14.210  45.740
  569BOLB   C2C13650  19.920  14.220  45.390
  569BOLB   C3C13651  20.310  14.390  45.300
  569BOLB   C4C13652  20.650  14.690  45.160
  569BOLB   C1D13653  19.190  14.420  45.800
  569BOLB   C2D13654  18.900  14.740  45.840
  569BOLB   C3D13655  18.820  15.180  45.650
  569BOLB   C4D13656  18.960  15.580  45.370
  570BOLB   NC113657  22.340  22.500  27.870
  570BOLB   PO113658  22.470  22.520  28.270
  570BOLB   GL113659  22.780  22.840  28.210
  570BOLB   GL213660  22.740  22.880  27.900
  570BOLB   C1A13661  23.070  23.250  28.220
  570BOLB   C2A13662  23.140  23.750  28.430
  570BOLB   C3A13663  23.070  24.080  28.370
  570BOLB   C4A13664  22.990  24.450  28.340
  570BOLB   C1B13665  22.830  23.260  27.760
  570BOLB   C2B13666  22.640  23.520  27.460
  570BOLB   C3B13667  22.800  23.880  27.370
  570BOLB   C4B13668  23.220  23.910  27.220
  570BOLB   NC213669  23.330   0.630  28.350
  570BOLB   PO213670  23.460   0.240  28.320
  570BOLB   GL313671  23.450  26.410  28.550
  570BOLB   GL413672  23.430  26.340  28.840
  570BOLB   C1C13673  23.080  26.100  28.630
  570BOLB   C2C13674  23.140  25.700  28.390
  570BOLB   C3C13675  22.960  25.350  28.570
  570BOLB   C4C13676  22.970  24.880  28.410
  570BOLB   C1D13677  23.560  26.180  29.210
  570BOLB   C2D13678  23.460  25.770  29.420
  570BOLB   C3D13679  23.280  25.390  29.480
  570BOLB   C4D13680  22.890  25.280  29.670
  571BOLB   NC113681  26.440  19.460  37.980
  571BOLB   PO113682  26.705  19.170  37.980
  571BOLB   GL113683  27.005  19.370  38.140
  571BOLB   GL213684  26.985  19.450  38.410
  571BOLB   C1A13685  27.415  19.510  38.170
  571BOLB   C2A13686  27.745  19.630  38.150
  571BOLB   C3A13687  27.975  19.820  38.360
  571BOLB   C4A13688  28.335  20.030  38.300
  571BOLB   C1B13689  27.215  19.920  38.350
  571BOLB   C2B13690  27.525  20.060  38.620
  571BOLB   C3B13691  27.725  20.340  38.810
  571BOLB   C4B13692  27.885  20.470  39.220
  571BOLB   NC213693  30.755  21.050  38.830
  571BOLB   PO213694  30.645  21.110  38.420
  571BOLB   GL313695  30.325  20.810  38.350
  571BOLB   GL413696  30.145  20.910  38.080
  571BOLB   C1C13697  29.895  20.620  38.560
  571BOLB   C2C13698  29.535  20.340  38.530
  571BOLB   C3C13699  29.125  20.290  38.300
  571BOLB   C4C13700  28.705  20.240  38.170
  571BOLB   C1D13701  29.775  20.670  38.060
  571BOLB   C2D13702  29.465  20.390  37.870
  571BOLB   C3D13703  29.145  20.080  37.860
  571BOLB   C4D13704  28.955  19.840  38.270
  572BOLB   NC113705  28.685  14.500  29.300
  572BOLB   PO113706  28.515  14.890  29.230
  572BOLB   GL113707  28.915  15.000  29.100
  572BOLB   GL213708  29.125  14.870  29.070
  572BOLB   C1A13709  29.185  15.400  29.240
  572BOLB   C2A13710  29.585  15.580  29.120
  572BOLB   C3A13711  30.005  15.580  29.200
  572BOLB   C4A13712  30.235  15.980  28.980
  572BOLB   C1B13713  29.415  14.970  29.400
  572BOLB   C2B13714  29.805  15.160  29.460
  572BOLB   C3B13715  30.335  15.230  29.380
  572BOLB   C4B13716  30.825  15.180  29.380
  572BOLB   NC213717  31.945  18.310  28.420
  572BOLB   PO213718  31.715  17.910  28.540
  572BOLB   GL313719  31.465  17.590  28.460
  572BOLB   GL413720  31.525  17.330  28.660
  572BOLB   C1C13721  31.165  17.310  28.340
  572BOLB   C2C13722  30.815  17.090  28.390
  572BOLB   C3C13723  30.595  16.680  28.590
  572BOLB   C4C13724  30.395  16.460  28.880
  572BOLB   C1D13725  31.155  17.310  28.860
  572BOLB   C2D13726  30.805  17.200  28.960
  572BOLB   C3D13727  30.505  16.950  29.340
  572BOLB   C4D13728  30.185  16.660  29.360
  573BOLB   NC113729  15.950  23.500  35.280
  573BOLB   PO113730  15.890  23.890  35.130
  573BOLB   GL113731  15.750  24.310  35.310
  573BOLB   GL213732  15.920  24.630  35.380
  573BOLB   C1A13733  15.440  24.450  35.540
  573BOLB   C2A13734  15.280  24.890  35.520
  573BOLB   C3A13735  15.340  25.340  35.480
  573BOLB   C4A13736  15.490  25.790  35.600
  573BOLB   C1B13737  15.750  25.050  35.330
  573BOLB   C2B13738  15.890  25.490  35.460
  573BOLB   C3B13739  16.040  25.920  35.410
  573BOLB   C4B13740  16.210  26.250  35.320
  573BOLB   NC213741  14.840   1.780  36.240
  573BOLB   PO213742  14.890   1.570  36.650
  573BOLB   GL313743  15.060   1.130  36.700
  573BOLB   GL413744  15.210   1.260  36.430
  573BOLB   C1C13745  15.070   0.620  36.610
  573BOLB   C2C13746  15.220   0.390  36.250
  573BOLB   C3C13747  15.600   0.070  36.040
  573BOLB   C4C13748  15.680  26.100  35.790
  573BOLB   C1D13749  15.390   0.880  36.450
  573BOLB   C2D13750  15.660   0.540  36.390
  573BOLB   C3D13751  16.020   0.350  36.240
  573BOLB   C4D13752  16.300   0.360  35.990
  574BOLB   NC113753  23.370  18.780  22.640
  574BOLB   PO113754  23.370  18.400  22.290
  574BOLB   GL113755  23.360  18.650  21.830
  574BOLB   GL213756  23.050  18.590  21.690
  574BOLB   C1A13757  23.590  18.790  21.400
  574BOLB   C2A13758  23.680  18.750  20.980
  574BOLB   C3A13759  23.990  18.590  20.780
  574BOLB   C4A13760  24.220  18.450  20.520
  574BOLB   C1B13761  23.060  18.970  21.610
  574BOLB   C2B13762  23.310  19.310  21.390
  574BOLB   C3B13763  23.600  19.320  21.150
  574BOLB   C4B13764  23.720  19.570  20.810
  574BOLB   NC213765  25.090  19.360  18.960
  574BOLB   PO213766  25.490  19.350  19.000
  574BOLB   GL313767  25.380  19.410  19.390
  574BOLB   GL413768  25.560  19.460  19.720
  574BOLB   C1C13769  25.080  19.330  19.840
  574BOLB   C2C13770  25.150  19.000  20.080
  574BOLB   C3C13771  24.930  18.780  20.270
  574BOLB   C4C13772  24.440  18.640  20.170
  574BOLB   C1D13773  25.490  19.520  20.160
  574BOLB   C2D13774  25.560  19.510  20.580
  574BOLB   C3D13775  25.500  19.440  21.070
  574BOLB   C4D13776  25.060  19.640  21.200
  575BOLB   NC113777  15.770  22.250  38.250
  575BOLB   PO113778  16.180  22.440  38.310
  575BOLB   GL113779  16.170  22.720  38.600
  575BOLB   GL213780  15.830  22.860  38.650
  575BOLB   C1A13781  16.180  22.870  39.030
  575BOLB   C2A13782  16.010  22.940  39.450
  575BOLB   C3A13783  16.080  22.950  39.850
  575BOLB   C4A13784  15.840  23.350  40.020
  575BOLB   C1B13785  15.730  23.200  38.600
  575BOLB   C2B13786  15.630  23.660  38.700
  575BOLB   C3B13787  15.600  24.070  38.870
  575BOLB   C4B13788  15.700  24.290  39.160
  575BOLB   NC213789  13.890  24.820  40.040
  575BOLB   PO213790  13.850  25.300  39.920
  575BOLB   GL313791  14.350  24.970  39.820
  575BOLB   GL413792  14.700  25.170  39.710
  575BOLB   C1C13793  14.590  24.660  39.750
  575BOLB   C2C13794  14.970  24.500  39.700
  575BOLB   C3C13795  15.240  24.070  39.840
  575BOLB   C4C13796  15.540  23.670  39.930
  575BOLB   C1D13797  15.090  25.070  39.460
  575BOLB   C2D13798  15.240  25.090  39.100
  575BOLB   C3D13799  15.210  24.900  38.690
  575BOLB   C4D13800  15.010  24.740  38.330
  576BOLB   NC113801  21.160  22.430  38.010
  576BOLB   PO113802  21.040  22.810  38.330
  576BOLB   GL113803  21.280  23.150  38.610
  576BOLB   GL213804  21.700  23.120  38.470
  576BOLB   C1A13805  21.410  23.580  38.590
  576BOLB   C2A13806  21.130  23.850  38.530
  576BOLB   C3A13807  21.100  24.310  38.810
  576BOLB   C4A13808  20.900  24.710  38.970
  576BOLB   C1B13809  21.880  23.570  38.480
  576BOLB   C2B13810  22.300  23.980  38.370
  576BOLB   C3B13811  22.410  24.450  38.210
  576BOLB   C4B13812  22.680  24.850  38.220
  576BOLB   NC213813  21.770   0.400  39.680
  576BOLB   PO213814  21.970   0.320  40.070
  576BOLB   GL313815  21.830  26.380  39.970
  576BOLB   GL413816  21.710  26.280  40.160
  576BOLB   C1C13817  21.610  26.040  39.740
  576BOLB   C2C13818  21.530  25.770  39.330
  576BOLB   C3C13819  21.210  25.460  39.310
  576BOLB   C4C13820  21.050  25.170  39.040
  576BOLB   C1D13821  22.040  25.960  40.380
  576BOLB   C2D13822  21.850  25.620  40.410
  576BOLB   C3D13823  21.570  25.400  40.540
  576BOLB   C4D13824  21.470  24.920  40.450
  577BOLB   NC113825   9.070  19.580  34.490
  577BOLB   PO113826   9.140  19.230  34.570
  577BOLB   GL113827   9.570  19.180  34.470
  577BOLB   GL213828   9.600  19.600  34.420
  577BOLB   C1A13829   9.910  18.870  34.500
  577BOLB   C2A13830  10.260  18.890  34.360
  577BOLB   C3A13831  10.650  18.740  34.510
  577BOLB   C4A13832  10.860  18.930  34.900
  577BOLB   C1B13833  10.040  19.770  34.360
  577BOLB   C2B13834  10.470  19.840  34.420
  577BOLB   C3B13835  10.970  19.860  34.450
  577BOLB   C4B13836  11.350  19.910  34.780
  577BOLB   NC213837   9.360  19.650  36.070
  577BOLB   PO213838   9.510  19.210  35.870
  577BOLB   GL313839   9.870  19.440  36.080
  577BOLB   GL413840   9.910  19.340  36.460
  577BOLB   C1C13841  10.280  19.570  36.180
  577BOLB   C2C13842  10.610  19.380  36.020
  577BOLB   C3C13843  10.810  19.080  35.730
  577BOLB   C4C13844  10.730  19.220  35.230
  577BOLB   C1D13845  10.360  19.170  36.490
  577BOLB   C2D13846  10.650  19.080  36.880
  577BOLB   C3D13847  11.090  19.230  36.850
  577BOLB   C4D13848  11.390  19.280  36.580
  578BOLB   NC113849  24.610  10.830  23.330
  578BOLB   PO113850  24.580  10.630  23.790
  578BOLB   GL113851  24.650  10.340  23.520
  578BOLB   GL213852  24.570  10.340  23.200
  578BOLB   C1A13853  24.870  10.040  23.350
  578BOLB   C2A13854  25.250   9.850  23.230
  578BOLB   C3A13855  25.600   9.640  23.050
  578BOLB   C4A13856  25.680   9.250  23.240
  578BOLB   C1B13857  24.560  10.100  22.860
  578BOLB   C2B13858  24.740   9.880  22.450
  578BOLB   C3B13859  24.550   9.520  22.150
  578BOLB   C4B13860  24.320   9.170  22.230
  578BOLB   NC213861  27.025   7.280  22.860
  578BOLB   PO213862  26.915   7.420  22.450
  578BOLB   GL313863  26.715   7.650  22.890
  578BOLB   GL413864  26.795   7.500  23.220
  578BOLB   C1C13865  26.360   7.860  23.020
  578BOLB   C2C13866  26.280   8.270  23.140
  578BOLB   C3C13867  26.050   8.620  23.050
  578BOLB   C4C13868  25.780   8.880  23.140
  578BOLB   C1D13869  26.675   7.900  23.430
  578BOLB   C2D13870  26.995   8.170  23.630
  578BOLB   C3D13871  27.235   8.440  23.790
  578BOLB   C4D13872  27.375   8.540  24.210
  579BOLB   NC113873  26.735  11.100  40.090
  579BOLB   PO113874  26.665  10.690  39.920
  579BOLB   GL113875  26.675  10.300  39.960
  579BOLB   GL213876  26.855  10.210  40.220
  579BOLB   C1A13877  26.420   9.930  40.200
  579BOLB   C2A13878  26.360   9.530  40.520
  579BOLB   C3A13879  26.250   9.260  40.820
  579BOLB   C4A13880  26.180   9.060  41.180
  579BOLB   C1B13881  26.955  10.190  40.620
  579BOLB   C2B13882  27.145   9.880  40.830
  579BOLB   C3B13883  27.225   9.430  41.210
  579BOLB   C4B13884  27.175   9.450  41.740
  579BOLB   NC213885  26.410   7.490  43.360
  579BOLB   PO213886  26.290   7.560  42.880
  579BOLB   GL313887  26.130   7.710  42.480
  579BOLB   GL413888  25.910   7.870  42.350
  579BOLB   C1C13889  26.190   7.710  41.990
  579BOLB   C2C13890  26.310   7.960  41.670
  579BOLB   C3C13891  26.350   8.330  41.280
  579BOLB   C4C13892  26.300   8.750  41.320
  579BOLB   C1D13893  25.820   8.150  42.060
  579BOLB   C2D13894  25.530   8.460  41.990
  579BOLB   C3D13895  25.530   8.590  41.640
  579BOLB   C4D13896  25.790   8.820  41.350
  580BOLB   NC113897  27.385   8.260  30.710
  580BOLB   PO113898  27.415   8.290  31.100
  580BOLB   GL113899  27.675   7.960  31.070
  580BOLB   GL213900  27.745   7.860  31.340
  580BOLB   C1A13901  27.795   7.660  30.840
  580BOLB   C2A13902  28.045   7.300  30.960
  580BOLB   C3A13903  28.245   6.960  30.810
  580BOLB   C4A13904  28.565   6.900  30.510
  580BOLB   C1B13905  27.995   7.510  31.400
  580BOLB   C2B13906  28.425   7.350  31.270
  580BOLB   C3B13907  28.535   7.400  30.910
  580BOLB   C4B13908  28.665   7.380  30.450
  580BOLB   NC213909  29.885   4.570  30.320
  580BOLB   PO213910  29.875   4.890  30.030
  580BOLB   GL313911  29.735   5.250  30.250
  580BOLB   GL413912  29.435   5.120  30.460
  580BOLB   C1C13913  29.645   5.700  30.470
  580BOLB   C2C13914  29.735   6.100  30.360
  580BOLB   C3C13915  29.305   6.450  30.460
  580BOLB   C4C13916  28.975   6.830  30.420
  580BOLB   C1D13917  29.135   5.470  30.500
  580BOLB   C2D13918  29.135   5.850  30.620
  580BOLB   C3D13919  28.985   6.270  30.750
  580BOLB   C4D13920  28.625   6.490  30.900
  581BOLB   NC113921  18.280  10.720  28.840
  581BOLB   PO113922  18.570  10.630  29.180
  581BOLB   GL113923  18.640  10.220  29.330
  581BOLB   GL213924  18.830  10.040  29.290
  581BOLB   C1A13925  18.250   9.940  29.440
  581BOLB   C2A13926  18.000   9.610  29.300
  581BOLB   C3A13927  17.660   9.600  28.870
  581BOLB   C4A13928  17.230   9.560  28.740
  581BOLB   C1B13929  18.660   9.650  29.210
  581BOLB   C2B13930  18.390   9.310  29.130
  581BOLB   C3B13931  18.010   9.090  29.170
  581BOLB   C4B13932  17.660   9.220  29.330
  581BOLB   NC213933  15.920   7.650  29.600
  581BOLB   PO213934  16.020   7.640  29.100
  581BOLB   GL313935  15.970   8.090  29.110
  581BOLB   GL413936  16.070   8.180  29.460
  581BOLB   C1C13937  16.070   8.460  29.070
  581BOLB   C2C13938  16.280   8.750  28.920
  581BOLB   C3C13939  16.550   8.840  28.650
  581BOLB   C4C13940  16.860   9.220  28.680
  581BOLB   C1D13941  16.460   8.400  29.420
  581BOLB   C2D13942  16.920   8.530  29.540
  581BOLB   C3D13943  17.170   8.750  29.630
  581BOLB   C4D13944  17.440   9.020  29.700
  582BOLB   NC113945  14.670  15.550  29.620
  582BOLB   PO113946  14.960  15.280  29.300
  582BOLB   GL113947  14.630  15.070  29.370
  582BOLB   GL213948  14.760  15.060  29.700
  582BOLB   C1A13949  14.200  15.160  29.550
  582BOLB   C2A13950  13.840  15.400  29.630
  582BOLB   C3A13951  13.420  15.430  29.840
  582BOLB   C4A13952  13.070  15.250  29.650
  582BOLB   C1B13953  14.380  15.000  29.960
  582BOLB   C2B13954  14.030  14.750  29.900
  582BOLB   C3B13955  13.710  14.400  30.000
  582BOLB   C4B13956  13.640  14.020  29.910
  582BOLB   NC213957  10.900  13.710  29.100
  582BOLB   PO213958  11.180  13.840  29.410
  582BOLB   GL313959  11.540  14.200  29.360
  582BOLB   GL413960  11.770  14.030  29.030
  582BOLB   C1C13961  11.770  14.500  29.320
  582BOLB   C2C13962  12.080  14.530  29.510
  582BOLB   C3C13963  12.570  14.480  29.520
  582BOLB   C4C13964  12.990  14.750  29.660
  582BOLB   C1D13965  12.230  14.210  29.120
  582BOLB   C2D13966  12.580  14.330  29.020
  582BOLB   C3D13967  12.920  14.530  29.150
  582BOLB   C4D13968  13.100  14.930  29.150
  583BOLB   NC113969  18.810  11.260  26.680
  583BOLB   PO113970  18.540  11.550  26.570
  583BOLB   GL113971  18.230  11.240  26.700
  583BOLB   GL213972  18.340  10.960  26.830
  583BOLB   C1A13973  17.950  10.980  26.370
  583BOLB   C2A13974  17.650  10.870  26.130
  583BOLB   C3A13975  17.250  10.800  25.870
  583BOLB   C4A13976  16.790  10.810  25.660
  583BOLB   C1B13977  17.860  10.760  26.800
  583BOLB   C2B13978  17.630  10.480  26.510
  583BOLB   C3B13979  17.300  10.280  26.200
  583BOLB   C4B13980  16.990   9.910  26.260
  583BOLB   NC213981  15.250  10.100  24.600
  583BOLB   PO213982  15.430   9.770  24.370
  583BOLB   GL313983  15.730   9.930  24.670
  583BOLB   GL413984  15.990   9.640  24.690
  583BOLB   C1C13985  15.830  10.290  24.980
  583BOLB   C2C13986  15.740  10.520  25.340
  583BOLB   C3C13987  15.900  10.680  25.680
  583BOLB   C4C13988  16.380  10.820  25.540
  583BOLB   C1D13989  16.070   9.810  25.100
  583BOLB   C2D13990  16.210  10.200  25.330
  583BOLB   C3D13991  16.560  10.370  25.610
  583BOLB   C4D13992  16.910  10.360  25.900
  584BOLB   NC113993  14.470  21.010  36.230
  584BOLB   PO113994  14.120  21.220  36.200
  584BOLB   GL113995  13.810  21.460  36.170
  584BOLB   GL213996  13.530  21.320  36.210
  584BOLB   C1A13997  13.540  21.750  36.120
  584BOLB   C2A13998  13.190  21.810  36.070
  584BOLB   C3A13999  12.780  21.940  35.880
  584BOLB   C4A14000  12.570  22.380  35.910
  584BOLB   C1B14001  13.210  21.360  36.360
  584BOLB   C2B14002  12.840  21.660  36.470
  584BOLB   C3B14003  12.370  21.840  36.750
  584BOLB   C4B14004  12.130  21.970  37.140
  584BOLB   NC214005  10.200  22.550  36.690
  584BOLB   PO214006  10.520  22.600  37.100
  584BOLB   GL314007  11.030  22.530  37.010
  584BOLB   GL414008  11.050  22.590  37.390
  584BOLB   C1C14009  11.470  22.550  36.880
  584BOLB   C2C14010  11.750  22.700  36.630
  584BOLB   C3C14011  12.170  22.730  36.560
  584BOLB   C4C14012  12.380  22.610  36.200
  584BOLB   C1D14013  11.550  22.730  37.430
  584BOLB   C2D14014  11.920  22.590  37.380
  584BOLB   C3D14015  12.000  22.450  37.040
  584BOLB   C4D14016  12.270  22.320  36.770
  585BOLB   NC114017  16.860  13.000  26.340
  585BOLB   PO114018  17.110  13.100  25.900
  585BOLB   GL114019  16.650  12.940  25.890
  585BOLB   GL214020  16.530  13.200  25.810
  585BOLB   C1A14021  16.370  12.720  25.840
  585BOLB   C2A14022  15.960  12.590  25.860
  585BOLB   C3A14023  15.550  12.630  25.880
  585BOLB   C4A14024  15.210  12.550  25.990
  585BOLB   C1B14025  16.240  12.900  25.430
  585BOLB   C2B14026  16.150  12.500  25.300
  585BOLB   C3B14027  16.280  12.290  24.950
  585BOLB   C4B14028  16.220  11.910  24.670
  585BOLB   NC214029  14.130  10.360  25.840
  585BOLB   PO214030  13.960  10.640  25.630
  585BOLB   GL314031  14.110  11.090  25.670
  585BOLB   GL414032  14.350  11.200  25.510
  585BOLB   C1C14033  14.370  11.450  25.890
  585BOLB   C2C14034  14.490  11.760  26.170
  585BOLB   C3C14035  14.700  12.130  26.330
  585BOLB   C4C14036  14.920  12.450  26.160
  585BOLB   C1D14037  14.400  11.660  25.390
  585BOLB   C2D14038  14.550  12.090  25.330
  585BOLB   C3D14039  14.920  12.290  25.360
  585BOLB   C4D14040  15.290  12.420  25.470
  586BOLB   NC114041  27.085  11.800  40.320
  586BOLB   PO114042  27.165  12.030  40.540
  586BOLB   GL114043  27.295  11.800  40.840
  586BOLB   GL214044  27.245  12.110  41.030
  586BOLB   C1A14045  27.625  11.520  41.070
  586BOLB   C2A14046  27.815  11.140  41.370
  586BOLB   C3A14047  28.285  11.010  41.250
  586BOLB   C4A14048  28.465  10.700  41.020
  586BOLB   C1B14049  27.305  11.800  41.320
  586BOLB   C2B14050  27.235  11.430  41.460
  586BOLB   C3B14051  27.255  11.250  41.810
  586BOLB   C4B14052  27.335  10.840  41.950
  586BOLB   NC214053  30.255  10.070  41.860
  586BOLB   PO214054  30.215   9.630  41.720
  586BOLB   GL314055  30.015   9.820  41.490
  586BOLB   GL414056  29.945  10.130  41.460
  586BOLB   C1C14057  29.625   9.780  41.410
  586BOLB   C2C14058  29.235   9.760  41.090
  586BOLB   C3C14059  28.965  10.010  40.810
  586BOLB   C4C14060  28.715  10.430  40.740
  586BOLB   C1D14061  29.665  10.380  41.500
  586BOLB   C2D14062  29.475  10.460  41.130
  586BOLB   C3D14063  29.205  10.430  40.800
  586BOLB   C4D14064  29.025  10.790  40.470
  587BOLB   NC114065  26.915  13.510  24.830
  587BOLB   PO114066  27.155  13.780  24.870
  587BOLB   GL114067  27.485  13.750  24.680
  587BOLB   GL214068  27.455  13.800  24.320
  587BOLB   C1A14069  27.745  13.400  24.520
  587BOLB   C2A14070  28.165  13.440  24.210
  587BOLB   C3A14071  28.525  13.420  23.940
  587BOLB   C4A14072  28.885  13.320  23.750
  587BOLB   C1B14073  27.885  13.830  24.370
  587BOLB   C2B14074  28.125  13.990  24.130
  587BOLB   C3B14075  28.405  13.910  23.890
  587BOLB   C4B14076  28.865  13.800  23.780
  587BOLB   NC214077  31.345  13.020  22.530
  587BOLB   PO214078  31.255  13.460  22.830
  587BOLB   GL314079  30.815  13.490  22.820
  587BOLB   GL414080  30.585  13.690  23.110
  587BOLB   C1C14081  30.455  13.190  22.990
  587BOLB   C2C14082  29.945  13.210  23.050
  587BOLB   C3C14083  29.605  13.110  23.320
  587BOLB   C4C14084  29.335  13.240  23.670
  587BOLB   C1D14085  30.275  13.450  23.430
  587BOLB   C2D14086  30.355  13.460  23.890
  587BOLB   C3D14087  30.565  13.790  24.110
  587BOLB   C4D14088  30.695  14.140  24.280
  588BOLB   NC114089  16.070  23.170  36.010
  588BOLB   PO114090  16.340  23.490  36.350
  588BOLB   GL114091  15.940  23.510  36.420
  588BOLB   GL214092  15.780  23.390  36.750
  588BOLB   C1A14093  15.530  23.820  36.540
  588BOLB   C2A14094  15.280  24.120  36.790
  588BOLB   C3A14095  14.890  24.250  37.080
  588BOLB   C4A14096  14.450  24.210  36.950
  588BOLB   C1B14097  15.470  23.690  37.030
  588BOLB   C2B14098  15.460  23.980  37.400
  588BOLB   C3B14099  15.470  24.210  37.760
  588BOLB   C4B14100  15.330  24.520  38.000
  588BOLB   NC214101  12.210  25.520  36.950
  588BOLB   PO214102  12.250  25.340  37.260
  588BOLB   GL314103  12.580  25.020  37.130
  588BOLB   GL414104  12.380  24.820  36.930
  588BOLB   C1C14105  12.930  24.750  37.290
  588BOLB   C2C14106  13.210  24.550  36.940
  588BOLB   C3C14107  13.690  24.600  36.840
  588BOLB   C4C14108  13.980  24.250  36.820
  588BOLB   C1D14109  12.760  24.590  36.850
  588BOLB   C2D14110  12.820  24.250  36.700
  588BOLB   C3D14111  12.560  24.060  36.280
  588BOLB   C4D14112  12.480  24.190  35.820
  589BOLB   NC114113  27.005  17.350  33.380
  589BOLB   PO114114  27.315  17.310  33.650
  589BOLB   GL114115  27.625  17.530  33.650
  589BOLB   GL214116  27.935  17.460  33.520
  589BOLB   C1A14117  27.915  17.900  33.750
  589BOLB   C2A14118  28.205  18.140  33.520
  589BOLB   C3A14119  28.505  18.370  33.220
  589BOLB   C4A14120  28.435  18.800  33.010
  589BOLB   C1B14121  28.335  17.660  33.660
  589BOLB   C2B14122  28.695  17.870  33.660
  589BOLB   C3B14123  28.785  18.370  33.750
  589BOLB   C4B14124  28.935  18.670  34.060
  589BOLB   NC214125  29.205  21.030  32.090
  589BOLB   PO214126  29.205  20.990  32.530
  589BOLB   GL314127  29.195  20.540  32.590
  589BOLB   GL414128  28.895  20.470  32.480
  589BOLB   C1C14129  29.115  20.290  32.940
  589BOLB   C2C14130  29.135  19.820  33.110
  589BOLB   C3C14131  28.915  19.400  33.160
  589BOLB   C4C14132  28.545  19.200  33.130
  589BOLB   C1D14133  28.655  20.330  32.750
  589BOLB   C2D14134  28.265  20.100  32.840
  589BOLB   C3D14135  28.235  19.720  32.660
  589BOLB   C4D14136  28.255  19.650  32.300
  590BOLB   NC114137  28.495  14.860  38.490
  590BOLB   PO114138  28.485  15.290  38.640
  590BOLB   GL114139  28.835  15.300  38.780
  590BOLB   GL214140  28.665  15.140  39.060
  590BOLB   C1A14141  29.275  15.170  38.880
  590BOLB   C2A14142  29.665  15.200  39.130
  590BOLB   C3A14143  29.845  14.940  39.380
  590BOLB   C4A14144  30.235  14.660  39.370
  590BOLB   C1B14145  29.055  15.410  39.260
  590BOLB   C2B14146  29.325  15.680  39.510
  590BOLB   C3B14147  29.745  15.860  39.690
  590BOLB   C4B14148  30.155  15.960  39.750
  590BOLB   NC214149  32.645  15.280  39.350
  590BOLB   PO214150  32.785  14.950  39.080
  590BOLB   GL314151  32.515  14.740  39.330
  590BOLB   GL414152  32.445  14.450  39.160
  590BOLB   C1C14153  32.045  14.710  39.380
  590BOLB   C2C14154  31.635  14.520  39.520
  590BOLB   C3C14155  31.245  14.480  39.280
  590BOLB   C4C14156  30.735  14.500  39.350
  590BOLB   C1D14157  32.075  14.120  39.450
  590BOLB   C2D14158  32.005  13.750  39.640
  590BOLB   C3D14159  31.715  13.610  40.000
  590BOLB   C4D14160  31.505  13.420  40.420
  591BOLB   NC114161  27.975  22.250  42.150
  591BOLB   PO114162  28.245  22.500  41.830
  591BOLB   GL114163  27.785  22.450  41.670
  591BOLB   GL214164  27.475  22.350  41.850
  591BOLB   C1A14165  27.595  22.240  41.340
  591BOLB   C2A14166  27.235  21.900  41.490
  591BOLB   C3A14167  26.945  21.630  41.440
  591BOLB   C4A14168  26.625  21.530  41.240
  591BOLB   C1B14169  27.185  22.460  41.560
  591BOLB   C2B14170  26.975  22.360  41.200
  591BOLB   C3B14171  26.905  22.320  40.840
  591BOLB   C4B14172  26.545  22.500  40.580
  591BOLB   NC214173  27.895  23.410  40.690
  591BOLB   PO214174  27.595  23.230  40.960
  591BOLB   GL314175  27.335  23.040  40.600
  591BOLB   GL414176  27.165  23.060  40.300
  591BOLB   C1C14177  26.995  22.710  40.570
  591BOLB   C2C14178  26.885  22.290  40.340
  591BOLB   C3C14179  26.635  21.970  40.520
  591BOLB   C4C14180  26.505  21.850  40.970
  591BOLB   C1D14181  26.935  23.310  40.000
  591BOLB   C2D14182  26.505  23.230  40.040
  591BOLB   C3D14183  26.050  22.940  39.930
  591BOLB   C4D14184  25.700  22.660  40.050
  592BOLB   NC114185  25.030  17.170  24.120
  592BOLB   PO114186  25.220  17.530  23.920
  592BOLB   GL114187  25.330  17.870  23.570
  592BOLB   GL214188  25.660  17.920  23.450
  592BOLB   C1A14189  25.460  18.320  23.660
  592BOLB   C2A14190  25.590  18.720  23.520
  592BOLB   C3A14191  25.750  18.990  23.280
  592BOLB   C4A14192  26.080  18.990  22.880
  592BOLB   C1B14193  25.840  18.150  23.070
  592BOLB   C2B14194  25.940  18.390  22.660
  592BOLB   C3B14195  25.800  18.660  22.520
  592BOLB   C4B14196  25.950  18.980  22.400
  592BOLB   NC214197  27.965  19.830  21.880
  592BOLB   PO214198  28.075  19.750  21.410
  592BOLB   GL314199  27.615  19.600  21.590
  592BOLB   GL414200  27.355  19.870  21.810
  592BOLB   C1C14201  27.415  19.430  22.080
  592BOLB   C2C14202  27.085  19.480  22.310
  592BOLB   C3C14203  26.715  19.200  22.410
  592BOLB   C4C14204  26.340  19.150  22.630
  592BOLB   C1D14205  26.985  19.750  21.880
  592BOLB   C2D14206  26.565  19.780  22.250
  592BOLB   C3D14207  26.180  19.600  22.470
  592BOLB   C4D14208  25.840  19.430  22.750
  593BOLB   NC114209  25.260  16.600  30.380
  593BOLB   PO114210  24.800  16.850  30.140
  593BOLB   GL114211  24.890  17.010  30.570
  593BOLB   GL214212  24.810  17.340  30.500
  593BOLB   C1A14213  24.840  17.230  31.060
  593BOLB   C2A14214  25.120  17.430  31.290
  593BOLB   C3A14215  25.490  17.630  31.140
  593BOLB   C4A14216  25.520  17.980  30.870
  593BOLB   C1B14217  25.110  17.500  30.660
  593BOLB   C2B14218  25.050  17.900  30.800
  593BOLB   C3B14219  25.080  18.410  30.660
  593BOLB   C4B14220  24.780  18.720  30.900
  593BOLB   NC214221  24.420  17.300  28.880
  593BOLB   PO214222  24.670  17.670  29.010
  593BOLB   GL314223  24.520  17.990  29.270
  593BOLB   GL414224  24.190  17.920  29.370
  593BOLB   C1C14225  24.710  18.200  29.630
  593BOLB   C2C14226  24.960  18.490  29.910
  593BOLB   C3C14227  25.340  18.380  30.180
  593BOLB   C4C14228  25.540  18.290  30.540
  593BOLB   C1D14229  24.140  18.100  29.680
  593BOLB   C2D14230  24.280  18.250  30.050
  593BOLB   C3D14231  24.130  18.570  30.390
  593BOLB   C4D14232  24.350  18.760  30.640
  594BOLB   NC114233  20.740  14.090  21.450
  594BOLB   PO114234  20.990  13.770  21.350
  594BOLB   GL114235  20.830  13.400  21.320
  594BOLB   GL214236  20.840  13.050  21.470
  594BOLB   C1A14237  20.940  13.150  20.920
  594BOLB   C2A14238  20.890  12.830  20.690
  594BOLB   C3A14239  20.700  12.480  20.810
  594BOLB   C4A14240  20.670  12.080  20.810
  594BOLB   C1B14241  20.680  12.740  21.270
  594BOLB   C2B14242  20.210  12.680  21.320
  594BOLB   C3B14243  19.920  12.450  21.290
  594BOLB   C4B14244  19.660  12.090  21.240
  594BOLB   NC214245  20.330  10.500  18.940
  594BOLB   PO214246  20.330  10.770  18.710
  594BOLB   GL314247  20.560  10.870  19.140
  594BOLB   GL414248  20.670  10.620  19.400
  594BOLB   C1C14249  20.600  11.020  19.610
  594BOLB   C2C14250  20.740  11.370  19.790
  594BOLB   C3C14251  20.780  11.490  20.240
  594BOLB   C4C14252  20.840  11.700  20.560
  594BOLB   C1D14253  20.690  10.450  19.770
  594BOLB   C2D14254  20.880  10.270  20.150
  594BOLB   C3D14255  20.780  10.000  20.370
  594BOLB   C4D14256  20.810  10.190  20.860
  595BOLB   NC114257  17.010  12.150  30.100
  595BOLB   PO114258  17.210  12.140  29.700
  595BOLB   GL114259  16.830  11.900  29.690
  595BOLB   GL214260  16.620  11.950  29.880
  595BOLB   C1A14261  16.510  11.460  29.730
  595BOLB   C2A14262  16.160  11.300  29.770
  595BOLB   C3A14263  15.890  11.050  29.610
  595BOLB   C4A14264  15.540  10.960  29.330
  595BOLB   C1B14265  16.220  11.900  29.670
  595BOLB   C2B14266  15.830  11.690  29.600
  595BOLB   C3B14267  15.540  11.470  29.610
  595BOLB   C4B14268  15.370  11.080  29.750
  595BOLB   NC214269  13.130  10.260  28.630
  595BOLB   PO214270  13.530   9.970  28.640
  595BOLB   GL314271  13.960  10.070  28.810
  595BOLB   GL414272  13.980  10.070  29.270
  595BOLB   C1C14273  14.250  10.140  28.510
  595BOLB   C2C14274  14.740  10.240  28.480
  595BOLB   C3C14275  15.100  10.290  28.740
  595BOLB   C4C14276  15.370  10.710  29.020
  595BOLB   C1D14277  14.100  10.480  29.470
  595BOLB   C2D14278  14.500  10.760  29.690
  595BOLB   C3D14279  14.930  11.000  29.530
  595BOLB   C4D14280  15.090  11.380  29.440
  596BOLB   NC114281  27.155  16.990  31.310
  596BOLB   PO114282  26.715  17.220  31.480
  596BOLB   GL114283  26.875  17.570  31.490
  596BOLB   GL214284  26.955  17.720  31.800
  596BOLB   C1A14285  27.015  18.100  31.470
  596BOLB   C2A14286  27.055  18.440  31.400
  596BOLB   C3A14287  27.285  18.830  31.450
  596BOLB   C4A14288  27.815  19.000  31.380
  596BOLB   C1B14289  27.035  18.180  31.960
  596BOLB   C2B14290  27.315  18.670  31.940
  596BOLB   C3B14291  27.585  18.950  31.860
  596BOLB   C4B14292  27.685  19.380  31.940
  596BOLB   NC214293  28.215  21.310  32.200
  596BOLB   PO214294  28.005  21.320  31.720
  596BOLB   GL314295  27.935  20.860  31.640
  596BOLB   GL414296  27.615  20.690  31.750
  596BOLB   C1C14297  28.055  20.440  31.710
  596BOLB   C2C14298  28.175  20.000  31.890
  596BOLB   C3C14299  28.235  19.520  31.840
  596BOLB   C4C14300  28.065  19.220  31.690
  596BOLB   C1D14301  27.135  20.720  31.840
  596BOLB   C2D14302  26.785  20.600  31.660
  596BOLB   C3D14303  26.545  20.830  31.420
  596BOLB   C4D14304  26.605  21.270  31.310
  597BOLB   NC114305  29.695  12.620  34.210
  597BOLB   PO114306  29.895  12.940  34.370
  597BOLB   GL114307  30.325  12.900  34.440
  597BOLB   GL214308  30.335  13.070  34.810
  597BOLB   C1A14309  30.675  12.830  34.520
  597BOLB   C2A14310  30.975  12.600  34.680
  597BOLB   C3A14311  31.375  12.460  34.730
  597BOLB   C4A14312  31.735  12.170  34.710
  597BOLB   C1B14313  30.785  13.090  34.920
  597BOLB   C2B14314  31.145  12.980  34.980
  597BOLB   C3B14315  31.555  13.040  35.050
  597BOLB   C4B14316  31.865  13.170  34.750
  597BOLB   NC214317  33.935  11.360  35.470
  597BOLB   PO214318  33.845  11.910  35.420
  597BOLB   GL314319  33.405  12.020  35.480
  597BOLB   GL414320  33.275  12.190  35.190
  597BOLB   C1C14321  33.035  11.990  35.630
  597BOLB   C2C14322  32.685  11.940  35.420
  597BOLB   C3C14323  32.385  12.100  35.090
  597BOLB   C4C14324  32.035  12.170  34.940
  597BOLB   C1D14325  32.915  12.320  34.910
  597BOLB   C2D14326  32.725  11.990  34.630
  597BOLB   C3D14327  32.225  11.740  34.660
  597BOLB   C4D14328  31.875  11.650  34.690
  598BOLB   NC114329  16.000  16.070  38.870
  598BOLB   PO114330  15.600  15.860  38.720
  598BOLB   GL114331  15.350  15.580  39.030
  598BOLB   GL214332  15.350  15.630  39.480
  598BOLB   C1A14333  15.020  15.470  39.100
  598BOLB   C2A14334  14.630  15.550  38.820
  598BOLB   C3A14335  14.290  15.270  38.710
  598BOLB   C4A14336  14.030  14.960  38.570
  598BOLB   C1B14337  14.900  15.570  39.760
  598BOLB   C2B14338  14.400  15.300  39.790
  598BOLB   C3B14339  13.950  15.310  39.810
  598BOLB   C4B14340  13.510  15.230  39.720
  598BOLB   NC214341  11.400  14.620  39.110
  598BOLB   PO214342  11.440  14.870  38.790
  598BOLB   GL314343  11.820  14.740  38.820
  598BOLB   GL414344  11.970  14.860  39.120
  598BOLB   C1C14345  12.320  14.740  38.720
  598BOLB   C2C14346  12.750  14.700  38.600
  598BOLB   C3C14347  13.220  14.850  38.410
  598BOLB   C4C14348  13.610  14.870  38.440
  598BOLB   C1D14349  12.180  15.320  39.210
  598BOLB   C2D14350  12.490  15.480  39.080
  598BOLB   C3D14351  12.910  15.540  38.960
  598BOLB   C4D14352  13.290  15.580  38.770
  599BOLB   NC114353  13.600  22.570  30.360
  599BOLB   PO114354  13.430  22.810  30.650
  599BOLB   GL114355  13.280  23.150  30.640
  599BOLB   GL214356  13.440  23.440  30.590
  599BOLB   C1A14357  12.930  23.490  30.620
  599BOLB   C2A14358  12.560  23.540  30.620
  599BOLB   C3A14359  12.150  23.490  30.490
  599BOLB   C4A14360  11.690  23.460  30.330
  599BOLB   C1B14361  13.250  23.790  30.350
  599BOLB   C2B14362  13.230  24.090  30.190
  599BOLB   C3B14363  13.330  24.430  29.870
  599BOLB   C4B14364  13.260  24.840  29.790
  599BOLB   NC214365   9.930  23.140  29.810
  599BOLB   PO214366   9.530  23.080  29.550
  599BOLB   GL314367   9.860  22.940  29.320
  599BOLB   GL414368  10.000  22.700  29.440
  599BOLB   C1C14369  10.280  23.110  29.280
  599BOLB   C2C14370  10.590  23.190  29.670
  599BOLB   C3C14371  10.940  23.110  29.840
  599BOLB   C4C14372  11.310  23.330  30.060
  599BOLB   C1D14373  10.390  22.700  29.570
  599BOLB   C2D14374  10.670  22.690  29.980
  599BOLB   C3D14375  10.870  22.370  30.120
  599BOLB   C4D14376  10.990  22.250  30.640
  600BOLB   NC114377  23.170   8.180  33.280
  600BOLB   PO114378  23.020   7.780  33.010
  600BOLB   GL114379  23.040   7.420  32.780
  600BOLB   GL214380  22.960   7.470  32.450
  600BOLB   C1A14381  22.970   6.980  32.850
  600BOLB   C2A14382  22.650   6.700  32.650
  600BOLB   C3A14383  22.370   6.660  32.350
  600BOLB   C4A14384  22.090   6.430  32.500
  600BOLB   C1B14385  22.740   7.040  32.270
  600BOLB   C2B14386  22.910   6.720  32.280
  600BOLB   C3B14387  22.700   6.260  32.410
  600BOLB   C4B14388  22.540   5.870  32.560
  600BOLB   NC214389  20.880   4.570  32.370
  600BOLB   PO214390  21.070   4.350  32.790
  600BOLB   GL314391  21.190   4.800  32.710
  600BOLB   GL414392  20.930   5.040  32.630
  600BOLB   C1C14393  21.360   5.140  32.840
  600BOLB   C2C14394  21.530   5.420  32.910
  600BOLB   C3C14395  21.690   5.840  32.880
  600BOLB   C4C14396  22.020   6.010  32.570
  600BOLB   C1D14397  21.140   5.340  32.460
  600BOLB   C2D14398  21.190   5.530  32.090
  600BOLB   C3D14399  21.250   5.940  32.010
  600BOLB   C4D14400  20.860   6.110  31.840
  601BOLB   NC114401  24.820  11.690  23.010
  601BOLB   PO114402  25.030  11.970  22.740
  601BOLB   GL114403  25.380  11.920  22.520
  601BOLB   GL214404  25.650  12.150  22.530
  601BOLB   C1A14405  25.460  11.730  22.080
  601BOLB   C2A14406  25.440  11.630  21.720
  601BOLB   C3A14407  25.300  11.410  21.390
  601BOLB   C4A14408  25.200  11.190  20.970
  601BOLB   C1B14409  25.870  11.920  22.320
  601BOLB   C2B14410  26.300  11.730  22.200
  601BOLB   C3B14411  26.645  11.690  21.910
  601BOLB   C4B14412  26.835  11.370  21.810
  601BOLB   NC214413  24.090  10.360  18.950
  601BOLB   PO214414  24.520   9.990  19.010
  601BOLB   GL314415  24.410  10.180  19.360
  601BOLB   GL414416  24.150  10.210  19.490
  601BOLB   C1C14417  24.570  10.260  19.830
  601BOLB   C2C14418  24.510  10.610  20.090
  601BOLB   C3C14419  24.730  10.980  20.250
  601BOLB   C4C14420  25.020  10.920  20.700
  601BOLB   C1D14421  24.080  10.310  19.910
  601BOLB   C2D14422  23.700  10.220  20.140
  601BOLB   C3D14423  23.410  10.070  20.440
  601BOLB   C4D14424  23.300   9.690  20.470
  602BOLB   NC114425  21.600  21.950  39.490
  602BOLB   PO114426  21.790  22.200  39.830
  602BOLB   GL114427  21.930  22.590  39.950
  602BOLB   GL214428  21.610  22.880  39.790
  602BOLB   C1A14429  22.300  22.800  40.090
  602BOLB   C2A14430  22.700  23.140  40.160
  602BOLB   C3A14431  22.800  23.530  40.320
  602BOLB   C4A14432  22.750  23.990  40.520
  602BOLB   C1B14433  21.840  23.330  39.660
  602BOLB   C2B14434  22.100  23.750  39.610
  602BOLB   C3B14435  22.370  24.180  39.700
  602BOLB   C4B14436  22.780  24.370  39.860
  602BOLB   NC214437  22.890   0.030  40.180
  602BOLB   PO214438  22.800  26.290  40.510
  602BOLB   GL314439  22.610  25.910  40.330
  602BOLB   GL414440  22.950  25.800  40.380
  602BOLB   C1C14441  22.320  25.530  40.240
  602BOLB   C2C14442  22.370  25.050  40.230
  602BOLB   C3C14443  22.650  24.840  40.310
  602BOLB   C4C14444  22.770  24.420  40.420
  602BOLB   C1D14445  22.830  25.440  40.210
  602BOLB   C2D14446  23.000  25.100  40.270
  602BOLB   C3D14447  23.180  24.670  40.430
  602BOLB   C4D14448  23.410  24.650  40.900
  603BOLB   NC114449  23.110  20.370  24.100
  603BOLB   PO114450  22.700  20.510  23.810
  603BOLB   GL114451  22.990  20.530  23.480
  603BOLB   GL214452  22.920  20.720  23.360
  603BOLB   C1A14453  23.430  20.560  23.270
  603BOLB   C2A14454  23.720  20.860  23.060
  603BOLB   C3A14455  24.120  21.140  23.020
  603BOLB   C4A14456  24.370  21.420  22.910
  603BOLB   C1B14457  23.130  21.010  22.970
  603BOLB   C2B14458  23.100  21.340  22.640
  603BOLB   C3B14459  22.990  21.220  22.240
  603BOLB   C4B14460  22.810  21.330  21.930
  603BOLB   NC214461  26.645  21.840  22.640
  603BOLB   PO214462  26.330  22.050  22.440
  603BOLB   GL314463  26.070  21.780  22.730
  603BOLB   GL414464  26.060  21.510  22.810
  603BOLB   C1C14465  25.650  21.790  23.040
  603BOLB   C2C14466  25.270  21.700  22.930
  603BOLB   C3C14467  24.960  21.590  22.700
  603BOLB   C4C14468  24.630  21.450  22.690
  603BOLB   C1D14469  25.760  21.290  23.190
  603BOLB   C2D14470  25.590  20.950  23.470
  603BOLB   C3D14471  25.330  20.620  23.240
  603BOLB   C4D14472  25.060  20.280  23.170
  604BOLB   NC114473  20.540  11.140  39.000
  604BOLB   PO114474  20.090  11.030  38.990
  604BOLB   GL114475  20.180  10.690  39.150
  604BOLB   GL214476  20.480  10.420  39.180
  604BOLB   C1A14477  19.820  10.450  39.360
  604BOLB   C2A14478  19.540  10.060  39.570
  604BOLB   C3A14479  19.210   9.740  39.660
  604BOLB   C4A14480  19.060   9.390  39.570
  604BOLB   C1B14481  20.210  10.180  39.410
  604BOLB   C2B14482  20.140   9.790  39.630
  604BOLB   C3B14483  19.890   9.720  39.910
  604BOLB   C4B14484  19.630   9.380  40.200
  604BOLB   NC214485  18.050   7.570  40.140
  604BOLB   PO214486  17.750   7.920  40.250
  604BOLB   GL314487  17.990   8.070  40.020
  604BOLB   GL414488  17.870   8.010  39.760
  604BOLB   C1C14489  18.360   8.290  40.020
  604BOLB   C2C14490  18.740   8.190  40.050
  604BOLB   C3C14491  19.080   8.430  39.820
  604BOLB   C4C14492  19.060   8.870  39.730
  604BOLB   C1D14493  18.060   8.120  39.430
  604BOLB   C2D14494  18.180   8.370  39.130
  604BOLB   C3D14495  18.220   8.900  39.080
  604BOLB   C4D14496  18.450   9.160  38.980
  605BOLB   NC114497  24.110  21.100  38.980
  605BOLB   PO114498  24.540  21.210  39.080
  605BOLB   GL114499  24.850  21.490  39.080
  605BOLB   GL214500  24.870  21.530  38.750
  605BOLB   C1A14501  25.220  21.700  39.050
  605BOLB   C2A14502  25.520  21.920  39.220
  605BOLB   C3A14503  25.880  22.200  39.110
  605BOLB   C4A14504  25.940  22.620  39.230
  605BOLB   C1B14505  25.160  21.820  38.570
  605BOLB   C2B14506  25.570  21.810  38.570
  605BOLB   C3B14507  25.950  22.060  38.550
  605BOLB   C4B14508  26.130  22.470  38.740
  605BOLB   NC214509  27.855  24.720  38.640
  605BOLB   PO214510  27.365  24.640  38.530
  605BOLB   GL314511  27.055  24.310  38.590
  605BOLB   GL414512  26.695  24.360  38.800
  605BOLB   C1C14513  26.825  23.860  38.600
  605BOLB   C2C14514  26.485  23.570  38.600
  605BOLB   C3C14515  26.270  23.160  38.780
  605BOLB   C4C14516  25.910  22.960  38.940
  605BOLB   C1D14517  26.420  24.280  38.520
  605BOLB   C2D14518  26.080  23.920  38.510
  605BOLB   C3D14519  26.100  23.530  38.320
  605BOLB   C4D14520  26.230  23.190  38.070
  606BOLB   NC114521  27.695  12.370  25.710
  606BOLB   PO114522  27.735  12.080  25.980
  606BOLB   GL114523  28.095  11.960  25.750
  606BOLB   GL214524  28.195  12.130  25.620
  606BOLB   C1A14525  28.485  11.720  25.650
  606BOLB   C2A14526  28.935  11.520  25.610
  606BOLB   C3A14527  29.265  11.470  25.710
  606BOLB   C4A14528  29.655  11.540  25.580
  606BOLB   C1B14529  28.545  12.150  25.350
  606BOLB   C2B14530  28.905  11.910  25.110
  606BOLB   C3B14531  29.255  11.520  25.180
  606BOLB   C4B14532  29.425  11.190  24.910
  606BOLB   NC214533  31.985  10.680  25.490
  606BOLB   PO214534  31.895  11.070  25.250
  606BOLB   GL314535  31.705  11.420  25.390
  606BOLB   GL414536  31.925  11.830  25.300
  606BOLB   C1C14537  31.395  11.720  25.390
  606BOLB   C2C14538  30.995  11.740  25.510
  606BOLB   C3C14539  30.545  11.770  25.570
  606BOLB   C4C14540  30.115  11.690  25.500
  606BOLB   C1D14541  31.755  11.860  25.740
  606BOLB   C2D14542  31.335  11.590  25.860
  606BOLB   C3D14543  30.875  11.650  25.980
  606BOLB   C4D14544  30.715  11.660  26.440
  607BOLB   NC114545  28.645   8.580  31.390
  607BOLB   PO114546  28.785   8.670  31.060
  607BOLB   GL114547  29.075   8.380  31.180
  607BOLB   GL214548  28.955   8.170  31.400
  607BOLB   C1A14549  29.465   8.380  31.390
  607BOLB   C2A14550  29.895   8.320  31.370
  607BOLB   C3A14551  30.205   8.080  31.560
  607BOLB   C4A14552  30.575   8.120  31.590
  607BOLB   C1B14553  29.225   7.880  31.530
  607BOLB   C2B14554  29.605   7.800  31.500
  607BOLB   C3B14555  29.925   7.600  31.620
  607BOLB   C4B14556  30.135   7.800  31.970
  607BOLB   NC214557  32.205   6.450  31.950
  607BOLB   PO214558  32.605   6.680  32.110
  607BOLB   GL314559  32.295   6.970  32.290
  607BOLB   GL414560  32.085   6.720  32.450
  607BOLB   C1C14561  32.085   7.380  32.270
  607BOLB   C2C14562  31.785   7.650  32.000
  607BOLB   C3C14563  31.525   7.930  31.770
  607BOLB   C4C14564  31.085   8.020  31.710
  607BOLB   C1D14565  31.705   6.760  32.590
  607BOLB   C2D14566  31.285   6.880  32.360
  607BOLB   C3D14567  31.215   7.250  32.000
  607BOLB   C4D14568  31.175   7.610  32.010
  608BOLB   NC114569  16.460  23.010  37.360
  608BOLB   PO114570  16.500  22.960  37.860
  608BOLB   GL114571  16.560  23.260  38.260
  608BOLB   GL214572  16.770  23.320  38.380
  608BOLB   C1A14573  16.270  23.280  38.590
  608BOLB   C2A14574  16.160  23.730  38.790
  608BOLB   C3A14575  16.050  23.980  39.040
  608BOLB   C4A14576  16.030  24.120  39.510
  608BOLB   C1B14577  16.690  23.670  38.660
  608BOLB   C2B14578  16.960  24.100  38.750
  608BOLB   C3B14579  16.860  24.550  38.700
  608BOLB   C4B14580  16.440  24.680  38.560
  608BOLB   NC214581  15.430  25.960  40.490
  608BOLB   PO214582  15.080  25.700  40.640
  608BOLB   GL314583  15.100  25.700  40.230
  608BOLB   GL414584  15.270  25.970  40.020
  608BOLB   C1C14585  15.170  25.330  39.920
  608BOLB   C2C14586  15.380  24.960  39.980
  608BOLB   C3C14587  15.460  24.520  39.940
  608BOLB   C4C14588  15.680  24.250  39.700
  608BOLB   C1D14589  15.600  25.740  39.840
  608BOLB   C2D14590  15.560  25.440  39.580
  608BOLB   C3D14591  15.670  25.150  39.450
  608BOLB   C4D14592  15.730  24.900  39.090
  609BOLB   NC114593  12.430  19.620  42.880
  609BOLB   PO114594  12.620  20.010  42.650
  609BOLB   GL114595  12.850  19.920  42.190
  609BOLB   GL214596  13.010  20.200  41.900
  609BOLB   C1A14597  13.050  19.700  41.870
  609BOLB   C2A14598  13.270  19.330  41.670
  609BOLB   C3A14599  13.320  19.080  41.310
  609BOLB   C4A14600  13.360  18.960  40.870
  609BOLB   C1B14601  13.340  20.170  41.710
  609BOLB   C2B14602  13.800  20.010  41.670
  609BOLB   C3B14603  14.200  20.230  41.580
  609BOLB   C4B14604  14.550  20.320  41.370
  609BOLB   NC214605  11.970  20.510  40.770
  609BOLB   PO214606  12.250  20.810  40.570
  609BOLB   GL314607  12.640  20.660  40.490
  609BOLB   GL414608  12.780  20.580  40.800
  609BOLB   C1C14609  12.870  20.310  40.270
  609BOLB   C2C14610  13.090  19.970  40.150
  609BOLB   C3C14611  13.340  19.660  40.360
  609BOLB   C4C14612  13.350  19.310  40.500
  609BOLB   C1D14613  13.170  20.580  40.630
  609BOLB   C2D14614  13.470  20.320  40.300
  609BOLB   C3D14615  13.620  19.900  40.090
  609BOLB   C4D14616  13.900  19.550  40.210
  610BOLB   NC114617  19.890  24.280  31.080
  610BOLB   PO114618  20.150  24.500  30.930
  610BOLB   GL114619  20.420  24.740  31.030
  610BOLB   GL214620  20.470  24.950  30.840
  610BOLB   C1A14621  20.630  24.990  31.370
  610BOLB   C2A14622  20.930  25.300  31.390
  610BOLB   C3A14623  21.200  25.650  31.540
  610BOLB   C4A14624  21.530  25.920  31.510
  610BOLB   C1B14625  20.880  25.050  30.760
  610BOLB   C2B14626  21.060  25.480  30.770
  610BOLB   C3B14627  21.120  25.930  31.020
  610BOLB   C4B14628  21.160  26.160  30.710
  610BOLB   NC214629  23.460   0.740  32.840
  610BOLB   PO214630  23.050   0.650  32.800
  610BOLB   GL314631  22.820   0.360  32.920
  610BOLB   GL414632  22.600   0.460  33.180
  610BOLB   C1C14633  22.600   0.020  32.750
  610BOLB   C2C14634  22.320  26.190  32.650
  610BOLB   C3C14635  22.230  26.020  32.280
  610BOLB   C4C14636  21.910  26.100  31.850
  610BOLB   C1D14637  22.210   0.450  33.270
  610BOLB   C2D14638  21.850   0.300  33.510
  610BOLB   C3D14639  21.380   0.260  33.760
  610BOLB   C4D14640  20.990   0.060  33.880
  611BOLB   NC114641  18.550  11.190  30.360
  611BOLB   PO114642  18.750  10.770  30.440
  611BOLB   GL114643  18.390  10.470  30.660
  611BOLB   GL214644  18.560  10.280  30.850
  611BOLB   C1A14645  18.130  10.070  30.530
  611BOLB   C2A14646  18.040   9.610  30.680
  611BOLB   C3A14647  17.930   9.290  30.940
  611BOLB   C4A14648  17.780   8.860  31.030
  611BOLB   C1B14649  18.270  10.080  31.000
  611BOLB   C2B14650  17.880  10.000  31.000
  611BOLB   C3B14651  17.500  10.030  30.990
  611BOLB   C4B14652  17.140  10.050  30.790
  611BOLB   NC214653  15.740   6.790  31.580
  611BOLB   PO214654  16.020   7.120  31.360
  611BOLB   GL314655  16.310   7.370  31.670
  611BOLB   GL414656  16.630   7.100  31.730
  611BOLB   C1C14657  16.640   7.680  31.590
  611BOLB   C2C14658  16.940   8.030  31.560
  611BOLB   C3C14659  17.310   8.060  31.210
  611BOLB   C4C14660  17.600   8.410  31.140
  611BOLB   C1D14661  17.010   7.070  31.410
  611BOLB   C2D14662  17.270   7.040  31.080
  611BOLB   C3D14663  17.180   7.180  30.690
  611BOLB   C4D14664  17.420   6.920  30.340
  612BOLB   NC114665  27.315  14.580  39.100
  612BOLB   PO114666  27.755  14.670  39.310
  612BOLB   GL114667  28.175  14.800  39.570
  612BOLB   GL214668  28.485  14.890  39.470
  612BOLB   C1A14669  28.395  15.070  39.910
  612BOLB   C2A14670  28.755  15.150  40.110
  612BOLB   C3A14671  28.985  15.310  40.420
  612BOLB   C4A14672  29.405  15.280  40.570
  612BOLB   C1B14673  28.865  14.860  39.710
  612BOLB   C2B14674  29.155  14.750  39.990
  612BOLB   C3B14675  29.175  14.690  40.460
  612BOLB   C4B14676  29.275  14.900  40.800
  612BOLB   NC214677  31.435  15.350  42.150
  612BOLB   PO214678  31.725  15.710  42.030
  612BOLB   GL314679  31.315  15.610  41.750
  612BOLB   GL414680  30.995  15.340  41.860
  612BOLB   C1C14681  30.915  15.810  41.480
  612BOLB   C2C14682  30.515  15.700  41.230
  612BOLB   C3C14683  30.125  15.660  40.940
  612BOLB   C4C14684  29.795  15.610  40.720
  612BOLB   C1D14685  30.665  15.380  41.590
  612BOLB   C2D14686  30.215  15.410  41.480
  612BOLB   C3D14687  29.835  15.380  41.360
  612BOLB   C4D14688  29.485  15.450  41.090
  613BOLB   NC114689  15.500  19.770  44.970
  613BOLB   PO114690  15.770  20.140  44.990
  613BOLB   GL114691  16.070  19.920  44.740
  613BOLB   GL214692  15.940  19.680  44.760
  613BOLB   C1A14693  16.350  19.790  44.470
  613BOLB   C2A14694  16.770  19.870  44.330
  613BOLB   C3A14695  17.030  20.150  44.300
  613BOLB   C4A14696  17.330  20.310  44.060
  613BOLB   C1B14697  16.140  19.370  44.700
  613BOLB   C2B14698  16.320  19.200  44.460
  613BOLB   C3B14699  16.720  19.140  44.350
  613BOLB   C4B14700  17.140  19.340  44.440
  613BOLB   NC214701  16.440  21.560  45.470
  613BOLB   PO214702  16.750  21.600  45.120
  613BOLB   GL314703  17.150  21.550  44.850
  613BOLB   GL414704  17.380  21.680  44.830
  613BOLB   C1C14705  17.560  21.370  44.520
  613BOLB   C2C14706  17.830  21.180  44.260
  613BOLB   C3C14707  17.940  20.860  44.000
  613BOLB   C4C14708  17.720  20.460  43.990
  613BOLB   C1D14709  17.200  21.670  44.380
  613BOLB   C2D14710  17.360  21.860  43.940
  613BOLB   C3D14711  17.610  21.680  43.570
  613BOLB   C4D14712  17.780  21.900  43.140
  614BOLB   NC114713  23.290   8.160  28.220
  614BOLB   PO114714  23.450   8.230  27.790
  614BOLB   GL114715  23.560   7.820  27.880
  614BOLB   GL214716  23.340   7.620  28.070
  614BOLB   C1A14717  23.670   7.440  27.800
  614BOLB   C2A14718  23.700   7.060  27.650
  614BOLB   C3A14719  23.780   6.680  27.610
  614BOLB   C4A14720  23.750   6.420  27.180
  614BOLB   C1B14721  23.090   7.520  28.350
  614BOLB   C2B14722  23.090   7.040  28.510
  614BOLB   C3B14723  23.330   6.650  28.320
  614BOLB   C4B14724  23.560   6.370  28.070
  614BOLB   NC214725  23.480   4.490  26.010
  614BOLB   PO214726  23.700   4.230  26.350
  614BOLB   GL314727  23.580   4.620  26.560
  614BOLB   GL414728  23.410   4.620  26.820
  614BOLB   C1C14729  23.720   5.040  26.600
  614BOLB   C2C14730  23.610   5.340  26.750
  614BOLB   C3C14731  23.510   5.730  26.920
  614BOLB   C4C14732  23.700   6.160  27.000
  614BOLB   C1D14733  23.250   5.000  26.870
  614BOLB   C2D14734  23.120   5.400  26.810
  614BOLB   C3D14735  23.010   5.790  26.930
  614BOLB   C4D14736  23.100   6.160  27.240
  615BOLB   NC114737  15.340  24.220  33.460
  615BOLB   PO114738  15.210  23.780  33.520
  615BOLB   GL114739  14.870  24.130  33.410
  615BOLB   GL214740  14.680  24.030  33.230
  615BOLB   C1A14741  14.500  24.310  33.670
  615BOLB   C2A14742  14.560  24.760  33.670
  615BOLB   C3A14743  14.200  25.010  33.660
  615BOLB   C4A14744  14.140  25.270  33.930
  615BOLB   C1B14745  14.560  24.480  33.230
  615BOLB   C2B14746  14.140  24.530  33.440
  615BOLB   C3B14747  13.970  24.570  33.930
  615BOLB   C4B14748  13.840  24.890  34.130
  615BOLB   NC214749  13.230   0.640  35.750
  615BOLB   PO214750  12.930   0.500  35.400
  615BOLB   GL314751  13.110   0.240  35.000
  615BOLB   GL414752  13.330   0.290  34.850
  615BOLB   C1C14753  13.150  26.110  34.860
  615BOLB   C2C14754  13.520  25.890  34.780
  615BOLB   C3C14755  13.760  25.770  34.440
  615BOLB   C4C14756  13.860  25.490  34.190
  615BOLB   C1D14757  13.650  26.330  34.720
  615BOLB   C2D14758  14.020  26.060  34.960
  615BOLB   C3D14759  14.300  25.710  35.040
  615BOLB   C4D14760  14.250  25.290  35.110
  616BOLB   NC114761  26.905  17.310  28.910
  616BOLB   PO114762  26.645  17.050  29.140
  616BOLB   GL114763  26.725  17.350  29.360
  616BOLB   GL214764  26.825  17.300  29.600
  616BOLB   C1A14765  26.985  17.760  29.300
  616BOLB   C2A14766  27.355  17.780  29.080
  616BOLB   C3A14767  27.755  18.020  29.020
  616BOLB   C4A14768  28.105  18.170  29.180
  616BOLB   C1B14769  26.705  17.360  30.000
  616BOLB   C2B14770  26.855  17.560  30.290
  616BOLB   C3B14771  27.205  17.770  30.420
  616BOLB   C4B14772  27.395  18.150  30.410
  616BOLB   NC214773  30.355  19.250  29.650
  616BOLB   PO214774  29.995  19.480  29.880
  616BOLB   GL314775  29.795  19.080  29.760
  616BOLB   GL414776  29.705  19.010  30.130
  616BOLB   C1C14777  29.315  18.870  29.680
  616BOLB   C2C14778  28.885  18.740  29.610
  616BOLB   C3C14779  28.745  18.390  29.550
  616BOLB   C4C14780  28.395  18.130  29.520
  616BOLB   C1D14781  29.215  18.900  30.260
  616BOLB   C2D14782  28.845  19.060  30.450
  616BOLB   C3D14783  28.465  18.950  30.490
  616BOLB   C4D14784  28.045  19.160  30.400
  617BOLB   NC114785  23.250  11.880  22.200
  617BOLB   PO114786  23.670  11.940  22.390
  617BOLB   GL114787  23.700  11.660  22.020
  617BOLB   GL214788  23.530  11.400  22.020
  617BOLB   C1A14789  23.940  11.540  21.700
  617BOLB   C2A14790  23.930  11.560  21.210
  617BOLB   C3A14791  23.610  11.550  20.890
  617BOLB   C4A14792  23.410  11.510  20.450
  617BOLB   C1B14793  23.410  11.020  21.770
  617BOLB   C2B14794  23.440  10.690  21.640
  617BOLB   C3B14795  23.610  10.310  21.810
  617BOLB   C4B14796  23.830  10.160  22.130
  617BOLB   NC214797  22.940  11.400  17.790
  617BOLB   PO214798  23.090  11.440  18.180
  617BOLB   GL314799  23.220  11.320  18.660
  617BOLB   GL414800  23.090  10.990  18.850
  617BOLB   C1C14801  23.030  11.380  19.140
  617BOLB   C2C14802  22.930  11.450  19.590
  617BOLB   C3C14803  23.090  11.780  19.930
  617BOLB   C4C14804  23.410  11.860  20.110
  617BOLB   C1D14805  23.210  10.890  19.370
  617BOLB   C2D14806  23.000  10.920  19.780
  617BOLB   C3D14807  22.960  10.760  20.050
  617BOLB   C4D14808  23.270  10.590  20.390
  618BOLB   NC114809  28.265  10.230  37.780
  618BOLB   PO114810  28.165  10.250  38.150
  618BOLB   GL114811  28.415   9.990  38.250
  618BOLB   GL214812  28.305   9.860  38.580
  618BOLB   C1A14813  28.835   9.790  38.120
  618BOLB   C2A14814  29.125   9.510  38.260
  618BOLB   C3A14815  29.365   9.150  38.280
  618BOLB   C4A14816  29.545   8.980  38.100
  618BOLB   C1B14817  28.505   9.660  39.000
  618BOLB   C2B14818  28.935   9.580  39.010
  618BOLB   C3B14819  29.245   9.480  38.780
  618BOLB   C4B14820  29.505   9.370  39.140
  618BOLB   NC214821  31.675   8.500  39.280
  618BOLB   PO214822  31.645   8.040  39.090
  618BOLB   GL314823  31.295   8.290  38.960
  618BOLB   GL414824  31.275   8.370  38.630
  618BOLB   C1C14825  30.865   8.300  38.910
  618BOLB   C2C14826  30.665   8.490  38.730
  618BOLB   C3C14827  30.295   8.740  38.460
  618BOLB   C4C14828  29.925   8.740  38.200
  618BOLB   C1D14829  31.015   8.420  38.330
  618BOLB   C2D14830  30.675   8.700  38.180
  618BOLB   C3D14831  30.335   9.020  38.080
  618BOLB   C4D14832  29.985   9.210  38.150
  619BOLB   NC114833  19.300  24.150  36.690
  619BOLB   PO114834  18.880  24.220  36.440
  619BOLB   GL114835  18.940  24.560  36.600
  619BOLB   GL214836  18.640  24.660  36.510
  619BOLB   C1A14837  19.140  24.830  36.670
  619BOLB   C2A14838  19.160  25.230  36.900
  619BOLB   C3A14839  19.090  25.680  37.000
  619BOLB   C4A14840  18.790  26.040  37.150
  619BOLB   C1B14841  18.670  25.090  36.680
  619BOLB   C2B14842  18.710  25.470  36.750
  619BOLB   C3B14843  18.810  25.800  36.560
  619BOLB   C4B14844  18.840  26.180  36.620
  619BOLB   NC214845  17.610   1.380  38.840
  619BOLB   PO214846  17.980   1.230  38.620
  619BOLB   GL314847  17.860   0.800  38.600
  619BOLB   GL414848  17.830   0.520  38.830
  619BOLB   C1C14849  17.910   0.510  38.330
  619BOLB   C2C14850  18.120   0.360  38.020
  619BOLB   C3C14851  18.230   0.020  37.740
  619BOLB   C4C14852  18.370  26.210  37.380
  619BOLB   C1D14853  17.490   0.220  38.740
  619BOLB   C2D14854  17.100  26.430  38.780
  619BOLB   C3D14855  17.130  26.040  38.890
  619BOLB   C4D14856  17.430  25.720  38.930
  620BOLB   NC114857  22.550   5.070  39.120
  620BOLB   PO114858  22.240   5.250  39.000
  620BOLB   GL114859  22.240   5.670  38.750
  620BOLB   GL214860  22.560   5.810  38.920
  620BOLB   C1A14861  22.110   6.160  38.590
  620BOLB   C2A14862  21.670   6.250  38.430
  620BOLB   C3A14863  21.630   6.510  38.310
  620BOLB   C4A14864  21.720   6.890  38.240
  620BOLB   C1B14865  22.870   6.080  38.720
  620BOLB   C2B14866  23.070   6.410  38.400
  620BOLB   C3B14867  22.960   6.710  38.150
  620BOLB   C4B14868  22.930   7.170  38.000
  620BOLB   NC214869  22.190   9.070  37.210
  620BOLB   PO214870  22.520   8.930  37.360
  620BOLB   GL314871  22.340   8.760  37.760
  620BOLB   GL414872  22.650   8.530  37.900
  620BOLB   C1C14873  22.150   8.440  38.060
  620BOLB   C2C14874  21.810   8.090  38.070
  620BOLB   C3C14875  21.650   7.730  38.090
  620BOLB   C4C14876  21.520   7.240  38.040
  620BOLB   C1D14877  22.450   8.120  37.820
  620BOLB   C2D14878  22.180   7.730  38.060
  620BOLB   C3D14879  22.040   7.310  37.880
  620BOLB   C4D14880  21.760   7.350  37.490
  621BOLB   NC114881  13.930   1.020  31.140
  621BOLB   PO114882  13.650   0.910  31.410
  621BOLB   GL114883  13.650   0.580  31.120
  621BOLB   GL214884  13.930   0.480  31.040
  621BOLB   C1A14885  13.560   0.160  31.290
  621BOLB   C2A14886  13.580  26.180  31.320
  621BOLB   C3A14887  13.750  25.830  31.430
  621BOLB   C4A14888  13.960  25.740  31.800
  621BOLB   C1B14889  14.120   0.140  31.230
  621BOLB   C2B14890  14.050  26.270  31.470
  621BOLB   C3B14891  13.800  26.260  31.910
  621BOLB   C4B14892  13.520  26.380  32.250
  621BOLB   NC214893  13.340   1.590  32.410
  621BOLB   PO214894  13.700   1.410  32.340
  621BOLB   GL314895  13.860   1.070  32.250
  621BOLB   GL414896  14.220   1.070  32.370
  621BOLB   C1C14897  13.900   0.640  32.500
  621BOLB   C2C14898  14.090   0.120  32.580
  621BOLB   C3C14899  14.210  26.300  32.270
  621BOLB   C4C14900  14.190  25.950  32.080
  621BOLB   C1D14901  14.360   0.810  32.090
  621BOLB   C2D14902  14.510   0.590  31.710
  621BOLB   C3D14903  14.890   0.350  31.860
  621BOLB   C4D14904  15.130   0.050  32.050
  622BOLB   NC114905  13.570  19.110  33.280
  622BOLB   PO114906  13.200  19.240  33.530
  622BOLB   GL114907  12.780  19.150  33.680
  622BOLB   GL214908  12.670  19.010  33.990
  622BOLB   C1A14909  12.290  19.160  33.700
  622BOLB   C2A14910  11.980  19.320  33.920
  622BOLB   C3A14911  11.640  19.450  34.080
  622BOLB   C4A14912  11.200  19.510  34.220
  622BOLB   C1B14913  12.270  18.990  34.150
  622BOLB   C2B14914  12.020  18.780  33.880
  622BOLB   C3B14915  12.050  18.730  33.520
  622BOLB   C4B14916  12.230  18.740  33.090
  622BOLB   NC214917   9.390  18.750  35.420
  622BOLB   PO214918   9.480  19.110  35.310
  622BOLB   GL314919   9.850  19.170  35.270
  622BOLB   GL414920   9.830  19.530  35.310
  622BOLB   C1C14921  10.060  19.270  35.000
  622BOLB   C2C14922  10.250  19.210  34.690
  622BOLB   C3C14923  10.600  19.270  34.450
  622BOLB   C4C14924  10.840  19.390  34.180
  622BOLB   C1D14925  10.300  19.520  35.370
  622BOLB   C2D14926  10.670  19.600  35.560
  622BOLB   C3D14927  11.170  19.530  35.470
  622BOLB   C4D14928  11.210  19.270  35.180
  623BOLB   NC114929  17.560  11.770  35.110
  623BOLB   PO114930  17.690  11.320  35.110
  623BOLB   GL114931  17.370  11.000  35.210
  623BOLB   GL214932  17.110  11.010  34.850
  623BOLB   C1A14933  17.240  10.500  35.150
  623BOLB   C2A14934  17.150  10.140  35.450
  623BOLB   C3A14935  17.090   9.750  35.660
  623BOLB   C4A14936  17.390   9.580  35.900
  623BOLB   C1B14937  16.810  10.750  34.880
  623BOLB   C2B14938  16.540  10.480  35.110
  623BOLB   C3B14939  16.680   9.990  35.180
  623BOLB   C4B14940  16.980   9.640  34.980
  623BOLB   NC214941  15.910   7.310  36.050
  623BOLB   PO214942  16.120   7.720  36.200
  623BOLB   GL314943  16.580   7.810  36.450
  623BOLB   GL414944  16.660   7.870  36.830
  623BOLB   C1C14945  16.920   8.150  36.420
  623BOLB   C2C14946  17.120   8.520  36.280
  623BOLB   C3C14947  17.260   8.960  36.190
  623BOLB   C4C14948  17.380   9.350  36.240
  623BOLB   C1D14949  16.640   8.270  36.890
  623BOLB   C2D14950  16.980   8.590  36.790
  623BOLB   C3D14951  16.850   8.860  36.520
  623BOLB   C4D14952  16.890   9.240  36.420
  624BOLB   NC114953  20.390  22.690  39.830
  624BOLB   PO114954  20.620  22.740  40.160
  624BOLB   GL114955  20.890  23.060  40.340
  624BOLB   GL214956  20.770  23.230  40.040
  624BOLB   C1A14957  21.110  23.280  40.540
  624BOLB   C2A14958  21.440  23.520  40.620
  624BOLB   C3A14959  21.680  23.790  41.000
  624BOLB   C4A14960  21.930  24.100  41.290
  624BOLB   C1B14961  20.680  23.490  40.450
  624BOLB   C2B14962  20.900  23.890  40.640
  624BOLB   C3B14963  21.280  24.010  40.790
  624BOLB   C4B14964  21.530  24.230  41.040
  624BOLB   NC214965  23.220  26.040  40.770
  624BOLB   PO214966  23.020  25.970  41.240
  624BOLB   GL314967  22.930  25.530  41.000
  624BOLB   GL414968  22.730  25.280  41.170
  624BOLB   C1C14969  22.990  25.170  40.760
  624BOLB   C2C14970  22.860  24.800  40.920
  624BOLB   C3C14971  22.500  24.630  41.280
  624BOLB   C4C14972  22.250  24.370  41.340
  624BOLB   C1D14973  22.450  25.070  40.900
  624BOLB   C2D14974  22.370  24.720  40.670
  624BOLB   C3D14975  22.290  24.340  40.380
  624BOLB   C4D14976  22.160  24.040  40.150
  625BOLB   NC114977  15.980  13.850  31.360
  625BOLB   PO114978  16.210  13.480  31.190
  625BOLB   GL114979  15.940  13.290  31.390
  625BOLB   GL214980  16.180  13.010  31.540
  625BOLB   C1A14981  15.500  13.310  31.330
  625BOLB   C2A14982  15.210  13.110  31.320
  625BOLB   C3A14983  14.890  12.850  31.160
  625BOLB   C4A14984  14.680  12.590  31.000
  625BOLB   C1B14985  15.720  12.870  31.520
  625BOLB   C2B14986  15.350  12.700  31.500
  625BOLB   C3B14987  15.010  12.410  31.350
  625BOLB   C4B14988  14.810  12.040  31.190
  625BOLB   NC214989  12.510  11.190  30.950
  625BOLB   PO214990  12.850  10.940  31.140
  625BOLB   GL314991  13.070  11.260  31.320
  625BOLB   GL414992  12.940  11.500  31.270
  625BOLB   C1C14993  13.470  11.470  31.390
  625BOLB   C2C14994  13.900  11.680  31.310
  625BOLB   C3C14995  14.180  11.970  31.230
  625BOLB   C4C14996  14.460  12.270  30.920
  625BOLB   C1D14997  13.030  11.920  31.260
  625BOLB   C2D14998  13.060  12.200  31.640
  625BOLB   C3D14999  13.430  12.410  31.830
  625BOLB   C4D15000  13.710  12.790  31.870
  626BOLB   NC115001  24.050  21.850  37.100
  626BOLB   PO115002  24.110  21.930  37.530
  626BOLB   GL115003  24.370  22.160  37.750
  626BOLB   GL215004  24.590  22.220  37.490
  626BOLB   C1A15005  24.260  22.500  38.080
  626BOLB   C2A15006  24.510  22.670  38.280
  626BOLB   C3A15007  24.750  23.050  38.430
  626BOLB   C4A15008  25.230  23.090  38.540
  626BOLB   C1B15009  24.920  22.470  37.240
  626BOLB   C2B15010  25.370  22.620  37.330
  626BOLB   C3B15011  25.810  22.680  37.660
  626BOLB   C4B15012  26.300  22.860  37.650
  626BOLB   NC215013  27.525  23.810  40.110
  626BOLB   PO215014  27.285  23.800  39.780
  626BOLB   GL315015  27.035  23.750  39.490
  626BOLB   GL415016  26.995  23.430  39.510
  626BOLB   C1C15017  26.795  24.040  39.190
  626BOLB   C2C15018  26.360  23.980  38.920
  626BOLB   C3C15019  26.000  23.540  38.910
  626BOLB   C4C15020  25.610  23.370  38.540
  626BOLB   C1D15021  26.785  23.070  39.590
  626BOLB   C2D15022  26.430  22.820  39.650
  626BOLB   C3D15023  26.100  22.420  39.720
  626BOLB   C4D15024  25.630  22.280  39.570
  627BOLB   NC115025  14.210  18.190  34.710
  627BOLB   PO115026  13.970  18.300  35.020
  627BOLB   GL115027  13.590  17.960  35.030
  627BOLB   GL215028  13.530  17.570  34.950
  627BOLB   C1A15029  13.140  17.880  35.200
  627BOLB   C2A15030  12.760  17.700  35.110
  627BOLB   C3A15031  12.380  17.460  35.340
  627BOLB   C4A15032  12.110  17.280  35.550
  627BOLB   C1B15033  13.210  17.350  35.200
  627BOLB   C2B15034  13.120  17.050  35.540
  627BOLB   C3B15035  12.870  16.720  35.840
  627BOLB   C4B15036  12.590  16.760  36.230
  627BOLB   NC215037   9.340  16.420  36.340
  627BOLB   PO215038   9.810  16.680  36.340
  627BOLB   GL315039  10.210  16.490  36.300
  627BOLB   GL415040  10.430  16.810  36.460
  627BOLB   C1C15041  10.560  16.620  36.020
  627BOLB   C2C15042  10.940  16.870  35.920
  627BOLB   C3C15043  11.320  16.950  35.930
  627BOLB   C4C15044  11.760  17.140  35.700
  627BOLB   C1D15045  10.790  17.020  36.340
  627BOLB   C2D15046  11.140  17.350  36.180
  627BOLB   C3D15047  11.300  17.410  35.810
  627BOLB   C4D15048  11.420  17.730  35.580
  628BOLB   NC115049  26.495   8.190  34.330
  628BOLB   PO115050  26.555   7.740  34.520
  628BOLB   GL115051  26.705   7.440  34.680
  628BOLB   GL215052  26.925   7.430  35.070
  628BOLB   C1A15053  26.575   6.960  34.670
  628BOLB   C2A15054  26.755   6.480  34.610
  628BOLB   C3A15055  26.755   6.040  34.500
  628BOLB   C4A15056  26.895   5.680  34.570
  628BOLB   C1B15057  26.685   6.970  35.190
  628BOLB   C2B15058  26.545   6.620  35.060
  628BOLB   C3B15059  26.785   6.200  35.050
  628BOLB   C4B15060  27.005   5.870  35.020
  628BOLB   NC215061  28.475   3.980  35.740
  628BOLB   PO215062  28.695   4.170  35.360
  628BOLB   GL315063  28.605   4.620  35.320
  628BOLB   GL415064  28.735   4.820  35.400
  628BOLB   C1C15065  28.115   4.770  35.260
  628BOLB   C2C15066  27.845   5.010  35.060
  628BOLB   C3C15067  27.555   5.380  34.910
  628BOLB   C4C15068  27.215   5.460  34.820
  628BOLB   C1D15069  28.495   5.110  35.150
  628BOLB   C2D15070  28.595   5.640  35.120
  628BOLB   C3D15071  28.555   6.100  35.030
  628BOLB   C4D15072  28.595   6.550  34.950
  629BOLB   NC115073  21.870   8.690  29.720
  629BOLB   PO115074  21.450   8.830  29.850
  629BOLB   GL115075  21.440   8.530  29.530
  629BOLB   GL215076  21.110   8.480  29.380
  629BOLB   C1A15077  21.500   8.070  29.450
  629BOLB   C2A15078  21.490   7.750  29.290
  629BOLB   C3A15079  21.310   7.330  29.210
  629BOLB   C4A15080  21.280   6.910  29.390
  629BOLB   C1B15081  20.990   8.060  29.470
  629BOLB   C2B15082  20.920   7.690  29.490
  629BOLB   C3B15083  20.890   7.170  29.530
  629BOLB   C4B15084  21.110   7.040  29.850
  629BOLB   NC215085  20.440   4.690  28.890
  629BOLB   PO215086  20.090   4.920  28.730
  629BOLB   GL315087  20.460   5.240  28.770
  629BOLB   GL415088  20.620   5.220  28.470
  629BOLB   C1C15089  20.650   5.670  28.910
  629BOLB   C2C15090  20.980   5.910  29.100
  629BOLB   C3C15091  21.170   6.160  29.350
  629BOLB   C4C15092  21.320   6.470  29.560
  629BOLB   C1D15093  20.430   5.660  28.470
  629BOLB   C2D15094  20.700   6.070  28.550
  629BOLB   C3D15095  20.890   6.350  28.830
  629BOLB   C4D15096  20.930   6.640  29.150
  630BOLB   NC115097  19.190  21.560  23.360
  630BOLB   PO115098  19.300  21.290  22.990
  630BOLB   GL115099  19.440  21.770  22.740
  630BOLB   GL215100  19.370  21.820  22.410
  630BOLB   C1A15101  19.880  21.990  22.480
  630BOLB   C2A15102  20.100  22.070  22.180
  630BOLB   C3A15103  20.360  22.100  21.860
  630BOLB   C4A15104  20.660  22.190  21.580
  630BOLB   C1B15105  19.380  22.240  22.260
  630BOLB   C2B15106  19.290  22.620  21.980
  630BOLB   C3B15107  19.230  22.690  21.580
  630BOLB   C4B15108  19.030  22.740  21.220
  630BOLB   NC215109  22.390  24.260  20.540
  630BOLB   PO215110  22.380  23.810  20.820
  630BOLB   GL315111  21.970  23.490  20.950
  630BOLB   GL415112  21.950  23.330  20.680
  630BOLB   C1C15113  21.890  23.160  21.210
  630BOLB   C2C15114  21.710  22.980  21.390
  630BOLB   C3C15115  21.330  22.850  21.590
  630BOLB   C4C15116  20.980  22.530  21.600
  630BOLB   C1D15117  21.860  22.890  20.810
  630BOLB   C2D15118  21.720  22.630  20.760
  630BOLB   C3D15119  21.720  22.250  20.650
  630BOLB   C4D15120  22.170  22.060  20.600
  631BOLB   NC115121  23.290   7.780  34.280
  631BOLB   PO115122  23.040   7.750  34.620
  631BOLB   GL115123  22.890   7.380  34.830
  631BOLB   GL215124  22.720   7.560  35.060
  631BOLB   C1A15125  22.860   7.040  34.810
  631BOLB   C2A15126  22.690   6.670  34.920
  631BOLB   C3A15127  22.510   6.220  35.010
  631BOLB   C4A15128  22.520   5.780  34.830
  631BOLB   C1B15129  22.270   7.590  35.050
  631BOLB   C2B15130  21.920   7.330  35.140
  631BOLB   C3B15131  21.580   7.000  35.210
  631BOLB   C4B15132  21.590   6.520  35.240
  631BOLB   NC215133  20.650   3.840  35.120
  631BOLB   PO215134  21.020   4.070  35.340
  631BOLB   GL315135  21.060   4.500  35.270
  631BOLB   GL415136  20.990   4.810  35.480
  631BOLB   C1C15137  21.290   4.710  35.000
  631BOLB   C2C15138  21.620   5.040  34.940
  631BOLB   C3C15139  21.710   5.340  34.660
  631BOLB   C4C15140  22.180   5.580  34.640
  631BOLB   C1D15141  21.230   5.160  35.230
  631BOLB   C2D15142  21.550   5.500  35.190
  631BOLB   C3D15143  21.960   5.520  35.050
  631BOLB   C4D15144  22.130   5.910  35.090
  632BOLB   NC115145  15.650  17.500  23.760
  632BOLB   PO115146  16.020  17.380  23.510
  632BOLB   GL115147  15.680  17.200  23.330
  632BOLB   GL215148  15.810  17.080  23.080
  632BOLB   C1A15149  15.330  17.250  23.020
  632BOLB   C2A15150  15.030  17.150  22.740
  632BOLB   C3A15151  15.040  17.240  22.340
  632BOLB   C4A15152  15.030  17.120  21.870
  632BOLB   C1B15153  15.470  16.810  22.880
  632BOLB   C2B15154  15.100  16.500  22.720
  632BOLB   C3B15155  14.930  16.240  22.400
  632BOLB   C4B15156  14.530  16.030  22.390
  632BOLB   NC215157  13.970  16.560  19.860
  632BOLB   PO215158  14.240  16.370  19.560
  632BOLB   GL315159  14.610  16.490  19.800
  632BOLB   GL415160  14.670  16.720  19.540
  632BOLB   C1C15161  14.800  16.380  20.280
  632BOLB   C2C15162  14.670  16.530  20.680
  632BOLB   C3C15163  14.890  16.690  21.060
  632BOLB   C4C15164  15.020  16.860  21.430
  632BOLB   C1D15165  14.840  17.010  19.800
  632BOLB   C2D15166  15.310  17.000  20.110
  632BOLB   C3D15167  15.760  17.130  20.120
  632BOLB   C4D15168  16.030  17.340  19.780
  633BOLB   NC115169  24.990  21.030  38.950
  633BOLB   PO115170  24.820  20.790  39.380
  633BOLB   GL115171  24.890  21.140  39.510
  633BOLB   GL215172  24.790  21.140  39.840
  633BOLB   C1A15173  25.250  21.430  39.510
  633BOLB   C2A15174  25.540  21.740  39.740
  633BOLB   C3A15175  25.930  21.950  39.970
  633BOLB   C4A15176  26.190  22.220  40.200
  633BOLB   C1B15177  24.990  21.440  39.970
  633BOLB   C2B15178  25.350  21.580  40.190
  633BOLB   C3B15179  25.800  21.710  40.370
  633BOLB   C4B15180  26.230  21.690  40.410
  633BOLB   NC215181  27.095  24.290  40.170
  633BOLB   PO215182  27.245  23.990  40.500
  633BOLB   GL315183  26.945  23.690  40.260
  633BOLB   GL415184  26.845  23.930  39.960
  633BOLB   C1C15185  26.515  23.670  40.300
  633BOLB   C2C15186  26.260  23.390  40.580
  633BOLB   C3C15187  26.290  22.940  40.390
  633BOLB   C4C15188  26.130  22.590  40.330
  633BOLB   C1D15189  26.625  23.630  39.720
  633BOLB   C2D15190  26.280  23.330  39.580
  633BOLB   C3D15191  26.290  23.080  39.310
  633BOLB   C4D15192  26.400  22.690  39.130
  634BOLB   NC115193  16.700  12.840  36.950
  634BOLB   PO115194  16.820  12.420  36.830
  634BOLB   GL115195  16.480  12.410  36.800
  634BOLB   GL215196  16.400  12.140  36.700
  634BOLB   C1A15197  15.970  12.340  36.850
  634BOLB   C2A15198  15.640  12.160  36.880
  634BOLB   C3A15199  15.310  11.950  37.090
  634BOLB   C4A15200  15.090  11.730  37.330
  634BOLB   C1B15201  16.410  11.750  36.930
  634BOLB   C2B15202  16.160  11.470  37.090
  634BOLB   C3B15203  15.990  11.100  37.260
  634BOLB   C4B15204  15.840  10.690  37.360
  634BOLB   NC215205  13.150  10.910  38.400
  634BOLB   PO215206  13.370  10.610  38.720
  634BOLB   GL315207  13.660  10.810  38.460
  634BOLB   GL415208  13.620  11.170  38.330
  634BOLB   C1C15209  14.060  10.710  38.330
  634BOLB   C2C15210  14.430  10.840  38.060
  634BOLB   C3C15211  14.680  11.110  37.870
  634BOLB   C4C15212  14.860  11.430  37.640
  634BOLB   C1D15213  14.070  11.280  38.310
  634BOLB   C2D15214  14.240  11.290  37.970
  634BOLB   C3D15215  14.310  11.570  37.570
  634BOLB   C4D15216  14.280  11.510  37.140
  635BOLB   NC115217  18.630  11.640  35.960
  635BOLB   PO115218  18.510  11.240  36.230
  635BOLB   GL115219  18.300  10.840  36.360
  635BOLB   GL215220  18.510  10.550  36.350
  635BOLB   C1A15221  18.060  10.520  36.430
  635BOLB   C2A15222  17.810  10.130  36.430
  635BOLB   C3A15223  17.520   9.780  36.470
  635BOLB   C4A15224  17.200   9.570  36.670
  635BOLB   C1B15225  18.400  10.130  36.360
  635BOLB   C2B15226  18.210   9.770  36.400
  635BOLB   C3B15227  17.970   9.630  36.660
  635BOLB   C4B15228  17.670   9.340  36.680
  635BOLB   NC215229  16.920   7.750  37.670
  635BOLB   PO215230  16.500   7.800  37.890
  635BOLB   GL315231  16.740   8.160  37.930
  635BOLB   GL415232  17.100   8.140  38.060
  635BOLB   C1C15233  16.720   8.570  37.950
  635BOLB   C2C15234  16.690   8.890  37.700
  635BOLB   C3C15235  16.720   9.320  37.350
  635BOLB   C4C15236  17.090   9.470  37.080
  635BOLB   C1D15237  17.240   8.560  37.820
  635BOLB   C2D15238  17.530   8.730  37.640
  635BOLB   C3D15239  17.820   8.510  37.430
  635BOLB   C4D15240  18.290   8.330  37.570
  636BOLB   NC115241  26.000   9.800  24.940
  636BOLB   PO115242  25.620   9.680  24.830
  636BOLB   GL115243  25.840   9.520  24.550
  636BOLB   GL215244  26.100   9.440  24.640
  636BOLB   C1A15245  25.800   9.110  24.200
  636BOLB   C2A15246  25.760   8.630  24.090
  636BOLB   C3A15247  25.420   8.210  24.250
  636BOLB   C4A15248  25.270   7.820  23.940
  636BOLB   C1B15249  26.310   9.180  24.360
  636BOLB   C2B15250  26.270   8.860  24.170
  636BOLB   C3B15251  26.300   8.460  24.090
  636BOLB   C4B15252  26.495   8.120  23.890
  636BOLB   NC215253  23.900   6.000  23.040
  636BOLB   PO215254  24.380   6.070  22.830
  636BOLB   GL315255  24.510   6.380  22.940
  636BOLB   GL415256  24.750   6.290  23.150
  636BOLB   C1C15257  24.340   6.860  22.840
  636BOLB   C2C15258  24.570   7.150  23.030
  636BOLB   C3C15259  24.810   7.300  23.390
  636BOLB   C4C15260  25.040   7.700  23.670
  636BOLB   C1D15261  24.700   6.420  23.580
  636BOLB   C2D15262  24.760   6.780  23.790
  636BOLB   C3D15263  24.800   6.940  24.230
  636BOLB   C4D15264  24.890   7.110  24.600
  637BOLB   NC115265  29.355   9.930  34.120
  637BOLB   PO115266  29.485  10.110  33.680
  637BOLB   GL115267  29.825  10.020  34.000
  637BOLB   GL215268  30.055  10.260  34.160
  637BOLB   C1A15269  30.345   9.940  33.980
  637BOLB   C2A15270  30.655   9.750  33.880
  637BOLB   C3A15271  30.925   9.610  33.600
  637BOLB   C4A15272  31.295   9.700  33.370
  637BOLB   C1B15273  30.355  10.350  34.290
  637BOLB   C2B15274  30.745  10.310  34.620
  637BOLB   C3B15275  31.025  10.530  34.810
  637BOLB   C4B15276  31.325  10.790  34.690
  637BOLB   NC215277  33.275   9.200  33.140
  637BOLB   PO215278  33.245   9.550  32.760
  637BOLB   GL315279  32.845   9.720  32.620
  637BOLB   GL415280  32.765   9.850  32.300
  637BOLB   C1C15281  32.585  10.030  32.790
  637BOLB   C2C15282  32.165  10.130  32.830
  637BOLB   C3C15283  31.715  10.080  33.050
  637BOLB   C4C15284  31.555   9.920  33.310
  637BOLB   C1D15285  32.305   9.990  32.230
  637BOLB   C2D15286  31.935  10.320  32.390
  637BOLB   C3D15287  31.775  10.670  32.780
  637BOLB   C4D15288  31.725  10.830  33.200
  638BOLB   NC115289  17.190  16.680  23.410
  638BOLB   PO115290  17.290  16.720  22.890
  638BOLB   GL115291  17.010  16.570  22.590
  638BOLB   GL215292  16.740  16.710  22.490
  638BOLB   C1A15293  16.770  16.180  22.360
  638BOLB   C2A15294  16.600  16.120  21.950
  638BOLB   C3A15295  16.370  15.690  22.010
  638BOLB   C4A15296  16.080  15.430  21.750
  638BOLB   C1B15297  16.530  16.660  22.150
  638BOLB   C2B15298  16.110  16.720  22.130
  638BOLB   C3B15299  15.730  16.900  22.140
  638BOLB   C4B15300  15.470  17.140  22.040
  638BOLB   NC215301  15.310  14.370  20.130
  638BOLB   PO215302  15.000  14.640  19.930
  638BOLB   GL315303  15.100  14.860  20.270
  638BOLB   GL415304  14.800  15.160  20.310
  638BOLB   C1C15305  15.240  15.060  20.660
  638BOLB   C2C15306  15.450  15.250  21.000
  638BOLB   C3C15307  15.560  15.260  21.380
  638BOLB   C4C15308  15.900  15.200  21.530
  638BOLB   C1D15309  15.280  15.300  20.120
  638BOLB   C2D15310  15.570  15.270  20.360
  638BOLB   C3D15311  15.880  15.180  20.650
  638BOLB   C4D15312  15.950  15.130  21.040
  639BOLB   NC115313  19.500  24.640  30.790
  639BOLB   PO115314  19.530  24.640  31.300
  639BOLB   GL115315  19.610  25.060  31.420
  639BOLB   GL215316  19.670  25.340  31.260
  639BOLB   C1A15317  19.840  25.350  31.760
  639BOLB   C2A15318  20.210  25.580  31.910
  639BOLB   C3A15319  20.550  25.610  31.660
  639BOLB   C4A15320  20.760  26.000  31.460
  639BOLB   C1B15321  19.630  25.750  31.350
  639BOLB   C2B15322  19.740  26.210  31.500
  639BOLB   C3B15323  19.530   0.050  31.220
  639BOLB   C4B15324  19.220   0.200  30.950
  639BOLB   NC215325  21.790   1.980  30.290
  639BOLB   PO215326  21.360   1.700  30.250
  639BOLB   GL315327  21.340   1.280  30.140
  639BOLB   GL415328  21.600   1.020  30.120
  639BOLB   C1C15329  21.200   0.850  30.410
  639BOLB   C2C15330  21.130   0.630  30.770
  639BOLB   C3C15331  21.090   0.380  31.130
  639BOLB   C4C15332  20.900  26.400  31.330
  639BOLB   C1D15333  21.530   0.840  29.640
  639BOLB   C2D15334  21.160   0.550  29.540
  639BOLB   C3D15335  21.030   0.070  29.500
  639BOLB   C4D15336  20.850  26.000  29.580
  640BOLB   NC115337  19.830  16.940  21.550
  640BOLB   PO115338  19.590  17.230  21.640
  640BOLB   GL115339  19.570  17.150  21.220
  640BOLB   GL215340  19.500  17.520  21.150
  640BOLB   C1A15341  19.280  17.190  20.840
  640BOLB   C2A15342  18.980  17.110  20.520
  640BOLB   C3A15343  18.780  16.820  20.320
  640BOLB   C4A15344  18.530  16.610  20.050
  640BOLB   C1B15345  19.590  17.620  20.700
  640BOLB   C2B15346  19.480  17.440  20.400
  640BOLB   C3B15347  19.430  17.280  19.900
  640BOLB   C4B15348  19.480  17.200  19.370
  640BOLB   NC215349  16.970  15.750  18.620
  640BOLB   PO215350  17.260  16.030  18.250
  640BOLB   GL315351  17.260  16.240  18.550
  640BOLB   GL415352  17.220  16.600  18.430
  640BOLB   C1C15353  17.630  16.370  18.710
  640BOLB   C2C15354  17.800  16.570  19.060
  640BOLB   C3C15355  18.140  16.710  19.330
  640BOLB   C4C15356  18.430  16.480  19.690
  640BOLB   C1D15357  17.670  16.780  18.400
  640BOLB   C2D15358  18.080  16.970  18.450
  640BOLB   C3D15359  18.400  17.270  18.710
  640BOLB   C4D15360  18.580  17.520  18.800
  641BOLB   NC115361  26.240   7.650  35.070
  641BOLB   PO115362  25.970   7.580  34.840
  641BOLB   GL115363  25.770   7.200  35.080
  641BOLB   GL215364  25.490   7.150  35.360
  641BOLB   C1A15365  25.870   6.800  35.110
  641BOLB   C2A15366  26.070   6.450  34.920
  641BOLB   C3A15367  26.330   6.100  34.840
  641BOLB   C4A15368  26.410   5.750  35.060
  641BOLB   C1B15369  25.690   6.910  35.650
  641BOLB   C2B15370  25.770   6.590  35.890
  641BOLB   C3B15371  25.790   6.250  36.350
  641BOLB   C4B15372  25.420   5.930  36.310
  641BOLB   NC215373  27.185   3.590  34.510
  641BOLB   PO215374  27.375   3.500  34.950
  641BOLB   GL315375  27.455   3.880  34.880
  641BOLB   GL415376  27.555   3.940  34.530
  641BOLB   C1C15377  27.355   4.200  34.920
  641BOLB   C2C15378  27.055   4.580  34.920
  641BOLB   C3C15379  26.795   4.900  34.870
  641BOLB   C4C15380  26.715   5.390  34.960
  641BOLB   C1D15381  27.165   4.270  34.430
  641BOLB   C2D15382  26.805   4.300  34.600
  641BOLB   C3D15383  26.545   4.460  34.910
  641BOLB   C4D15384  26.130   4.530  35.140
  642BOLB   NC115385  28.925  10.270  28.560
  642BOLB   PO115386  29.305  10.480  28.610
  642BOLB   GL115387  29.355  10.090  28.360
  642BOLB   GL215388  29.185   9.850  28.490
  642BOLB   C1A15389  29.625   9.810  28.170
  642BOLB   C2A15390  29.955   9.720  28.230
  642BOLB   C3A15391  30.235   9.730  27.850
  642BOLB   C4A15392  30.475   9.770  27.570
  642BOLB   C1B15393  29.565   9.560  28.590
  642BOLB   C2B15394  29.865   9.310  28.740
  642BOLB   C3B15395  30.315   9.230  29.020
  642BOLB   C4B15396  30.535   9.050  29.390
  642BOLB   NC215397  32.585   8.350  27.610
  642BOLB   PO215398  32.425   8.780  27.790
  642BOLB   GL315399  32.045   8.760  27.810
  642BOLB   GL415400  31.905   8.420  27.910
  642BOLB   C1C15401  31.665   8.850  27.660
  642BOLB   C2C15402  31.285   9.120  27.660
  642BOLB   C3C15403  31.025   9.310  27.350
  642BOLB   C4C15404  30.875   9.650  27.430
  642BOLB   C1D15405  31.535   8.340  27.620
  642BOLB   C2D15406  31.155   8.640  27.760
  642BOLB   C3D15407  30.815   8.940  27.620
  642BOLB   C4D15408  30.525   9.310  27.520
  643BOLB   NC115409  22.720  10.630  40.360
  643BOLB   PO115410  22.580  10.920  40.640
  643BOLB   GL115411  22.750  10.580  40.920
  643BOLB   GL215412  22.950  10.250  40.730
  643BOLB   C1A15413  22.610  10.190  41.080
  643BOLB   C2A15414  22.510   9.850  41.230
  643BOLB   C3A15415  22.560   9.360  41.270
  643BOLB   C4A15416  22.190   9.150  41.330
  643BOLB   C1B15417  23.110  10.160  41.020
  643BOLB   C2B15418  23.360   9.890  41.110
  643BOLB   C3B15419  23.490   9.570  41.450
  643BOLB   C4B15420  23.510   9.350  41.840
  643BOLB   NC215421  22.190   7.690  42.420
  643BOLB   PO215422  22.330   7.230  42.400
  643BOLB   GL315423  22.560   7.390  42.030
  643BOLB   GL415424  22.650   7.690  42.070
  643BOLB   C1C15425  22.250   7.670  41.730
  643BOLB   C2C15426  22.220   8.040  41.570
  643BOLB   C3C15427  22.130   8.320  41.260
  643BOLB   C4C15428  22.160   8.760  41.200
  643BOLB   C1D15429  22.990   7.890  41.920
  643BOLB   C2D15430  23.140   8.030  41.570
  643BOLB   C3D15431  23.010   8.240  41.220
  643BOLB   C4D15432  23.060   8.640  41.270
  644BOLB   NC115433  16.620  23.370  25.100
  644BOLB   PO115434  16.980  23.450  24.930
  644BOLB   GL115435  17.140  23.650  24.710
  644BOLB   GL215436  17.360  23.810  24.880
  644BOLB   C1A15437  17.050  24.020  24.460
  644BOLB   C2A15438  16.650  24.310  24.360
  644BOLB   C3A15439  16.390  24.610  24.260
  644BOLB   C4A15440  16.130  24.760  23.970
  644BOLB   C1B15441  17.520  24.120  24.710
  644BOLB   C2B15442  17.590  24.570  24.720
  644BOLB   C3B15443  17.760  25.060  24.530
  644BOLB   C4B15444  17.710  25.540  24.270
  644BOLB   NC215445  15.600  25.250  21.550
  644BOLB   PO215446  15.180  25.040  21.410
  644BOLB   GL315447  15.450  24.750  21.710
  644BOLB   GL415448  15.700  24.650  21.610
  644BOLB   C1C15449  15.490  24.580  22.260
  644BOLB   C2C15450  15.780  24.680  22.630
  644BOLB   C3C15451  15.770  24.870  23.090
  644BOLB   C4C15452  15.790  24.860  23.640
  644BOLB   C1D15453  15.900  24.340  21.650
  644BOLB   C2D15454  16.070  24.310  22.030
  644BOLB   C3D15455  16.080  24.250  22.470
  644BOLB   C4D15456  15.940  24.040  22.850
  645BOLB   NC115457  26.190  16.790  41.600
  645BOLB   PO115458  25.970  17.090  41.270
  645BOLB   GL115459  26.360  17.230  41.560
  645BOLB   GL215460  26.370  17.620  41.510
  645BOLB   C1A15461  26.625  17.390  41.890
  645BOLB   C2A15462  26.975  17.280  42.180
  645BOLB   C3A15463  27.395  17.540  42.350
  645BOLB   C4A15464  27.765  17.860  42.610
  645BOLB   C1B15465  26.845  17.800  41.680
  645BOLB   C2B15466  27.165  17.820  41.840
  645BOLB   C3B15467  27.485  17.870  42.000
  645BOLB   C4B15468  27.945  18.010  42.180
  645BOLB   NC215469  29.315  19.100  43.780
  645BOLB   PO215470  29.545  18.860  43.510
  645BOLB   GL315471  29.165  18.660  43.610
  645BOLB   GL415472  29.005  18.930  43.450
  645BOLB   C1C15473  28.845  18.260  43.410
  645BOLB   C2C15474  28.555  17.970  43.500
  645BOLB   C3C15475  28.405  17.670  43.190
  645BOLB   C4C15476  28.055  17.600  42.830
  645BOLB   C1D15477  28.755  18.650  43.150
  645BOLB   C2D15478  28.485  18.620  42.810
  645BOLB   C3D15479  28.105  18.690  42.460
  645BOLB   C4D15480  27.775  18.830  42.390
  646BOLB   NC115481  15.220  20.930  24.270
  646BOLB   PO115482  15.380  21.000  23.850
  646BOLB   GL115483  15.130  21.130  23.480
  646BOLB   GL215484  14.890  20.840  23.360
  646BOLB   C1A15485  14.730  21.420  23.400
  646BOLB   C2A15486  14.330  21.540  23.440
  646BOLB   C3A15487  14.060  21.540  23.650
  646BOLB   C4A15488  13.810  21.830  23.640
  646BOLB   C1B15489  14.430  20.990  23.520
  646BOLB   C2B15490  13.980  21.080  23.600
  646BOLB   C3B15491  13.480  21.200  23.430
  646BOLB   C4B15492  13.030  21.320  23.390
  646BOLB   NC215493  11.580  22.480  22.990
  646BOLB   PO215494  11.960  22.340  22.700
  646BOLB   GL315495  12.230  22.190  22.910
  646BOLB   GL415496  11.940  22.280  23.240
  646BOLB   C1C15497  12.500  22.240  23.330
  646BOLB   C2C15498  12.480  22.110  23.730
  646BOLB   C3C15499  12.880  22.010  23.900
  646BOLB   C4C15500  13.370  22.000  23.830
  646BOLB   C1D15501  12.040  22.410  23.600
  646BOLB   C2D15502  12.130  22.080  24.080
  646BOLB   C3D15503  12.130  21.700  24.370
  646BOLB   C4D15504  12.420  21.640  24.640
  647BOLB   NC115505  23.130   8.040  32.540
  647BOLB   PO115506  23.480   7.950  32.330
  647BOLB   GL115507  23.490   7.420  32.430
  647BOLB   GL215508  23.680   7.210  32.650
  647BOLB   C1A15509  23.290   6.970  32.400
  647BOLB   C2A15510  23.270   6.630  32.640
  647BOLB   C3A15511  23.380   6.180  32.730
  647BOLB   C4A15512  23.400   5.670  32.830
  647BOLB   C1B15513  23.810   6.870  32.560
  647BOLB   C2B15514  23.710   6.490  32.460
  647BOLB   C3B15515  23.660   6.240  32.160
  647BOLB   C4B15516  23.350   5.910  31.950
  647BOLB   NC215517  23.390   3.370  33.180
  647BOLB   PO215518  23.600   3.390  33.430
  647BOLB   GL315519  23.890   3.690  33.350
  647BOLB   GL415520  23.830   3.800  33.650
  647BOLB   C1C15521  23.710   4.080  33.270
  647BOLB   C2C15522  23.540   4.470  33.220
  647BOLB   C3C15523  23.350   4.940  33.320
  647BOLB   C4C15524  23.350   5.270  32.990
  647BOLB   C1D15525  24.080   4.040  34.020
  647BOLB   C2D15526  24.200   4.420  33.920
  647BOLB   C3D15527  24.360   4.830  33.800
  647BOLB   C4D15528  24.390   5.310  33.660
  648BOLB   NC115529  26.785  14.880  41.430
  648BOLB   PO115530  27.055  14.460  41.470
  648BOLB   GL115531  27.065  14.700  41.820
  648BOLB   GL215532  26.735  14.580  41.910
  648BOLB   C1A15533  27.105  14.700  42.370
  648BOLB   C2A15534  27.255  14.580  42.780
  648BOLB   C3A15535  27.425  14.360  43.070
  648BOLB   C4A15536  27.185  14.190  43.390
  648BOLB   C1B15537  26.845  14.300  42.260
  648BOLB   C2B15538  26.815  14.350  42.700
  648BOLB   C3B15539  26.785  14.100  43.090
  648BOLB   C4B15540  26.805  13.530  43.140
  648BOLB   NC215541  28.225  15.050  44.750
  648BOLB   PO215542  28.125  14.700  44.910
  648BOLB   GL315543  27.715  14.860  44.820
  648BOLB   GL415544  27.815  14.900  44.500
  648BOLB   C1C15545  27.295  14.830  44.660
  648BOLB   C2C15546  27.095  14.820  44.370
  648BOLB   C3C15547  26.845  14.530  44.000
  648BOLB   C4C15548  26.915  14.300  43.690
  648BOLB   C1D15549  27.535  15.020  44.150
  648BOLB   C2D15550  27.315  14.940  43.800
  648BOLB   C3D15551  27.245  14.720  43.440
  648BOLB   C4D15552  26.905  14.620  43.150
  649BOLB   NC115553  27.225  18.390  37.840
  649BOLB   PO115554  27.325  17.900  37.810
  649BOLB   GL115555  27.635  17.960  37.900
  649BOLB   GL215556  27.655  17.810  38.170
  649BOLB   C1A15557  28.035  18.210  37.730
  649BOLB   C2A15558  28.235  18.580  37.630
  649BOLB   C3A15559  28.475  18.910  37.450
  649BOLB   C4A15560  28.835  19.040  37.260
  649BOLB   C1B15561  28.105  17.950  38.190
  649BOLB   C2B15562  28.385  18.360  38.110
  649BOLB   C3B15563  28.805  18.590  37.930
  649BOLB   C4B15564  28.955  19.100  37.750
  649BOLB   NC215565  30.985  21.060  37.580
  649BOLB   PO215566  30.695  20.780  37.530
  649BOLB   GL315567  30.515  20.490  37.410
  649BOLB   GL415568  30.465  20.400  37.040
  649BOLB   C1C15569  30.215  20.210  37.460
  649BOLB   C2C15570  29.925  19.800  37.420
  649BOLB   C3C15571  29.485  19.590  37.360
  649BOLB   C4C15572  29.265  19.300  37.300
  649BOLB   C1D15573  30.125  20.160  36.980
  649BOLB   C2D15574  30.025  19.870  36.640
  649BOLB   C3D15575  29.665  19.730  36.440
  649BOLB   C4D15576  29.305  19.560  36.190
  650BOLB   NC115577  22.990   8.550  37.580
  650BOLB   PO115578  23.450   8.560  37.390
  650BOLB   GL115579  23.400   8.160  37.460
  650BOLB   GL215580  23.440   7.940  37.280
  650BOLB   C1A15581  23.380   7.830  37.800
  650BOLB   C2A15582  23.340   7.660  38.180
  650BOLB   C3A15583  23.140   7.320  38.420
  650BOLB   C4A15584  22.800   7.110  38.480
  650BOLB   C1B15585  23.520   7.570  37.310
  650BOLB   C2B15586  23.690   7.210  37.460
  650BOLB   C3B15587  23.580   6.860  37.670
  650BOLB   C4B15588  23.830   6.530  37.860
  650BOLB   NC215589  21.870   5.350  39.910
  650BOLB   PO215590  21.850   5.800  39.890
  650BOLB   GL315591  21.590   6.100  39.590
  650BOLB   GL415592  21.440   6.350  39.760
  650BOLB   C1C15593  21.500   6.370  39.210
  650BOLB   C2C15594  21.710   6.530  38.940
  650BOLB   C3C15595  22.030   6.690  38.670
  650BOLB   C4C15596  22.480   6.900  38.580
  650BOLB   C1D15597  21.400   6.770  39.690
  650BOLB   C2D15598  21.640   7.250  39.650
  650BOLB   C3D15599  21.540   7.700  39.510
  650BOLB   C4D15600  21.710   8.060  39.250
  651BOLB   NC115601  22.690  18.310  22.370
  651BOLB   PO115602  22.570  18.490  22.020
  651BOLB   GL115603  22.590  18.360  21.640
  651BOLB   GL215604  22.710  18.040  21.490
  651BOLB   C1A15605  22.660  18.700  21.370
  651BOLB   C2A15606  22.750  18.940  20.980
  651BOLB   C3A15607  22.880  19.170  20.570
  651BOLB   C4A15608  22.630  19.380  20.270
  651BOLB   C1B15609  22.960  18.290  21.270
  651BOLB   C2B15610  23.140  18.740  21.210
  651BOLB   C3B15611  23.250  19.020  20.910
  651BOLB   C4B15612  23.300  19.430  20.720
  651BOLB   NC215613  22.880  20.230  18.390
  651BOLB   PO215614  23.290  20.520  18.400
  651BOLB   GL315615  23.320  20.190  18.740
  651BOLB   GL415616  23.330  20.020  18.460
  651BOLB   C1C15617  23.080  19.940  19.070
  651BOLB   C2C15618  23.020  19.620  19.330
  651BOLB   C3C15619  22.750  19.410  19.450
  651BOLB   C4C15620  22.530  19.270  19.810
  651BOLB   C1D15621  23.410  19.680  18.840
  651BOLB   C2D15622  23.360  19.310  19.090
  651BOLB   C3D15623  23.310  18.870  19.340
  651BOLB   C4D15624  23.140  18.560  19.620
  652BOLB   NC115625  28.605   8.720  34.190
  652BOLB   PO115626  28.575   8.920  33.790
  652BOLB   GL115627  29.085   8.670  33.860
  652BOLB   GL215628  29.095   8.500  33.980
  652BOLB   C1A15629  29.545   8.610  33.950
  652BOLB   C2A15630  29.985   8.650  34.220
  652BOLB   C3A15631  30.385   8.480  34.210
  652BOLB   C4A15632  30.745   8.360  34.110
  652BOLB   C1B15633  29.245   8.200  34.140
  652BOLB   C2B15634  29.335   7.870  34.430
  652BOLB   C3B15635  29.545   7.750  34.780
  652BOLB   C4B15636  29.655   7.560  35.180
  652BOLB   NC215637  32.725   7.980  35.060
  652BOLB   PO215638  32.645   7.550  34.980
  652BOLB   GL315639  32.405   7.470  34.570
  652BOLB   GL415640  32.215   7.170  34.630
  652BOLB   C1C15641  32.015   7.520  34.320
  652BOLB   C2C15642  31.625   7.690  34.400
  652BOLB   C3C15643  31.295   7.710  34.240
  652BOLB   C4C15644  31.075   8.150  34.270
  652BOLB   C1D15645  31.995   7.460  34.860
  652BOLB   C2D15646  31.995   7.720  35.250
  652BOLB   C3D15647  31.645   8.100  35.450
  652BOLB   C4D15648  31.255   8.290  35.440
  653BOLB   NC115649  22.440   9.310  25.490
  653BOLB   PO115650  22.490   9.520  25.190
  653BOLB   GL115651  22.590   9.120  24.990
  653BOLB   GL215652  22.970   9.090  24.960
  653BOLB   C1A15653  22.610   8.830  24.710
  653BOLB   C2A15654  22.840   8.630  24.360
  653BOLB   C3A15655  22.870   8.230  24.300
  653BOLB   C4A15656  22.800   7.670  24.340
  653BOLB   C1B15657  23.140   8.690  24.740
  653BOLB   C2B15658  23.250   8.320  24.560
  653BOLB   C3B15659  23.130   7.900  24.630
  653BOLB   C4B15660  23.400   7.630  24.420
  653BOLB   NC215661  22.170   6.300  22.260
  653BOLB   PO215662  22.100   6.370  22.670
  653BOLB   GL315663  22.030   6.620  23.020
  653BOLB   GL415664  21.820   6.780  22.930
  653BOLB   C1C15665  22.080   6.670  23.390
  653BOLB   C2C15666  22.280   7.060  23.610
  653BOLB   C3C15667  22.650   7.160  23.700
  653BOLB   C4C15668  22.830   7.430  24.030
  653BOLB   C1D15669  22.000   7.170  23.140
  653BOLB   C2D15670  21.970   7.460  23.530
  653BOLB   C3D15671  21.770   7.690  23.950
  653BOLB   C4D15672  22.050   8.030  24.040
  654BOLB   NC115673  18.640  18.730  42.760
  654BOLB   PO115674  18.990  18.990  42.710
  654BOLB   GL115675  18.880  19.050  43.120
  654BOLB   GL215676  18.640  18.900  43.230
  654BOLB   C1A15677  18.720  19.230  43.560
  654BOLB   C2A15678  18.510  19.350  44.060
  654BOLB   C3A15679  18.500  19.510  44.530
  654BOLB   C4A15680  18.390  19.380  44.920
  654BOLB   C1B15681  18.590  18.760  43.540
  654BOLB   C2B15682  18.490  18.740  44.020
  654BOLB   C3B15683  18.490  18.580  44.310
  654BOLB   C4B15684  18.740  18.350  44.550
  654BOLB   NC215685  17.630  18.850  46.980
  654BOLB   PO215686  17.860  19.170  47.030
  654BOLB   GL315687  18.010  19.220  46.650
  654BOLB   GL415688  18.050  19.510  46.420
  654BOLB   C1C15689  17.920  18.900  46.350
  654BOLB   C2C15690  17.760  18.780  45.930
  654BOLB   C3C15691  17.910  19.190  45.640
  654BOLB   C4C15692  18.160  19.220  45.300
  654BOLB   C1D15693  18.230  19.370  46.040
  654BOLB   C2D15694  18.510  19.200  45.730
  654BOLB   C3D15695  18.670  18.900  45.510
  654BOLB   C4D15696  19.100  18.770  45.450
  655BOLB   NC115697  27.165  16.530  27.670
  655BOLB   PO115698  27.125  16.760  27.270
  655BOLB   GL115699  27.285  16.710  26.800
  655BOLB   GL215700  27.605  16.520  26.870
  655BOLB   C1A15701  27.655  16.860  26.440
  655BOLB   C2A15702  27.975  17.180  26.290
  655BOLB   C3A15703  28.275  17.270  26.150
  655BOLB   C4A15704  28.545  17.380  25.800
  655BOLB   C1B15705  27.995  16.660  26.760
  655BOLB   C2B15706  28.325  16.870  26.600
  655BOLB   C3B15707  28.735  16.900  26.250
  655BOLB   C4B15708  28.965  17.310  26.120
  655BOLB   NC215709  30.875  17.700  25.560
  655BOLB   PO215710  30.585  18.000  25.450
  655BOLB   GL315711  30.365  17.680  25.450
  655BOLB   GL415712  30.295  17.700  25.120
  655BOLB   C1C15713  30.005  17.420  25.360
  655BOLB   C2C15714  29.695  17.330  25.340
  655BOLB   C3C15715  29.295  17.200  25.320
  655BOLB   C4C15716  28.965  17.380  25.540
  655BOLB   C1D15717  29.905  17.840  25.050
  655BOLB   C2D15718  29.575  18.040  24.720
  655BOLB   C3D15719  29.245  18.170  24.470
  655BOLB   C4D15720  28.895  18.410  24.630
  656BOLB   NC115721  14.830  14.750  34.650
  656BOLB   PO115722  14.700  15.260  34.580
  656BOLB   GL115723  14.390  15.150  34.760
  656BOLB   GL215724  14.360  15.230  35.020
  656BOLB   C1A15725  14.010  14.960  34.780
  656BOLB   C2A15726  13.650  14.720  34.660
  656BOLB   C3A15727  13.200  14.670  34.690
  656BOLB   C4A15728  12.770  14.840  34.700
  656BOLB   C1B15729  13.940  15.210  35.210
  656BOLB   C2B15730  13.490  15.080  35.120
  656BOLB   C3B15731  13.060  15.040  35.040
  656BOLB   C4B15732  12.600  14.890  35.160
  656BOLB   NC215733  10.400  14.560  33.770
  656BOLB   PO215734  10.830  14.350  33.500
  656BOLB   GL315735  11.130  14.280  33.750
  656BOLB   GL415736  11.350  14.010  33.600
  656BOLB   C1C15737  11.490  14.540  33.950
  656BOLB   C2C15738  11.650  14.690  34.420
  656BOLB   C3C15739  12.040  14.820  34.580
  656BOLB   C4C15740  12.370  14.950  34.660
  656BOLB   C1D15741  11.820  14.090  33.540
  656BOLB   C2D15742  12.020  14.490  33.740
  656BOLB   C3D15743  12.390  14.780  33.690
  656BOLB   C4D15744  12.700  15.220  33.850
  657BOLB   NC115745  21.820  21.400  40.480
  657BOLB   PO115746  21.780  21.810  40.690
  657BOLB   GL115747  22.170  22.000  41.010
  657BOLB   GL215748  22.220  22.380  40.910
  657BOLB   C1A15749  22.190  22.200  41.370
  657BOLB   C2A15750  22.350  22.640  41.380
  657BOLB   C3A15751  22.740  22.850  41.700
  657BOLB   C4A15752  22.930  22.910  42.030
  657BOLB   C1B15753  22.360  22.760  40.810
  657BOLB   C2B15754  22.270  23.040  40.550
  657BOLB   C3B15755  21.950  23.380  40.590
  657BOLB   C4B15756  21.840  23.850  40.540
  657BOLB   NC215757  24.480  24.550  43.400
  657BOLB   PO215758  24.490  24.160  43.240
  657BOLB   GL315759  24.180  23.860  43.170
  657BOLB   GL415760  24.400  23.730  42.930
  657BOLB   C1C15761  23.800  23.730  43.070
  657BOLB   C2C15762  23.640  23.380  42.890
  657BOLB   C3C15763  23.390  23.330  42.490
  657BOLB   C4C15764  23.180  23.240  42.110
  657BOLB   C1D15765  24.190  23.350  42.860
  657BOLB   C2D15766  23.970  23.080  42.650
  657BOLB   C3D15767  23.710  22.760  42.590
  657BOLB   C4D15768  23.590  22.360  42.480
  658BOLB   NC115769  18.930  18.120  21.820
  658BOLB   PO115770  18.560  17.880  21.850
  658BOLB   GL115771  18.290  17.770  21.510
  658BOLB   GL215772  18.080  17.550  21.640
  658BOLB   C1A15773  18.260  17.570  21.170
  658BOLB   C2A15774  18.190  17.560  20.770
  658BOLB   C3A15775  18.100  17.540  20.300
  658BOLB   C4A15776  18.040  17.660  19.790
  658BOLB   C1B15777  17.860  17.300  21.400
  658BOLB   C2B15778  17.690  17.300  20.990
  658BOLB   C3B15779  17.580  17.160  20.630
  658BOLB   C4B15780  17.300  17.010  20.300
  658BOLB   NC215781  17.360  17.450  17.220
  658BOLB   PO215782  17.110  17.300  17.610
  658BOLB   GL315783  17.240  17.390  17.960
  658BOLB   GL415784  17.220  17.130  18.190
  658BOLB   C1C15785  17.370  17.780  18.320
  658BOLB   C2C15786  17.700  18.040  18.500
  658BOLB   C3C15787  17.910  18.140  18.950
  658BOLB   C4C15788  17.950  18.050  19.420
  658BOLB   C1D15789  16.980  17.030  18.560
  658BOLB   C2D15790  17.150  16.920  18.930
  658BOLB   C3D15791  17.430  16.750  19.230
  658BOLB   C4D15792  17.670  16.930  19.470
  659BOLB   NC115793  29.145   9.370  31.620
  659BOLB   PO115794  28.915   8.950  31.650
  659BOLB   GL115795  29.215   8.910  31.440
  659BOLB   GL215796  29.445   8.840  31.710
  659BOLB   C1A15797  29.605   8.880  31.180
  659BOLB   C2A15798  29.945   8.650  31.000
  659BOLB   C3A15799  30.375   8.700  30.850
  659BOLB   C4A15800  30.885   8.730  31.040
  659BOLB   C1B15801  29.725   8.730  31.670
  659BOLB   C2B15802  29.975   8.480  31.880
  659BOLB   C3B15803  30.425   8.280  32.050
  659BOLB   C4B15804  30.925   8.320  32.170
  659BOLB   NC215805  32.175   7.330  29.620
  659BOLB   PO215806  32.245   7.810  29.700
  659BOLB   GL315807  32.085   8.130  29.970
  659BOLB   GL415808  31.775   8.060  29.820
  659BOLB   C1C15809  31.945   8.540  30.250
  659BOLB   C2C15810  31.885   8.510  30.650
  659BOLB   C3C15811  31.705   8.620  31.040
  659BOLB   C4C15812  31.325   8.810  31.030
  659BOLB   C1D15813  31.545   8.250  29.560
  659BOLB   C2D15814  31.135   8.510  29.590
  659BOLB   C3D15815  30.945   8.870  29.720
  659BOLB   C4D15816  30.855   9.260  29.690
  660BOLB   NC115817  14.590  19.470  24.900
  660BOLB   PO115818  14.240  19.220  24.870
  660BOLB   GL115819  13.890  19.170  24.810
  660BOLB   GL215820  13.770  19.380  25.050
  660BOLB   C1A15821  13.650  19.030  24.470
  660BOLB   C2A15822  13.550  18.980  24.100
  660BOLB   C3A15823  13.680  18.520  23.840
  660BOLB   C4A15824  13.330  18.280  23.610
  660BOLB   C1B15825  13.380  19.370  24.780
  660BOLB   C2B15826  12.970  19.330  24.850
  660BOLB   C3B15827  12.630  19.640  24.750
  660BOLB   C4B15828  12.380  19.840  24.590
  660BOLB   NC215829  11.540  18.650  22.100
  660BOLB   PO215830  11.420  18.450  22.470
  660BOLB   GL315831  11.810  18.350  22.440
  660BOLB   GL415832  12.010  18.510  22.220
  660BOLB   C1C15833  12.140  18.140  22.620
  660BOLB   C2C15834  12.560  18.080  22.850
  660BOLB   C3C15835  12.900  18.070  23.100
  660BOLB   C4C15836  13.170  18.300  23.290
  660BOLB   C1D15837  12.330  18.460  22.300
  660BOLB   C2D15838  12.710  18.300  22.390
  660BOLB   C3D15839  12.890  17.960  22.550
  660BOLB   C4D15840  13.130  17.780  22.770
  661BOLB   NC115841  20.100  21.480  41.370
  661BOLB   PO115842  19.740  21.320  41.130
  661BOLB   GL115843  19.510  21.630  41.400
  661BOLB   GL215844  19.310  21.460  41.610
  661BOLB   C1A15845  19.380  21.940  41.710
  661BOLB   C2A15846  19.150  22.210  41.970
  661BOLB   C3A15847  18.920  22.530  42.360
  661BOLB   C4A15848  18.710  22.960  42.420
  661BOLB   C1B15849  19.170  21.630  42.040
  661BOLB   C2B15850  19.040  21.650  42.460
  661BOLB   C3B15851  18.770  21.850  42.850
  661BOLB   C4B15852  18.390  21.940  43.210
  661BOLB   NC215853  17.960  24.670  43.340
  661BOLB   PO215854  18.180  25.040  43.090
  661BOLB   GL315855  18.300  24.650  42.930
  661BOLB   GL415856  18.640  24.710  42.950
  661BOLB   C1C15857  18.240  24.260  42.760
  661BOLB   C2C15858  17.980  23.920  42.840
  661BOLB   C3C15859  18.070  23.520  42.630
  661BOLB   C4C15860  18.370  23.200  42.410
  661BOLB   C1D15861  18.740  24.370  42.680
  661BOLB   C2D15862  18.990  24.220  42.370
  661BOLB   C3D15863  19.110  24.060  41.890
  661BOLB   C4D15864  19.400  23.680  41.670
  662BOLB   NC115865  17.790  13.570  24.600
  662BOLB   PO115866  18.140  13.410  24.400
  662BOLB   GL115867  17.900  13.100  24.470
  662BOLB   GL215868  17.690  13.130  24.220
  662BOLB   C1A15869  17.540  12.770  24.470
  662BOLB   C2A15870  17.080  12.680  24.470
  662BOLB   C3A15871  16.610  12.580  24.600
  662BOLB   C4A15872  16.250  12.420  24.380
  662BOLB   C1B15873  17.590  12.750  23.960
  662BOLB   C2B15874  17.520  12.560  23.570
  662BOLB   C3B15875  17.410  12.560  23.160
  662BOLB   C4B15876  17.000  12.400  22.970
  662BOLB   NC215877  13.990  11.950  23.140
  662BOLB   PO215878  13.910  11.850  23.460
  662BOLB   GL315879  14.390  11.730  23.680
  662BOLB   GL415880  14.440  11.900  23.900
  662BOLB   C1C15881  14.910  11.820  23.600
  662BOLB   C2C15882  15.420  11.940  23.620
  662BOLB   C3C15883  15.780  12.010  23.850
  662BOLB   C4C15884  16.080  12.080  24.180
  662BOLB   C1D15885  14.840  12.130  24.010
  662BOLB   C2D15886  15.230  12.320  23.930
  662BOLB   C3D15887  15.350  12.780  23.960
  662BOLB   C4D15888  15.630  13.050  23.860
  663BOLB   NC115889  26.070  10.390  39.180
  663BOLB   PO115890  25.820  10.310  39.380
  663BOLB   GL115891  26.040  10.040  39.580
  663BOLB   GL215892  26.060  10.030  39.880
  663BOLB   C1A15893  26.350   9.640  39.780
  663BOLB   C2A15894  26.605   9.440  40.060
  663BOLB   C3A15895  26.605   9.050  40.240
  663BOLB   C4A15896  26.585   8.860  40.580
  663BOLB   C1B15897  26.030   9.640  40.170
  663BOLB   C2B15898  25.810   9.480  40.590
  663BOLB   C3B15899  25.780   9.250  40.970
  663BOLB   C4B15900  25.830   9.340  41.400
  663BOLB   NC215901  27.065   7.040  41.960
  663BOLB   PO215902  27.235   7.490  42.020
  663BOLB   GL315903  27.105   7.460  41.640
  663BOLB   GL415904  27.275   7.100  41.480
  663BOLB   C1C15905  26.875   7.530  41.260
  663BOLB   C2C15906  26.525   7.740  41.130
  663BOLB   C3C15907  26.300   8.080  40.880
  663BOLB   C4C15908  26.410   8.490  40.770
  663BOLB   C1D15909  27.385   7.310  41.120
  663BOLB   C2D15910  27.325   7.410  40.670
  663BOLB   C3D15911  27.205   7.760  40.420
  663BOLB   C4D15912  27.185   8.210  40.290
  664BOLB   NC115913  29.935  12.300  30.720
  664BOLB   PO115914  29.785  12.740  30.590
  664BOLB   GL115915  30.275  12.800  30.630
  664BOLB   GL215916  30.475  12.440  30.730
  664BOLB   C1A15917  30.645  12.850  30.480
  664BOLB   C2A15918  31.075  12.910  30.540
  664BOLB   C3A15919  31.395  12.770  30.760
  664BOLB   C4A15920  31.815  12.450  30.910
  664BOLB   C1B15921  30.595  12.240  30.410
  664BOLB   C2B15922  30.955  11.960  30.340
  664BOLB   C3B15923  31.405  11.770  30.320
  664BOLB   C4B15924  31.605  11.450  30.650
  664BOLB   NC215925  34.255  11.110  31.640
  664BOLB   PO215926  34.035  11.350  31.240
  664BOLB   GL315927  33.595  11.450  31.150
  664BOLB   GL415928  33.545  11.680  31.370
  664BOLB   C1C15929  33.335  11.770  30.940
  664BOLB   C2C15930  32.905  11.850  30.880
  664BOLB   C3C15931  32.425  12.030  30.890
  664BOLB   C4C15932  32.175  12.190  30.860
  664BOLB   C1D15933  33.135  11.720  31.430
  664BOLB   C2D15934  32.755  11.590  31.570
  664BOLB   C3D15935  32.415  11.560  31.820
  664BOLB   C4D15936  32.125  11.210  32.010
  665BOLB   NC115937  25.640   8.340  20.750
  665BOLB   PO115938  25.890   7.970  21.010
  665BOLB   GL115939  25.560   8.200  21.290
  665BOLB   GL215940  25.200   8.260  21.090
  665BOLB   C1A15941  25.310   8.560  21.540
  665BOLB   C2A15942  25.260   8.590  22.020
  665BOLB   C3A15943  25.120   8.860  22.410
  665BOLB   C4A15944  25.140   9.310  22.370
  665BOLB   C1B15945  24.960   8.080  21.420
  665BOLB   C2B15946  24.870   8.100  21.840
  665BOLB   C3B15947  24.840   8.260  22.260
  665BOLB   C4B15948  24.570   8.250  22.580
  665BOLB   NC215949  26.475   8.770  20.840
  665BOLB   PO215950  25.980   8.790  20.680
  665BOLB   GL315951  25.920   9.260  20.670
  665BOLB   GL415952  25.560   9.240  20.590
  665BOLB   C1C15953  25.830   9.450  21.040
  665BOLB   C2C15954  25.550   9.720  21.330
  665BOLB   C3C15955  25.270   9.820  21.640
  665BOLB   C4C15956  25.060   9.600  22.060
  665BOLB   C1D15957  25.300   9.530  20.860
  665BOLB   C2D15958  25.040   9.760  21.120
  665BOLB   C3D15959  24.930  10.120  21.440
  665BOLB   C4D15960  24.710  10.510  21.510
  666BOLB   NC115961  19.990  22.150  23.930
  666BOLB   PO115962  20.320  21.950  24.330
  666BOLB   GL115963  20.420  22.340  24.070
  666BOLB   GL215964  20.750  22.420  24.110
  666BOLB   C1A15965  20.350  22.750  23.950
  666BOLB   C2A15966  20.290  23.160  23.710
  666BOLB   C3A15967  20.430  23.450  23.410
  666BOLB   C4A15968  20.330  23.800  23.350
  666BOLB   C1B15969  20.890  22.660  23.760
  666BOLB   C2B15970  21.320  22.690  23.540
  666BOLB   C3B15971  21.740  23.100  23.450
  666BOLB   C4B15972  21.960  23.360  23.170
  666BOLB   NC215973  21.350  25.570  22.550
  666BOLB   PO215974  21.170  25.680  22.200
  666BOLB   GL315975  20.990  25.230  22.460
  666BOLB   GL415976  21.270  25.010  22.570
  666BOLB   C1C15977  20.650  25.240  22.730
  666BOLB   C2C15978  20.420  24.870  22.770
  666BOLB   C3C15979  20.280  24.560  22.930
  666BOLB   C4C15980  20.260  24.120  23.060
  666BOLB   C1D15981  21.530  24.960  23.000
  666BOLB   C2D15982  21.920  24.920  23.110
  666BOLB   C3D15983  22.290  24.820  23.330
  666BOLB   C4D15984  22.720  24.520  23.250
  667BOLB   NC115985  20.020  24.040  33.960
  667BOLB   PO115986  20.350  24.160  34.120
  667BOLB   GL115987  20.230  24.560  34.220
  667BOLB   GL215988  20.150  24.750  34.510
  667BOLB   C1A15989  20.360  24.910  34.120
  667BOLB   C2A15990  20.540  25.250  34.210
  667BOLB   C3A15991  20.550  25.640  34.470
  667BOLB   C4A15992  20.790  26.010  34.430
  667BOLB   C1B15993  20.160  25.170  34.580
  667BOLB   C2B15994  19.740  25.470  34.620
  667BOLB   C3B15995  19.580  25.780  34.740
  667BOLB   C4B15996  19.640  26.210  34.730
  667BOLB   NC215997  22.090   1.560  34.010
  667BOLB   PO215998  22.230   1.310  33.730
  667BOLB   GL315999  22.120   1.040  34.000
  667BOLB   GL416000  21.870   0.940  33.790
  667BOLB   C1C16001  22.060   0.500  33.990
  667BOLB   C2C16002  21.760   0.200  33.990
  667BOLB   C3C16003  21.410  26.400  34.100
  667BOLB   C4C16004  21.250  26.100  34.440
  667BOLB   C1D16005  21.570   0.630  34.030
  667BOLB   C2D16006  21.110   0.460  34.110
  667BOLB   C3D16007  20.680   0.460  33.960
  667BOLB   C4D16008  20.500  26.370  33.900
  668BOLB   NC116009  26.535   8.300  27.920
  668BOLB   PO116010  26.505   8.370  27.430
  668BOLB   GL116011  26.715   7.960  27.390
  668BOLB   GL216012  26.825   7.930  27.620
  668BOLB   C1A16013  26.785   7.540  27.280
  668BOLB   C2A16014  27.105   7.370  27.540
  668BOLB   C3A16015  27.225   7.170  27.870
  668BOLB   C4A16016  27.465   6.920  27.890
  668BOLB   C1B16017  27.145   7.740  27.870
  668BOLB   C2B16018  27.475   7.750  27.760
  668BOLB   C3B16019  27.905   7.700  27.730
  668BOLB   C4B16020  28.355   7.830  27.910
  668BOLB   NC216021  29.155   5.580  28.210
  668BOLB   PO216022  29.225   5.540  27.740
  668BOLB   GL316023  29.075   5.870  27.750
  668BOLB   GL416024  29.115   6.080  27.570
  668BOLB   C1C16025  28.665   5.870  27.850
  668BOLB   C2C16026  28.265   6.100  27.800
  668BOLB   C3C16027  27.965   6.360  27.960
  668BOLB   C4C16028  27.795   6.690  27.780
  668BOLB   C1D16029  28.655   6.070  27.340
  668BOLB   C2D16030  28.185   6.020  27.270
  668BOLB   C3D16031  27.775   6.190  27.410
  668BOLB   C4D16032  27.465   6.330  27.730
  669BOLB   NC116033  21.200  24.160  36.010
  669BOLB   PO116034  20.710  24.180  35.980
  669BOLB   GL116035  20.920  24.570  36.190
  669BOLB   GL216036  21.130  24.520  36.470
  669BOLB   C1A16037  20.960  24.960  36.200
  669BOLB   C2A16038  20.890  25.390  36.130
  669BOLB   C3A16039  20.830  25.810  35.930
  669BOLB   C4A16040  20.980  26.280  35.950
  669BOLB   C1B16041  21.330  24.910  36.560
  669BOLB   C2B16042  21.580  25.250  36.590
  669BOLB   C3B16043  21.880  25.490  36.410
  669BOLB   C4B16044  21.960  25.870  36.350
  669BOLB   NC216045  23.420   1.190  36.740
  669BOLB   PO216046  22.950   0.970  36.780
  669BOLB   GL316047  22.800   0.620  36.830
  669BOLB   GL416048  22.540   0.780  37.020
  669BOLB   C1C16049  22.470   0.280  36.880
  669BOLB   C2C16050  21.970   0.200  36.940
  669BOLB   C3C16051  21.620   0.110  36.700
  669BOLB   C4C16052  21.180   0.030  36.310
  669BOLB   C1D16053  22.290   0.730  36.630
  669BOLB   C2D16054  22.070   0.310  36.430
  669BOLB   C3D16055  22.090  26.390  36.240
  669BOLB   C4D16056  21.920  26.210  35.850
  670BOLB   NC116057  19.010  19.430  21.270
  670BOLB   PO116058  18.670  19.210  21.190
  670BOLB   GL116059  18.540  19.460  20.910
  670BOLB   GL216060  18.470  19.820  20.890
  670BOLB   C1A16061  18.590  19.300  20.470
  670BOLB   C2A16062  18.230  19.110  20.220
  670BOLB   C3A16063  17.820  19.070  19.970
  670BOLB   C4A16064  17.510  18.790  19.930
  670BOLB   C1B16065  18.180  20.210  20.710
  670BOLB   C2B16066  17.930  20.690  20.750
  670BOLB   C3B16067  17.840  21.100  20.740
  670BOLB   C4B16068  17.890  21.300  21.080
  670BOLB   NC216069  15.600  18.460  18.320
  670BOLB   PO216070  15.500  18.830  18.450
  670BOLB   GL316071  15.700  18.820  18.800
  670BOLB   GL416072  15.700  19.020  19.050
  670BOLB   C1C16073  15.890  18.540  19.140
  670BOLB   C2C16074  16.310  18.600  19.340
  670BOLB   C3C16075  16.650  18.640  19.650
  670BOLB   C4C16076  17.080  18.640  19.880
  670BOLB   C1D16077  15.880  18.880  19.500
  670BOLB   C2D16078  15.960  19.100  19.850
  670BOLB   C3D16079  15.800  18.990  20.310
  670BOLB   C4D16080  15.690  18.910  20.750
  671BOLB   NC116081  16.700   6.940  36.000
  671BOLB   PO116082  16.490   7.280  35.820
  671BOLB   GL116083  16.730   7.730  35.970
  671BOLB   GL216084  16.560   7.980  35.950
  671BOLB   C1A16085  17.060   7.830  36.040
  671BOLB   C2A16086  17.390   8.070  36.300
  671BOLB   C3A16087  17.640   8.460  36.380
  671BOLB   C4A16088  17.500   8.790  36.630
  671BOLB   C1B16089  16.910   8.260  35.850
  671BOLB   C2B16090  17.190   8.570  35.780
  671BOLB   C3B16091  17.280   8.910  35.720
  671BOLB   C4B16092  17.190   9.280  35.520
  671BOLB   NC216093  16.130   7.810  36.720
  671BOLB   PO216094  16.090   7.800  37.190
  671BOLB   GL316095  15.970   8.210  37.040
  671BOLB   GL416096  16.000   8.400  37.320
  671BOLB   C1C16097  16.130   8.520  36.860
  671BOLB   C2C16098  16.480   8.710  36.790
  671BOLB   C3C16099  16.740   9.050  36.950
  671BOLB   C4C16100  17.180   9.060  36.820
  671BOLB   C1D16101  16.480   8.670  37.290
  671BOLB   C2D16102  16.910   8.670  37.280
  671BOLB   C3D16103  17.130   9.040  37.400
  671BOLB   C4D16104  17.100   9.280  37.700
  672BOLB   NC116105  14.670   1.580  30.420
  672BOLB   PO116106  14.830   1.800  30.800
  672BOLB   GL116107  14.750   1.360  30.930
  672BOLB   GL216108  14.470   1.220  31.090
  672BOLB   C1A16109  14.930   0.950  30.880
  672BOLB   C2A16110  14.990   0.540  30.990
  672BOLB   C3A16111  15.050   0.200  31.350
  672BOLB   C4A16112  15.450  26.390  31.410
  672BOLB   C1B16113  14.640   0.910  31.340
  672BOLB   C2B16114  15.010   0.760  31.450
  672BOLB   C3B16115  15.380   0.990  31.710
  672BOLB   C4B16116  15.630   1.110  31.940
  672BOLB   NC216117  15.940   2.210  31.570
  672BOLB   PO216118  16.250   2.120  31.200
  672BOLB   GL316119  16.210   1.760  31.500
  672BOLB   GL416120  16.300   1.770  31.810
  672BOLB   C1C16121  15.950   1.440  31.610
  672BOLB   C2C16122  15.840   1.060  31.500
  672BOLB   C3C16123  15.770   0.690  31.670
  672BOLB   C4C16124  15.750   0.170  31.610
  672BOLB   C1D16125  16.150   1.370  32.080
  672BOLB   C2D16126  16.440   1.050  32.330
  672BOLB   C3D16127  16.730   0.660  32.440
  672BOLB   C4D16128  16.930   0.220  32.540
  673BOLB   NC116129  13.070  19.340  34.050
  673BOLB   PO116130  13.220  19.770  34.020
  673BOLB   GL116131  12.900  19.750  33.760
  673BOLB   GL216132  12.610  19.920  33.830
  673BOLB   C1A16133  12.510  19.600  33.460
  673BOLB   C2A16134  12.150  19.620  33.290
  673BOLB   C3A16135  11.880  19.520  32.990
  673BOLB   C4A16136  11.500  19.590  32.850
  673BOLB   C1B16137  12.200  19.770  33.780
  673BOLB   C2B16138  11.800  19.900  33.810
  673BOLB   C3B16139  11.640  20.220  33.750
  673BOLB   C4B16140  11.520  20.520  33.460
  673BOLB   NC216141   9.180  20.420  32.840
  673BOLB   PO216142   9.170  19.940  32.720
  673BOLB   GL316143   9.580  20.090  32.780
  673BOLB   GL416144   9.690  20.420  32.690
  673BOLB   C1C16145   9.990  20.120  32.990
  673BOLB   C2C16146  10.410  20.020  33.080
  673BOLB   C3C16147  10.880  20.000  32.780
  673BOLB   C4C16148  11.220  19.860  32.820
  673BOLB   C1D16149  10.110  20.450  32.700
  673BOLB   C2D16150  10.430  20.720  32.710
  673BOLB   C3D16151  10.860  20.760  32.680
  673BOLB   C4D16152  11.250  20.830  32.670
  674BOLB   NC116153  20.880   9.400  36.570
  674BOLB   PO116154  20.940   9.160  36.260
  674BOLB   GL116155  20.570   8.910  36.450
  674BOLB   GL216156  20.450   8.770  36.180
  674BOLB   C1A16157  20.340   8.470  36.630
  674BOLB   C2A16158  20.340   8.100  36.770
  674BOLB   C3A16159  20.120   7.880  36.900
  674BOLB   C4A16160  19.820   7.560  36.990
  674BOLB   C1B16161  20.180   8.440  36.140
  674BOLB   C2B16162  19.950   7.960  36.070
  674BOLB   C3B16163  19.920   7.530  36.120
  674BOLB   C4B16164  19.770   7.050  36.200
  674BOLB   NC216165  19.830   5.570  38.740
  674BOLB   PO216166  19.670   5.820  38.390
  674BOLB   GL316167  19.690   6.270  38.220
  674BOLB   GL416168  19.410   6.370  38.240
  674BOLB   C1C16169  19.690   6.590  37.850
  674BOLB   C2C16170  19.290   6.720  37.590
  674BOLB   C3C16171  19.120   7.100  37.300
  674BOLB   C4C16172  19.450   7.250  37.090
  674BOLB   C1D16173  19.250   6.820  38.250
  674BOLB   C2D16174  19.490   7.010  37.960
  674BOLB   C3D16175  19.440   7.260  37.690
  674BOLB   C4D16176  19.340   7.540  37.490
  675BOLB   NC116177  21.830  12.660  42.070
  675BOLB   PO116178  21.780  13.040  42.220
  675BOLB   GL116179  21.820  12.820  42.630
  675BOLB   GL216180  21.770  12.380  42.560
  675BOLB   C1A16181  21.810  12.640  43.020
  675BOLB   C2A16182  21.530  12.620  43.330
  675BOLB   C3A16183  21.230  12.460  43.570
  675BOLB   C4A16184  20.820  12.360  43.600
  675BOLB   C1B16185  21.870  12.140  42.950
  675BOLB   C2B16186  21.760  12.220  43.490
  675BOLB   C3B16187  21.650  12.240  43.920
  675BOLB   C4B16188  21.580  12.250  44.350
  675BOLB   NC216189  20.730  10.180  45.120
  675BOLB   PO216190  20.410  10.350  44.970
  675BOLB   GL316191  20.310  10.580  44.580
  675BOLB   GL416192  20.320  10.350  44.400
  675BOLB   C1C16193  20.220  10.860  44.170
  675BOLB   C2C16194  20.500  11.190  44.200
  675BOLB   C3C16195  20.710  11.510  44.020
  675BOLB   C4C16196  20.700  11.940  43.890
  675BOLB   C1D16197  20.690  10.720  44.310
  675BOLB   C2D16198  20.910  11.060  43.920
  675BOLB   C3D16199  21.090  11.490  43.710
  675BOLB   C4D16200  21.140  11.880  43.390
  676BOLB   NC116201  28.685  12.400  37.740
  676BOLB   PO116202  28.775  12.570  38.210
  676BOLB   GL116203  29.165  12.420  38.510
  676BOLB   GL216204  29.395  12.290  38.310
  676BOLB   C1A16205  29.425  12.140  38.830
  676BOLB   C2A16206  29.805  12.030  38.930
  676BOLB   C3A16207  30.175  11.950  39.040
  676BOLB   C4A16208  30.595  11.990  39.300
  676BOLB   C1B16209  29.885  12.340  38.380
  676BOLB   C2B16210  30.165  12.350  38.660
  676BOLB   C3B16211  30.515  12.330  38.950
  676BOLB   C4B16212  30.945  12.420  38.970
  676BOLB   NC216213  33.115  12.430  39.190
  676BOLB   PO216214  33.085  12.240  38.820
  676BOLB   GL316215  32.665  12.090  38.850
  676BOLB   GL416216  32.555  12.120  39.110
  676BOLB   C1C16217  32.265  12.100  38.720
  676BOLB   C2C16218  31.855  12.220  38.760
  676BOLB   C3C16219  31.375  12.080  38.980
  676BOLB   C4C16220  31.015  12.050  39.350
  676BOLB   C1D16221  32.055  12.040  39.230
  676BOLB   C2D16222  31.675  12.280  39.390
  676BOLB   C3D16223  31.225  12.540  39.330
  676BOLB   C4D16224  30.695  12.460  39.400
  677BOLB   NC116225  32.385  12.350  23.620
  677BOLB   PO116226  32.075  12.290  23.990
  677BOLB   GL116227  31.585  12.480  24.010
  677BOLB   GL216228  31.375  12.420  23.710
  677BOLB   C1A16229  31.265  12.470  24.330
  677BOLB   C2A16230  31.195  12.590  24.730
  677BOLB   C3A16231  30.935  12.600  25.090
  677BOLB   C4A16232  30.535  12.680  25.170
  677BOLB   C1B16233  30.995  12.600  23.930
  677BOLB   C2B16234  30.635  12.840  24.100
  677BOLB   C3B16235  30.235  12.980  24.120
  677BOLB   C4B16236  29.945  13.000  24.420
  677BOLB   NC216237  31.675  11.880  23.880
  677BOLB   PO216238  31.265  11.910  23.640
  677BOLB   GL316239  30.825  11.970  23.730
  677BOLB   GL416240  30.895  11.650  24.000
  677BOLB   C1C16241  30.575  12.270  23.940
  677BOLB   C2C16242  30.245  12.320  24.160
  677BOLB   C3C16243  30.205  12.570  24.450
  677BOLB   C4C16244  30.205  12.730  24.880
  677BOLB   C1D16245  30.465  11.810  24.030
  677BOLB   C2D16246  30.095  11.810  24.090
  677BOLB   C3D16247  29.795  11.670  24.550
  677BOLB   C4D16248  29.395  11.430  24.470
  678BOLB   NC116249  10.850  25.150  34.830
  678BOLB   PO116250  10.830  24.790  34.830
  678BOLB   GL116251  11.160  24.860  34.430
  678BOLB   GL216252  11.410  25.020  34.590
  678BOLB   C1A16253  11.320  25.040  34.060
  678BOLB   C2A16254  11.670  24.810  33.930
  678BOLB   C3A16255  12.140  24.990  33.860
  678BOLB   C4A16256  12.560  24.980  34.050
  678BOLB   C1B16257  11.530  24.540  34.370
  678BOLB   C2B16258  11.880  24.340  34.130
  678BOLB   C3B16259  12.210  24.340  33.870
  678BOLB   C4B16260  12.590  24.130  33.810
  678BOLB   NC216261  12.370   0.240  34.620
  678BOLB   PO216262  12.180  26.400  34.300
  678BOLB   GL316263  12.570  26.110  34.360
  678BOLB   GL416264  12.530  25.890  34.250
  678BOLB   C1C16265  13.040  25.920  34.380
  678BOLB   C2C16266  13.290  25.590  34.390
  678BOLB   C3C16267  13.090  25.170  34.510
  678BOLB   C4C16268  12.920  24.940  34.350
  678BOLB   C1D16269  12.810  25.870  33.910
  678BOLB   C2D16270  13.190  25.720  33.880
  678BOLB   C3D16271  13.510  25.510  33.760
  678BOLB   C4D16272  13.710  25.140  33.630
  679BOLB   NC116273  28.345  13.830  26.490
  679BOLB   PO116274  28.415  13.910  26.120
  679BOLB   GL116275  28.715  14.130  26.150
  679BOLB   GL216276  28.675  14.420  26.320
  679BOLB   C1A16277  28.995  14.320  25.950
  679BOLB   C2A16278  29.375  14.480  25.770
  679BOLB   C3A16279  29.635  14.800  25.700
  679BOLB   C4A16280  29.905  14.740  26.110
  679BOLB   C1B16281  29.035  14.720  26.230
  679BOLB   C2B16282  29.335  14.970  26.130
  679BOLB   C3B16283  29.735  15.210  26.140
  679BOLB   C4B16284  30.155  15.350  26.080
  679BOLB   NC216285  32.325  14.990  26.640
  679BOLB   PO216286  32.355  15.380  26.430
  679BOLB   GL316287  31.915  15.350  26.670
  679BOLB   GL416288  31.985  15.270  26.980
  679BOLB   C1C16289  31.475  15.250  26.510
  679BOLB   C2C16290  31.005  15.000  26.400
  679BOLB   C3C16291  30.695  14.890  26.440
  679BOLB   C4C16292  30.305  14.720  26.340
  679BOLB   C1D16293  31.645  15.010  26.980
  679BOLB   C2D16294  31.415  14.820  26.770
  679BOLB   C3D16295  31.045  14.570  26.640
  679BOLB   C4D16296  30.635  14.330  26.450
  680BOLB   NC116297  27.045  10.170  26.110
  680BOLB   PO116298  26.855  10.010  25.860
  680BOLB   GL116299  27.285   9.810  25.820
  680BOLB   GL216300  27.235   9.610  25.530
  680BOLB   C1A16301  27.505   9.370  25.820
  680BOLB   C2A16302  27.695   9.020  25.740
  680BOLB   C3A16303  27.995   8.760  25.660
  680BOLB   C4A16304  28.315   8.480  25.430
  680BOLB   C1B16305  27.615   9.410  25.290
  680BOLB   C2B16306  28.075   9.210  25.290
  680BOLB   C3B16307  28.425   9.120  25.510
  680BOLB   C4B16308  28.805   9.450  25.500
  680BOLB   NC216309  29.795   6.650  24.800
  680BOLB   PO216310  29.475   6.470  25.150
  680BOLB   GL316311  29.265   6.890  25.090
  680BOLB   GL416312  29.055   6.790  25.330
  680BOLB   C1C16313  29.125   7.290  25.130
  680BOLB   C2C16314  28.995   7.610  25.380
  680BOLB   C3C16315  29.095   8.050  25.470
  680BOLB   C4C16316  28.615   8.160  25.380
  680BOLB   C1D16317  28.705   7.050  25.280
  680BOLB   C2D16318  28.525   7.390  25.440
  680BOLB   C3D16319  28.555   7.750  25.650
  680BOLB   C4D16320  28.775   8.130  25.890
  681BOLB   NC116321  21.080  10.990  40.340
  681BOLB   PO116322  21.080  11.440  40.500
  681BOLB   GL116323  21.000  11.020  40.820
  681BOLB   GL216324  20.680  10.880  40.720
  681BOLB   C1A16325  20.750  10.980  41.270
  681BOLB   C2A16326  20.370  10.800  41.420
  681BOLB   C3A16327  20.190  10.430  41.460
  681BOLB   C4A16328  20.010   9.990  41.700
  681BOLB   C1B16329  20.500  10.640  40.940
  681BOLB   C2B16330  20.020  10.590  41.010
  681BOLB   C3B16331  19.640  10.560  41.080
  681BOLB   C4B16332  19.340  10.720  41.340
  681BOLB   NC216333  20.510   7.860  42.900
  681BOLB   PO216334  20.990   8.040  43.050
  681BOLB   GL316335  21.010   8.510  42.830
  681BOLB   GL416336  21.400   8.650  42.790
  681BOLB   C1C16337  20.820   8.770  42.520
  681BOLB   C2C16338  20.530   8.970  42.400
  681BOLB   C3C16339  20.260   9.140  42.070
  681BOLB   C4C16340  20.020   9.550  41.940
  681BOLB   C1D16341  21.290   8.680  42.350
  681BOLB   C2D16342  21.450   8.640  41.950
  681BOLB   C3D16343  21.630   8.400  41.830
  681BOLB   C4D16344  22.030   8.210  41.990
  682BOLB   NC116345  16.750  15.150  24.460
  682BOLB   PO116346  16.420  15.330  24.240
  682BOLB   GL116347  16.300  14.890  24.210
  682BOLB   GL216348  16.390  14.730  24.400
  682BOLB   C1A16349  16.080  14.730  23.970
  682BOLB   C2A16350  15.880  14.240  23.930
  682BOLB   C3A16351  15.680  13.840  23.910
  682BOLB   C4A16352  15.150  13.780  23.750
  682BOLB   C1B16353  16.160  14.300  24.310
  682BOLB   C2B16354  15.770  14.090  24.430
  682BOLB   C3B16355  15.410  13.870  24.300
  682BOLB   C4B16356  15.060  13.530  24.190
  682BOLB   NC216357  13.300  13.140  22.850
  682BOLB   PO216358  13.540  13.120  22.510
  682BOLB   GL316359  13.780  13.310  22.690
  682BOLB   GL416360  13.870  13.380  22.910
  682BOLB   C1C16361  14.090  13.620  22.530
  682BOLB   C2C16362  14.300  13.640  22.750
  682BOLB   C3C16363  14.690  13.570  22.980
  682BOLB   C4C16364  14.860  13.620  23.430
  682BOLB   C1D16365  14.080  13.530  23.190
  682BOLB   C2D16366  14.370  13.590  23.500
  682BOLB   C3D16367  14.650  13.950  23.690
  682BOLB   C4D16368  14.800  14.380  23.750
  683BOLB   NC116369  18.590  24.370  36.050
  683BOLB   PO116370  18.550  24.600  35.610
  683BOLB   GL116371  18.390  24.860  35.800
  683BOLB   GL216372  18.110  24.980  35.580
  683BOLB   C1A16373  18.510  25.050  36.210
  683BOLB   C2A16374  18.580  25.460  36.250
  683BOLB   C3A16375  18.540  25.830  36.100
  683BOLB   C4A16376  18.690  26.270  36.160
  683BOLB   C1B16377  17.960  25.370  35.540
  683BOLB   C2B16378  17.900  25.830  35.550
  683BOLB   C3B16379  17.670  26.190  35.490
  683BOLB   C4B16380  17.640   0.120  35.350
  683BOLB   NC216381  18.230   2.160  37.410
  683BOLB   PO216382  17.840   1.830  37.360
  683BOLB   GL316383  18.000   1.420  37.140
  683BOLB   GL416384  17.800   1.170  37.000
  683BOLB   C1C16385  18.310   1.120  37.020
  683BOLB   C2C16386  18.490   0.720  36.940
  683BOLB   C3C16387  18.440   0.460  36.560
  683BOLB   C4C16388  18.620   0.100  36.430
  683BOLB   C1D16389  17.510   1.030  36.770
  683BOLB   C2D16390  17.470   0.580  36.630
  683BOLB   C3D16391  17.660   0.410  36.290
  683BOLB   C4D16392  17.600   0.160  35.970
  684BOLB   NC116393  18.820  21.690  40.670
  684BOLB   PO116394  18.740  22.080  40.440
  684BOLB   GL116395  18.350  22.010  40.600
  684BOLB   GL216396  18.410  21.890  40.930
  684BOLB   C1A16397  18.090  22.330  40.850
  684BOLB   C2A16398  18.160  22.390  41.290
  684BOLB   C3A16399  18.140  22.290  41.790
  684BOLB   C4A16400  17.850  22.490  42.080
  684BOLB   C1B16401  18.480  22.040  41.310
  684BOLB   C2B16402  18.650  22.350  41.540
  684BOLB   C3B16403  18.440  22.680  41.880
  684BOLB   C4B16404  18.430  22.510  42.260
  684BOLB   NC216405  16.540  24.020  43.630
  684BOLB   PO216406  16.250  23.910  43.290
  684BOLB   GL316407  16.500  23.740  42.980
  684BOLB   GL416408  16.370  23.770  42.580
  684BOLB   C1C16409  16.780  23.490  42.760
  684BOLB   C2C16410  16.810  23.150  42.580
  684BOLB   C3C16411  17.160  22.940  42.460
  684BOLB   C4C16412  17.600  22.780  42.340
  684BOLB   C1D16413  16.580  23.500  42.260
  684BOLB   C2D16414  16.770  23.160  42.010
  684BOLB   C3D16415  17.110  22.880  41.910
  684BOLB   C4D16416  17.560  22.910  41.870
  685BOLB   NC116417  28.495  15.460  34.110
  685BOLB   PO116418  28.375  15.820  33.890
  685BOLB   GL116419  28.735  15.910  33.770
  685BOLB   GL216420  28.935  15.660  33.720
  685BOLB   C1A16421  28.995  16.280  33.720
  685BOLB   C2A16422  29.345  16.360  33.640
  685BOLB   C3A16423  29.685  16.610  33.500
  685BOLB   C4A16424  30.095  16.790  33.780
  685BOLB   C1B16425  29.295  15.870  33.570
  685BOLB   C2B16426  29.705  16.080  33.460
  685BOLB   C3B16427  30.015  16.300  33.680
  685BOLB   C4B16428  30.265  16.390  34.160
  685BOLB   NC216429  32.615  17.550  32.790
  685BOLB   PO216430  32.275  17.640  32.960
  685BOLB   GL316431  31.995  17.620  33.320
  685BOLB   GL416432  31.965  17.870  33.400
  685BOLB   C1C16433  31.645  17.380  33.410
  685BOLB   C2C16434  31.305  17.130  33.620
  685BOLB   C3C16435  30.975  16.980  33.920
  685BOLB   C4C16436  30.545  16.760  33.960
  685BOLB   C1D16437  31.595  17.850  33.500
  685BOLB   C2D16438  31.205  17.570  33.650
  685BOLB   C3D16439  30.805  17.400  33.740
  685BOLB   C4D16440  30.415  17.180  33.580
  686BOLB   NC116441  16.190  13.780  32.680
  686BOLB   PO116442  15.850  14.050  32.440
  686BOLB   GL116443  15.470  13.880  32.520
  686BOLB   GL216444  15.280  13.750  32.140
  686BOLB   C1A16445  14.990  13.680  32.570
  686BOLB   C2A16446  14.640  13.390  32.540
  686BOLB   C3A16447  14.270  13.090  32.650
  686BOLB   C4A16448  13.900  12.920  32.770
  686BOLB   C1B16449  14.950  13.450  32.140
  686BOLB   C2B16450  14.670  13.160  32.090
  686BOLB   C3B16451  14.440  12.960  32.130
  686BOLB   C4B16452  14.080  12.680  32.320
  686BOLB   NC216453  12.290  11.540  32.800
  686BOLB   PO216454  11.870  11.730  32.850
  686BOLB   GL316455  12.050  12.030  32.990
  686BOLB   GL416456  11.910  12.040  33.260
  686BOLB   C1C16457  12.310  12.320  32.920
  686BOLB   C2C16458  12.750  12.520  32.940
  686BOLB   C3C16459  13.110  12.710  32.960
  686BOLB   C4C16460  13.440  12.830  32.810
  686BOLB   C1D16461  11.970  12.530  33.380
  686BOLB   C2D16462  12.100  12.950  33.440
  686BOLB   C3D16463  12.430  13.310  33.440
  686BOLB   C4D16464  12.910  13.430  33.480
  687BOLB   NC116465  25.810  12.320  23.790
  687BOLB   PO116466  25.700  11.830  23.960
  687BOLB   GL116467  26.050  11.790  23.670
  687BOLB   GL216468  26.080  12.020  23.450
  687BOLB   C1A16469  26.535  11.620  23.440
  687BOLB   C2A16470  26.605  11.220  23.190
  687BOLB   C3A16471  26.430  10.860  23.150
  687BOLB   C4A16472  26.410  10.490  22.930
  687BOLB   C1B16473  26.140  11.730  23.130
  687BOLB   C2B16474  26.340  11.500  22.810
  687BOLB   C3B16475  26.445  11.280  22.440
  687BOLB   C4B16476  26.645  11.030  22.220
  687BOLB   NC216477  28.155   8.510  21.960
  687BOLB   PO216478  27.835   8.650  21.730
  687BOLB   GL316479  27.565   8.900  21.890
  687BOLB   GL416480  27.335   8.890  21.890
  687BOLB   C1C16481  27.435   9.380  22.070
  687BOLB   C2C16482  27.155   9.690  22.320
  687BOLB   C3C16483  26.905   9.900  22.570
  687BOLB   C4C16484  26.765  10.270  22.760
  687BOLB   C1D16485  27.035   9.090  21.970
  687BOLB   C2D16486  26.655   9.250  22.140
  687BOLB   C3D16487  26.475   9.440  22.450
  687BOLB   C4D16488  26.400   9.860  22.470
  688BOLB   NC116489  28.175  13.780  27.370
  688BOLB   PO116490  28.335  14.210  27.510
  688BOLB   GL116491  28.655  14.490  27.530
  688BOLB   GL216492  28.845  14.510  27.840
  688BOLB   C1A16493  29.025  14.610  27.300
  688BOLB   C2A16494  29.355  14.840  27.360
  688BOLB   C3A16495  29.765  14.850  27.080
  688BOLB   C4A16496  30.255  14.770  26.910
  688BOLB   C1B16497  29.175  14.710  27.820
  688BOLB   C2B16498  29.565  15.020  27.810
  688BOLB   C3B16499  29.915  15.400  27.890
  688BOLB   C4B16500  30.255  15.370  28.190
  688BOLB   NC216501  32.085  14.400  25.910
  688BOLB   PO216502  32.345  14.510  26.220
  688BOLB   GL316503  32.015  14.590  26.520
  688BOLB   GL416504  31.825  14.850  26.510
  688BOLB   C1C16505  31.765  14.460  26.860
  688BOLB   C2C16506  31.555  14.660  27.270
  688BOLB   C3C16507  31.075  14.820  27.100
  688BOLB   C4C16508  30.655  14.690  26.970
  688BOLB   C1D16509  31.575  14.540  26.330
  688BOLB   C2D16510  31.425  14.300  26.610
  688BOLB   C3D16511  31.305  14.360  26.950
  688BOLB   C4D16512  31.585  14.180  27.260
  689BOLB   NC116513  16.540  17.750  40.640
  689BOLB   PO116514  16.730  18.160  40.900
  689BOLB   GL116515  16.410  18.350  41.090
  689BOLB   GL216516  16.190  18.070  40.880
  689BOLB   C1A16517  16.130  18.360  41.400
  689BOLB   C2A16518  15.780  18.480  41.560
  689BOLB   C3A16519  15.560  18.520  41.950
  689BOLB   C4A16520  15.400  18.540  42.350
  689BOLB   C1B16521  15.750  18.110  40.900
  689BOLB   C2B16522  15.360  18.220  41.140
  689BOLB   C3B16523  15.190  18.500  41.390
  689BOLB   C4B16524  15.040  18.500  41.850
  689BOLB   NC216525  13.470  17.630  44.040
  689BOLB   PO216526  13.630  17.800  43.780
  689BOLB   GL316527  14.060  17.920  43.540
  689BOLB   GL416528  14.290  17.990  43.750
  689BOLB   C1C16529  14.240  17.770  43.180
  689BOLB   C2C16530  14.530  17.890  42.900
  689BOLB   C3C16531  14.740  18.050  42.640
  689BOLB   C4C16532  15.090  18.240  42.440
  689BOLB   C1D16533  14.540  18.120  43.440
  689BOLB   C2D16534  14.850  18.140  43.180
  689BOLB   C3D16535  15.230  18.060  42.970
  689BOLB   C4D16536  15.500  17.730  42.880
  690BOLB   NC116537  20.430  15.700  21.440
  690BOLB   PO116538  20.910  15.810  21.290
  690BOLB   GL116539  20.590  15.750  20.970
  690BOLB   GL216540  20.420  15.420  20.980
  690BOLB   C1A16541  20.370  15.580  20.570
  690BOLB   C2A16542  19.940  15.550  20.190
  690BOLB   C3A16543  19.590  15.230  19.980
  690BOLB   C4A16544  19.370  15.170  19.630
  690BOLB   C1B16545  19.990  15.410  20.770
  690BOLB   C2B16546  19.740  15.130  20.470
  690BOLB   C3B16547  19.880  14.800  20.110
  690BOLB   C4B16548  19.850  14.340  19.960
  690BOLB   NC216549  20.290  14.530  17.300
  690BOLB   PO216550  19.850  14.340  17.370
  690BOLB   GL316551  20.020  14.340  17.760
  690BOLB   GL416552  20.400  14.410  17.790
  690BOLB   C1C16553  19.950  14.380  18.220
  690BOLB   C2C16554  19.750  14.590  18.610
  690BOLB   C3C16555  19.720  14.850  18.960
  690BOLB   C4C16556  19.500  15.170  19.150
  690BOLB   C1D16557  20.560  14.690  18.050
  690BOLB   C2D16558  20.690  15.110  18.280
  690BOLB   C3D16559  20.580  15.410  18.530
  690BOLB   C4D16560  20.710  15.810  18.720
  691BOLB   NC116561  17.630  14.260  40.210
  691BOLB   PO116562  17.210  14.160  40.000
  691BOLB   GL116563  16.950  13.850  40.170
  691BOLB   GL216564  16.950  13.530  40.140
  691BOLB   C1A16565  16.930  13.590  40.610
  691BOLB   C2A16566  17.080  13.630  41.050
  691BOLB   C3A16567  16.880  13.740  41.450
  691BOLB   C4A16568  16.930  13.780  41.900
  691BOLB   C1B16569  16.720  13.220  40.370
  691BOLB   C2B16570  16.280  13.110  40.550
  691BOLB   C3B16571  16.140  12.810  40.790
  691BOLB   C4B16572  16.220  12.710  41.260
  691BOLB   NC216573  15.800  13.360  43.550
  691BOLB   PO216574  15.400  13.370  43.320
  691BOLB   GL316575  15.690  13.600  43.050
  691BOLB   GL416576  16.030  13.660  43.150
  691BOLB   C1C16577  15.880  13.980  42.800
  691BOLB   C2C16578  15.970  14.060  42.370
  691BOLB   C3C16579  16.260  14.260  42.070
  691BOLB   C4C16580  16.740  14.190  42.130
  691BOLB   C1D16581  16.220  14.130  43.170
  691BOLB   C2D16582  16.640  14.220  43.060
  691BOLB   C3D16583  16.850  14.460  42.730
  691BOLB   C4D16584  17.080  14.500  42.490
  692BOLB   NC116585  21.710  16.840  43.190
  692BOLB   PO116586  21.680  17.170  43.400
  692BOLB   GL116587  21.480  17.060  43.910
  692BOLB   GL216588  21.110  17.160  43.840
  692BOLB   C1A16589  21.410  17.060  44.260
  692BOLB   C2A16590  21.610  17.170  44.610
  692BOLB   C3A16591  21.660  17.340  45.060
  692BOLB   C4A16592  21.430  17.710  45.250
  692BOLB   C1B16593  20.860  17.050  44.190
  692BOLB   C2B16594  20.690  16.960  44.520
  692BOLB   C3B16595  20.530  17.000  44.950
  692BOLB   C4B16596  20.670  16.580  45.220
  692BOLB   NC216597  21.040  17.060  47.700
  692BOLB   PO216598  20.860  17.530  47.740
  692BOLB   GL316599  20.960  17.420  47.270
  692BOLB   GL416600  21.010  17.150  47.090
  692BOLB   C1C16601  21.300  17.680  47.000
  692BOLB   C2C16602  21.420  17.570  46.590
  692BOLB   C3C16603  21.270  17.650  46.180
  692BOLB   C4C16604  21.300  17.510  45.710
  692BOLB   C1D16605  20.980  17.330  46.740
  692BOLB   C2D16606  21.050  17.250  46.290
  692BOLB   C3D16607  20.880  17.190  45.870
  692BOLB   C4D16608  20.790  17.150  45.480
  693BOLB   NC116609  26.080  10.720  24.870
  693BOLB   PO116610  26.280  10.290  24.780
  693BOLB   GL116611  26.360   9.900  24.630
  693BOLB   GL216612  26.745   9.900  24.660
  693BOLB   C1A16613  26.515   9.630  24.270
  693BOLB   C2A16614  26.885   9.380  24.130
  693BOLB   C3A16615  27.175   9.360  23.870
  693BOLB   C4A16616  27.515   9.010  23.920
  693BOLB   C1B16617  26.725   9.450  24.670
  693BOLB   C2B16618  26.765   9.020  24.470
  693BOLB   C3B16619  27.065   8.660  24.560
  693BOLB   C4B16620  27.295   8.350  24.660
  693BOLB   NC216621  28.995   8.440  22.690
  693BOLB   PO216622  28.775   8.030  22.830
  693BOLB   GL316623  28.865   8.280  23.140
  693BOLB   GL416624  28.765   8.520  23.120
  693BOLB   C1C16625  28.625   8.340  23.590
  693BOLB   C2C16626  28.525   8.400  24.060
  693BOLB   C3C16627  28.145   8.620  24.130
  693BOLB   C4C16628  27.715   8.940  24.140
  693BOLB   C1D16629  28.285   8.390  23.150
  693BOLB   C2D16630  28.055   8.100  23.270
  693BOLB   C3D16631  27.875   7.740  23.570
  693BOLB   C4D16632  27.575   7.560  23.700
  694BOLB   NC116633  28.005  12.990  39.200
  694BOLB   PO116634  28.315  13.230  39.260
  694BOLB   GL116635  28.475  13.580  39.660
  694BOLB   GL216636  28.755  13.910  39.610
  694BOLB   C1A16637  28.605  13.760  40.070
  694BOLB   C2A16638  28.855  13.740  40.380
  694BOLB   C3A16639  29.115  13.540  40.520
  694BOLB   C4A16640  29.565  13.460  40.620
  694BOLB   C1B16641  29.085  13.910  39.790
  694BOLB   C2B16642  29.305  13.560  40.010
  694BOLB   C3B16643  29.325  13.150  40.280
  694BOLB   C4B16644  29.335  13.000  40.690
  694BOLB   NC216645  30.865  14.660  42.070
  694BOLB   PO216646  31.135  14.300  41.850
  694BOLB   GL316647  30.765  14.090  41.820
  694BOLB   GL416648  30.615  14.380  41.720
  694BOLB   C1C16649  30.695  13.700  41.730
  694BOLB   C2C16650  30.415  13.450  41.530
  694BOLB   C3C16651  30.065  13.400  41.210
  694BOLB   C4C16652  29.915  13.320  40.710
  694BOLB   C1D16653  30.185  14.420  41.720
  694BOLB   C2D16654  29.735  14.160  41.760
  694BOLB   C3D16655  29.395  14.080  41.610
  694BOLB   C4D16656  29.095  14.100  41.370
  695BOLB   NC116657  18.960  23.580  37.930
  695BOLB   PO116658  19.230  23.400  38.260
  695BOLB   GL116659  19.300  23.780  38.560
  695BOLB   GL216660  19.670  23.850  38.510
  695BOLB   C1A16661  19.220  24.100  38.860
  695BOLB   C2A16662  19.150  24.420  39.180
  695BOLB   C3A16663  19.150  24.810  39.260
  695BOLB   C4A16664  19.080  25.170  38.980
  695BOLB   C1B16665  19.710  24.280  38.840
  695BOLB   C2B16666  19.510  24.660  38.940
  695BOLB   C3B16667  19.560  25.070  39.110
  695BOLB   C4B16668  19.510  25.570  39.200
  695BOLB   NC216669  19.000   0.970  39.510
  695BOLB   PO216670  19.230   1.190  39.140
  695BOLB   GL316671  19.070   0.740  39.040
  695BOLB   GL416672  19.300   0.530  38.790
  695BOLB   C1C16673  18.840   0.390  39.000
  695BOLB   C2C16674  19.010   0.070  38.890
  695BOLB   C3C16675  19.040  26.110  38.760
  695BOLB   C4C16676  19.140  25.650  38.830
  695BOLB   C1D16677  19.270   0.460  38.410
  695BOLB   C2D16678  19.170   0.240  38.090
  695BOLB   C3D16679  19.220  26.180  37.970
  695BOLB   C4D16680  19.040  25.760  38.040
  696BOLB   NC116681  16.820  12.050  32.090
  696BOLB   PO116682  16.560  12.320  32.340
  696BOLB   GL116683  16.140  12.050  32.500
  696BOLB   GL216684  16.230  11.870  32.790
  696BOLB   C1A16685  15.900  11.800  32.440
  696BOLB   C2A16686  15.670  11.400  32.310
  696BOLB   C3A16687  15.230  11.290  32.350
  696BOLB   C4A16688  14.870  11.250  32.770
  696BOLB   C1B16689  16.040  11.440  32.780
  696BOLB   C2B16690  16.000  11.170  32.640
  696BOLB   C3B16691  15.930  10.690  32.530
  696BOLB   C4B16692  15.930  10.210  32.490
  696BOLB   NC216693  12.760  10.830  33.980
  696BOLB   PO216694  12.720  10.710  33.580
  696BOLB   GL316695  13.140  10.820  33.330
  696BOLB   GL416696  13.100  11.100  33.140
  696BOLB   C1C16697  13.530  10.830  33.190
  696BOLB   C2C16698  13.880  11.110  33.280
  696BOLB   C3C16699  14.200  11.090  33.000
  696BOLB   C4C16700  14.500  11.280  32.640
  696BOLB   C1D16701  13.450  11.380  33.120
  696BOLB   C2D16702  13.460  11.810  33.210
  696BOLB   C3D16703  13.650  12.000  33.500
  696BOLB   C4D16704  13.710  12.270  33.770
  697BOLB   NC116705  20.860  23.600  36.730
  697BOLB   PO116706  21.180  23.780  36.980
  697BOLB   GL116707  21.550  23.930  37.060
  697BOLB   GL216708  21.700  23.630  37.060
  697BOLB   C1A16709  21.930  24.270  37.050
  697BOLB   C2A16710  22.000  24.620  37.010
  697BOLB   C3A16711  21.880  25.080  37.020
  697BOLB   C4A16712  21.830  25.450  37.290
  697BOLB   C1B16713  22.070  23.820  37.330
  697BOLB   C2B16714  22.420  24.060  37.420
  697BOLB   C3B16715  22.820  24.260  37.330
  697BOLB   C4B16716  23.220  24.580  37.380
  697BOLB   NC216717  22.920   0.460  38.640
  697BOLB   PO216718  22.680   0.570  39.050
  697BOLB   GL316719  22.450   0.220  38.870
  697BOLB   GL416720  22.190   0.040  39.050
  697BOLB   C1C16721  22.250  26.370  38.450
  697BOLB   C2C16722  22.170  26.030  38.260
  697BOLB   C3C16723  22.270  25.610  38.080
  697BOLB   C4C16724  21.870  25.550  37.750
  697BOLB   C1D16725  22.100  26.110  38.820
  697BOLB   C2D16726  22.110  25.740  38.620
  697BOLB   C3D16727  21.970  25.390  38.450
  697BOLB   C4D16728  21.900  25.100  38.200
  698BOLB   NC116729  14.320  18.490  25.900
  698BOLB   PO116730  14.400  18.770  25.640
  698BOLB   GL116731  14.030  18.480  25.440
  698BOLB   GL216732  13.940  18.270  25.370
  698BOLB   C1A16733  13.700  18.710  25.270
  698BOLB   C2A16734  13.470  18.890  24.920
  698BOLB   C3A16735  13.200  18.830  24.530
  698BOLB   C4A16736  13.040  18.900  24.120
  698BOLB   C1B16737  13.520  18.220  25.100
  698BOLB   C2B16738  13.260  18.070  24.930
  698BOLB   C3B16739  12.880  17.960  24.620
  698BOLB   C4B16740  12.430  18.100  24.620
  698BOLB   NC216741  10.730  18.800  23.530
  698BOLB   PO216742  10.580  18.890  23.910
  698BOLB   GL316743  11.060  18.720  23.910
  698BOLB   GL416744  11.140  18.770  24.260
  698BOLB   C1C16745  11.480  18.660  23.850
  698BOLB   C2C16746  11.770  18.710  23.690
  698BOLB   C3C16747  12.110  18.830  24.040
  698BOLB   C4C16748  12.580  18.900  24.090
  698BOLB   C1D16749  11.530  18.920  24.270
  698BOLB   C2D16750  11.880  19.140  24.410
  698BOLB   C3D16751  12.310  19.320  24.220
  698BOLB   C4D16752  12.490  19.370  23.850
  699BOLB   NC116753  28.225  14.950  38.930
  699BOLB   PO116754  27.945  15.170  39.280
  699BOLB   GL116755  28.335  15.360  39.340
  699BOLB   GL216756  28.345  15.730  39.520
  699BOLB   C1A16757  28.635  15.370  39.630
  699BOLB   C2A16758  29.045  15.350  39.760
  699BOLB   C3A16759  29.275  15.210  40.040
  699BOLB   C4A16760  29.705  15.150  40.230
  699BOLB   C1B16761  28.815  15.850  39.480
  699BOLB   C2B16762  29.215  16.090  39.750
  699BOLB   C3B16763  29.555  16.320  39.870
  699BOLB   C4B16764  29.875  16.240  40.080
  699BOLB   NC216765  32.305  14.810  40.220
  699BOLB   PO216766  32.115  15.130  40.200
  699BOLB   GL316767  31.735  15.180  40.150
  699BOLB   GL416768  31.525  15.370  39.880
  699BOLB   C1C16769  31.295  15.160  40.240
  699BOLB   C2C16770  30.905  15.070  40.350
  699BOLB   C3C16771  30.515  14.950  40.330
  699BOLB   C4C16772  30.105  15.260  40.330
  699BOLB   C1D16773  30.955  15.370  39.900
  699BOLB   C2D16774  30.625  15.110  39.780
  699BOLB   C3D16775  30.185  14.990  39.880
  699BOLB   C4D16776  29.785  14.780  39.840
  700BOLB   NC116777  29.995  20.190  30.910
  700BOLB   PO116778  29.575  20.380  30.800
  700BOLB   GL116779  29.365  19.980  30.920
  700BOLB   GL216780  29.605  19.860  31.060
  700BOLB   C1A16781  28.975  19.740  31.000
  700BOLB   C2A16782  28.775  19.750  31.440
  700BOLB   C3A16783  28.735  19.690  31.920
  700BOLB   C4A16784  28.725  19.470  32.320
  700BOLB   C1B16785  29.375  19.440  31.190
  700BOLB   C2B16786  29.415  19.030  31.330
  700BOLB   C3B16787  29.355  18.580  31.420
  700BOLB   C4B16788  29.265  18.170  31.500
  700BOLB   NC216789  30.545  19.510  33.570
  700BOLB   PO216790  30.075  19.840  33.670
  700BOLB   GL316791  29.785  19.520  33.640
  700BOLB   GL416792  29.665  19.580  33.850
  700BOLB   C1C16793  29.495  19.300  33.460
  700BOLB   C2C16794  29.295  19.050  33.280
  700BOLB   C3C16795  29.035  18.940  32.950
  700BOLB   C4C16796  28.745  19.130  32.680
  700BOLB   C1D16797  29.425  19.930  34.080
  700BOLB   C2D16798  29.395  19.780  34.640
  700BOLB   C3D16799  29.425  19.540  35.070
  700BOLB   C4D16800  29.505  19.460  35.530
  701BOLB   NC116801  21.180  19.920  43.180
  701BOLB   PO116802  21.400  20.190  42.800
  701BOLB   GL116803  21.450  20.390  43.190
  701BOLB   GL216804  21.400  20.680  43.200
  701BOLB   C1A16805  21.550  20.360  43.540
  701BOLB   C2A16806  21.490  20.670  43.830
  701BOLB   C3A16807  21.370  21.010  44.070
  701BOLB   C4A16808  21.200  21.100  44.530
  701BOLB   C1B16809  21.820  20.750  43.330
  701BOLB   C2B16810  22.180  20.730  43.460
  701BOLB   C3B16811  22.580  20.810  43.670
  701BOLB   C4B16812  22.780  20.690  43.990
  701BOLB   NC216813  19.710  22.060  46.080
  701BOLB   PO216814  20.030  21.860  46.150
  701BOLB   GL316815  20.290  21.840  45.760
  701BOLB   GL416816  19.980  21.920  45.560
  701BOLB   C1C16817  20.320  21.490  45.520
  701BOLB   C2C16818  20.290  21.150  45.210
  701BOLB   C3C16819  20.540  21.010  44.940
  701BOLB   C4C16820  20.930  20.950  44.850
  701BOLB   C1D16821  19.820  21.500  45.600
  701BOLB   C2D16822  19.890  21.130  45.470
  701BOLB   C3D16823  19.820  20.740  45.250
  701BOLB   C4D16824  20.020  20.510  44.980
  702BOLB   NC116825  15.370  22.670  36.180
  702BOLB   PO116826  15.660  22.990  36.320
  702BOLB   GL116827  15.260  23.200  36.480
  702BOLB   GL216828  15.290  23.250  36.870
  702BOLB   C1A16829  15.030  23.590  36.580
  702BOLB   C2A16830  14.860  23.740  36.950
  702BOLB   C3A16831  14.550  23.800  37.200
  702BOLB   C4A16832  14.170  23.930  37.190
  702BOLB   C1B16833  14.890  23.190  37.060
  702BOLB   C2B16834  14.510  23.230  37.190
  702BOLB   C3B16835  14.210  23.490  37.450
  702BOLB   C4B16836  13.750  23.390  37.270
  702BOLB   NC216837  12.790  25.730  37.500
  702BOLB   PO216838  12.770  25.520  37.940
  702BOLB   GL316839  13.180  25.460  37.680
  702BOLB   GL416840  13.330  25.690  37.490
  702BOLB   C1C16841  13.370  25.210  37.430
  702BOLB   C2C16842  13.470  24.790  37.430
  702BOLB   C3C16843  13.500  24.370  37.280
  702BOLB   C4C16844  13.790  24.020  37.260
  702BOLB   C1D16845  13.580  25.510  37.080
  702BOLB   C2D16846  13.610  25.330  36.710
  702BOLB   C3D16847  13.950  25.000  36.560
  702BOLB   C4D16848  14.240  24.930  36.380
  703BOLB   NC116849  19.510  12.820  23.600
  703BOLB   PO116850  19.450  12.450  23.890
  703BOLB   GL116851  19.290  12.230  23.440
  703BOLB   GL216852  19.440  12.400  23.240
  703BOLB   C1A16853  19.110  12.030  23.060
  703BOLB   C2A16854  19.080  11.780  22.650
  703BOLB   C3A16855  19.130  11.440  22.450
  703BOLB   C4A16856  18.920  11.260  22.070
  703BOLB   C1B16857  19.460  12.330  22.800
  703BOLB   C2B16858  19.250  12.430  22.440
  703BOLB   C3B16859  19.180  12.370  21.930
  703BOLB   C4B16860  18.920  12.070  21.910
  703BOLB   NC216861  16.490  11.070  21.110
  703BOLB   PO216862  16.870  10.840  20.880
  703BOLB   GL316863  17.250  10.960  20.950
  703BOLB   GL416864  17.240  11.200  20.630
  703BOLB   C1C16865  17.630  11.030  21.190
  703BOLB   C2C16866  17.990  11.150  21.400
  703BOLB   C3C16867  18.140  11.310  21.700
  703BOLB   C4C16868  18.530  11.230  21.890
  703BOLB   C1D16869  17.170  11.470  20.960
  703BOLB   C2D16870  17.350  11.430  21.420
  703BOLB   C3D16871  17.440  11.020  21.660
  703BOLB   C4D16872  17.770  11.020  21.980
  704BOLB   NC116873  26.755  14.780  25.220
  704BOLB   PO116874  27.065  14.870  24.960
  704BOLB   GL116875  27.355  15.050  24.620
  704BOLB   GL216876  27.755  14.890  24.820
  704BOLB   C1A16877  27.855  15.310  24.470
  704BOLB   C2A16878  28.315  15.440  24.360
  704BOLB   C3A16879  28.505  15.390  23.990
  704BOLB   C4A16880  28.835  15.380  23.720
  704BOLB   C1B16881  27.915  14.860  24.450
  704BOLB   C2B16882  28.185  15.000  24.200
  704BOLB   C3B16883  28.375  14.780  23.770
  704BOLB   C4B16884  28.245  14.390  23.650
  704BOLB   NC216885  30.435  16.490  22.780
  704BOLB   PO216886  30.735  16.320  23.060
  704BOLB   GL316887  30.415  16.070  23.120
  704BOLB   GL416888  30.585  15.770  22.990
  704BOLB   C1C16889  30.235  15.940  23.450
  704BOLB   C2C16890  29.925  15.900  23.630
  704BOLB   C3C16891  29.635  15.790  23.540
  704BOLB   C4C16892  29.255  15.520  23.730
  704BOLB   C1D16893  30.225  15.580  23.070
  704BOLB   C2D16894  29.925  15.240  23.250
  704BOLB   C3D16895  29.595  15.120  23.490
  704BOLB   C4D16896  29.675  14.810  23.820
  705BOLB   NC116897  22.450  22.180  39.560
  705BOLB   PO116898  22.840  21.990  39.830
  705BOLB   GL116899  23.090  22.320  39.920
  705BOLB   GL216900  23.120  22.410  40.160
  705BOLB   C1A16901  23.260  22.640  39.710
  705BOLB   C2A16902  23.630  22.800  39.590
  705BOLB   C3A16903  24.080  22.990  39.610
  705BOLB   C4A16904  24.230  23.430  39.600
  705BOLB   C1B16905  23.180  22.840  40.180
  705BOLB   C2B16906  23.340  23.230  40.440
  705BOLB   C3B16907  23.130  23.660  40.690
  705BOLB   C4B16908  23.000  23.730  41.070
  705BOLB   NC216909  25.380  25.600  40.330
  705BOLB   PO216910  25.370  25.730  39.970
  705BOLB   GL316911  25.310  25.310  39.820
  705BOLB   GL416912  25.240  25.080  40.090
  705BOLB   C1C16913  25.000  24.960  39.500
  705BOLB   C2C16914  24.900  24.590  39.650
  705BOLB   C3C16915  24.690  24.250  39.680
  705BOLB   C4C16916  24.410  23.880  39.640
  705BOLB   C1D16917  25.320  24.620  40.100
  705BOLB   C2D16918  25.430  24.440  39.740
  705BOLB   C3D16919  25.150  24.190  39.490
  705BOLB   C4D16920  25.140  23.870  39.080
  706BOLB   NC116921  18.100  13.780  39.760
  706BOLB   PO116922  17.650  13.800  39.860
  706BOLB   GL116923  17.440  13.690  40.080
  706BOLB   GL216924  17.350  13.850  40.440
  706BOLB   C1A16925  17.470  13.250  40.260
  706BOLB   C2A16926  17.250  12.970  40.540
  706BOLB   C3A16927  16.900  12.730  40.490
  706BOLB   C4A16928  16.530  12.670  40.480
  706BOLB   C1B16929  17.240  14.080  40.860
  706BOLB   C2B16930  17.110  14.130  41.280
  706BOLB   C3B16931  16.830  14.280  41.660
  706BOLB   C4B16932  16.820  14.670  41.960
  706BOLB   NC216933  14.310  12.140  41.580
  706BOLB   PO216934  14.500  11.740  41.280
  706BOLB   GL316935  14.880  11.640  41.230
  706BOLB   GL416936  14.930  11.630  40.980
  706BOLB   C1C16937  15.360  11.610  40.840
  706BOLB   C2C16938  15.730  11.820  40.930
  706BOLB   C3C16939  16.090  11.880  40.780
  706BOLB   C4C16940  16.430  12.330  40.690
  706BOLB   C1D16941  15.140  12.030  40.970
  706BOLB   C2D16942  15.560  12.260  41.110
  706BOLB   C3D16943  15.710  12.550  41.420
  706BOLB   C4D16944  15.950  12.590  41.780
  707BOLB   NC116945  25.470  19.640  39.710
  707BOLB   PO116946  25.830  19.470  40.050
  707BOLB   GL116947  26.000  19.860  40.030
  707BOLB   GL216948  25.780  20.030  39.900
  707BOLB   C1A16949  26.300  20.000  40.210
  707BOLB   C2A16950  26.745  20.120  40.210
  707BOLB   C3A16951  27.065  19.930  40.540
  707BOLB   C4A16952  27.435  20.180  40.720
  707BOLB   C1B16953  26.110  20.440  40.000
  707BOLB   C2B16954  26.565  20.680  40.030
  707BOLB   C3B16955  27.005  20.670  40.030
  707BOLB   C4B16956  27.495  20.660  39.880
  707BOLB   NC216957  29.565  21.150  41.750
  707BOLB   PO216958  29.515  21.400  41.280
  707BOLB   GL316959  29.075  21.060  41.200
  707BOLB   GL416960  28.775  21.280  41.260
  707BOLB   C1C16961  28.675  20.780  41.170
  707BOLB   C2C16962  28.265  20.570  41.070
  707BOLB   C3C16963  27.845  20.640  41.120
  707BOLB   C4C16964  27.535  20.520  41.030
  707BOLB   C1D16965  28.355  21.090  40.990
  707BOLB   C2D16966  28.035  20.970  40.750
  707BOLB   C3D16967  27.635  20.870  40.550
  707BOLB   C4D16968  27.255  20.690  40.450
  708BOLB   NC116969  19.740  20.240  21.970
  708BOLB   PO116970  19.400  20.050  21.820
  708BOLB   GL116971  19.610  20.350  21.490
  708BOLB   GL216972  19.650  20.150  21.310
  708BOLB   C1A16973  19.590  20.680  21.290
  708BOLB   C2A16974  19.650  20.930  20.840
  708BOLB   C3A16975  19.830  20.950  20.520
  708BOLB   C4A16976  19.670  20.920  20.130
  708BOLB   C1B16977  20.000  20.270  21.090
  708BOLB   C2B16978  20.040  20.590  20.890
  708BOLB   C3B16979  20.390  20.680  20.690
  708BOLB   C4B16980  20.840  20.370  20.510
  708BOLB   NC216981  18.790  20.980  17.410
  708BOLB   PO216982  18.760  20.730  17.750
  708BOLB   GL316983  18.870  20.890  18.140
  708BOLB   GL416984  19.130  20.710  18.370
  708BOLB   C1C16985  19.010  21.140  18.560
  708BOLB   C2C16986  19.200  21.160  19.010
  708BOLB   C3C16987  19.230  21.120  19.500
  708BOLB   C4C16988  19.350  20.960  19.810
  708BOLB   C1D16989  19.160  20.710  18.840
  708BOLB   C2D16990  19.190  20.510  19.260
  708BOLB   C3D16991  19.210  20.480  19.740
  708BOLB   C4D16992  19.570  20.510  19.890
  709BOLB   NC116993  27.635  16.870  32.860
  709BOLB   PO116994  28.135  16.740  32.790
  709BOLB   GL116995  28.495  16.760  32.670
  709BOLB   GL216996  28.525  16.950  32.300
  709BOLB   C1A16997  28.895  16.970  32.810
  709BOLB   C2A16998  29.045  17.380  32.530
  709BOLB   C3A16999  28.975  17.810  32.540
  709BOLB   C4A17000  29.245  18.200  32.670
  709BOLB   C1B17001  28.445  17.350  32.400
  709BOLB   C2B17002  28.425  17.750  32.440
  709BOLB   C3B17003  28.625  18.240  32.480
  709BOLB   C4B17004  28.795  18.390  32.850
  709BOLB   NC217005  31.495  19.560  32.450
  709BOLB   PO217006  31.015  19.410  32.500
  709BOLB   GL317007  30.685  19.100  32.490
  709BOLB   GL417008  30.445  19.250  32.330
  709BOLB   C1C17009  30.335  18.950  32.700
  709BOLB   C2C17010  30.005  18.960  33.060
  709BOLB   C3C17011  29.605  18.720  33.180
  709BOLB   C4C17012  29.315  18.530  32.970
  709BOLB   C1D17013  30.455  18.900  32.050
  709BOLB   C2D17014  30.275  18.490  31.880
  709BOLB   C3D17015  30.175  18.020  31.930
  709BOLB   C4D17016  30.185  17.580  32.100
  710BOLB   NC117017  23.310   7.600  35.040
  710BOLB   PO117018  23.560   7.540  34.750
  710BOLB   GL117019  23.690   7.130  34.750
  710BOLB   GL217020  23.330   7.040  34.960
  710BOLB   C1A17021  23.730   6.670  34.700
  710BOLB   C2A17022  23.590   6.180  34.710
  710BOLB   C3A17023  23.250   5.870  34.470
  710BOLB   C4A17024  23.010   5.630  34.160
  710BOLB   C1B17025  23.240   6.630  35.000
  710BOLB   C2B17026  22.980   6.270  35.160
  710BOLB   C3B17027  23.100   5.880  35.340
  710BOLB   C4B17028  23.310   5.570  35.330
  710BOLB   NC217029  22.410   3.580  34.160
  710BOLB   PO217030  22.230   3.610  33.690
  710BOLB   GL317031  22.310   3.930  33.840
  710BOLB   GL417032  22.420   4.100  34.020
  710BOLB   C1C17033  22.540   4.280  33.570
  710BOLB   C2C17034  22.520   4.700  33.350
  710BOLB   C3C17035  22.600   5.150  33.530
  710BOLB   C4C17036  22.780   5.420  33.760
  710BOLB   C1D17037  22.090   4.420  33.850
  710BOLB   C2D17038  22.010   4.520  33.380
  710BOLB   C3D17039  22.210   4.560  32.980
  710BOLB   C4D17040  22.550   4.740  32.710
  711BOLB   NC117041  23.800  15.170  42.520
  711BOLB   PO117042  24.220  15.100  42.820
  711BOLB   GL117043  24.330  15.020  43.310
  711BOLB   GL217044  24.630  14.980  43.450
  711BOLB   C1A17045  24.240  15.230  43.750
  711BOLB   C2A17046  24.450  15.310  44.130
  711BOLB   C3A17047  24.480  15.160  44.570
  711BOLB   C4A17048  24.600  15.120  44.990
  711BOLB   C1B17049  24.480  14.780  43.790
  711BOLB   C2B17050  24.440  14.760  44.290
  711BOLB   C3B17051  24.650  14.690  44.690
  711BOLB   C4B17052  24.980  14.540  45.090
  711BOLB   NC217053  26.230  13.770  46.570
  711BOLB   PO217054  26.060  14.130  46.720
  711BOLB   GL317055  25.960  14.170  46.310
  711BOLB   GL417056  26.170  14.470  46.220
  711BOLB   C1C17057  25.710  14.200  46.010
  711BOLB   C2C17058  25.510  14.410  45.760
  711BOLB   C3C17059  25.180  14.570  45.550
  711BOLB   C4C17060  24.850  14.840  45.420
  711BOLB   C1D17061  25.980  14.630  45.910
  711BOLB   C2D17062  26.150  14.900  45.550
  711BOLB   C3D17063  25.870  15.050  45.110
  711BOLB   C4D17064  25.870  15.060  44.700
  712BOLB   NC117065  28.785  15.950  35.180
  712BOLB   PO117066  28.665  16.160  34.780
  712BOLB   GL117067  29.035  15.980  34.730
  712BOLB   GL217068  29.335  15.870  34.690
  712BOLB   C1A17069  29.415  16.460  34.660
  712BOLB   C2A17070  29.705  16.690  34.460
  712BOLB   C3A17071  30.125  16.860  34.460
  712BOLB   C4A17072  30.305  17.140  34.680
  712BOLB   C1B17073  29.625  15.990  34.440
  712BOLB   C2B17074  29.895  16.250  34.440
  712BOLB   C3B17075  30.045  16.440  34.730
  712BOLB   C4B17076  30.365  16.590  35.030
  712BOLB   NC217077  32.405  18.620  34.390
  712BOLB   PO217078  32.195  18.350  34.750
  712BOLB   GL317079  31.975  17.970  34.620
  712BOLB   GL417080  31.905  17.920  34.330
  712BOLB   C1C17081  31.605  17.980  34.710
  712BOLB   C2C17082  31.255  17.840  34.640
  712BOLB   C3C17083  30.865  17.850  34.600
  712BOLB   C4C17084  30.495  17.540  34.640
  712BOLB   C1D17085  31.685  17.600  34.370
  712BOLB   C2D17086  31.415  17.360  34.570
  712BOLB   C3D17087  31.035  17.160  34.820
  712BOLB   C4D17088  30.795  16.860  34.980
  713BOLB   NC117089  20.300  20.980  41.370
  713BOLB   PO117090  20.470  21.340  41.610
  713BOLB   GL117091  20.310  21.810  41.640
  713BOLB   GL217092  20.520  22.000  41.630
  713BOLB   C1A17093  19.850  21.940  41.940
  713BOLB   C2A17094  19.550  21.900  42.190
  713BOLB   C3A17095  19.280  22.100  42.550
  713BOLB   C4A17096  19.110  22.320  42.860
  713BOLB   C1B17097  20.850  22.280  41.850
  713BOLB   C2B17098  20.900  22.630  41.670
  713BOLB   C3B17099  20.890  23.020  41.650
  713BOLB   C4B17100  20.870  23.500  41.520
  713BOLB   NC217101  17.900  23.090  44.720
  713BOLB   PO217102  18.250  22.820  44.850
  713BOLB   GL317103  18.000  22.610  44.530
  713BOLB   GL417104  17.780  22.450  44.770
  713BOLB   C1C17105  17.980  22.610  44.090
  713BOLB   C2C17106  18.120  22.410  43.640
  713BOLB   C3C17107  18.460  22.340  43.420
  713BOLB   C4C17108  18.810  22.230  43.140
  713BOLB   C1D17109  17.670  22.020  44.530
  713BOLB   C2D17110  17.770  21.790  44.240
  713BOLB   C3D17111  17.960  21.490  43.850
  713BOLB   C4D17112  18.150  21.240  43.690
  714BOLB   NC117113  16.190  21.750  38.930
  714BOLB   PO117114  16.410  21.540  39.190
  714BOLB   GL117115  16.150  21.460  39.550
  714BOLB   GL217116  16.260  21.140  39.560
  714BOLB   C1A17117  15.850  21.580  39.800
  714BOLB   C2A17118  15.880  21.870  40.280
  714BOLB   C3A17119  15.510  21.830  40.610
  714BOLB   C4A17120  14.990  21.830  40.660
  714BOLB   C1B17121  15.930  21.090  39.820
  714BOLB   C2B17122  15.580  21.240  40.070
  714BOLB   C3B17123  15.340  21.650  40.160
  714BOLB   C4B17124  14.920  21.730  40.150
  714BOLB   NC217125  12.610  21.090  40.850
  714BOLB   PO217126  12.760  21.350  41.150
  714BOLB   GL317127  13.020  21.300  40.800
  714BOLB   GL417128  13.180  20.980  40.880
  714BOLB   C1C17129  13.410  21.290  40.590
  714BOLB   C2C17130  13.720  21.630  40.440
  714BOLB   C3C17131  14.060  21.690  40.440
  714BOLB   C4C17132  14.500  21.830  40.530
  714BOLB   C1D17133  13.610  20.770  40.590
  714BOLB   C2D17134  13.970  20.400  40.360
  714BOLB   C3D17135  14.130  20.010  40.200
  714BOLB   C4D17136  14.620  20.000  40.100
  715BOLB   NC117137  18.030  11.460  30.950
  715BOLB   PO117138  18.210  11.130  31.180
  715BOLB   GL117139  17.800  11.000  31.000
  715BOLB   GL217140  17.660  11.090  30.590
  715BOLB   C1A17141  17.510  10.570  31.140
  715BOLB   C2A17142  17.220  10.260  31.270
  715BOLB   C3A17143  16.860   9.960  31.220
  715BOLB   C4A17144  16.520   9.620  31.250
  715BOLB   C1B17145  17.240  10.790  30.660
  715BOLB   C2B17146  16.910  10.600  30.850
  715BOLB   C3B17147  16.580  10.460  30.760
  715BOLB   C4B17148  16.110  10.510  30.730
  715BOLB   NC217149  15.030   8.000  30.090
  715BOLB   PO217150  15.540   8.000  29.980
  715BOLB   GL317151  15.950   8.140  30.030
  715BOLB   GL417152  16.270   7.930  29.880
  715BOLB   C1C17153  16.250   8.300  30.390
  715BOLB   C2C17154  16.310   8.750  30.560
  715BOLB   C3C17155  16.080   9.090  30.730
  715BOLB   C4C17156  16.120   9.340  31.160
  715BOLB   C1D17157  16.590   8.300  30.050
  715BOLB   C2D17158  17.000   8.490  30.030
  715BOLB   C3D17159  17.310   8.920  30.210
  715BOLB   C4D17160  17.350   9.370  30.300
  716BOLB   NC117161  18.380  16.720  17.510
  716BOLB   PO117162  18.700  16.690  17.780
  716BOLB   GL117163  18.890  16.840  18.070
  716BOLB   GL217164  18.780  17.110  18.310
  716BOLB   C1A17165  19.270  16.880  18.410
  716BOLB   C2A17166  19.320  17.330  18.470
  716BOLB   C3A17167  19.230  17.460  18.890
  716BOLB   C4A17168  18.940  17.670  19.190
  716BOLB   C1B17169  18.950  17.090  18.700
  716BOLB   C2B17170  18.870  17.190  19.110
  716BOLB   C3B17171  19.040  17.120  19.520
  716BOLB   C4B17172  18.970  17.180  19.960
  716BOLB   NC217173  17.790  18.840  17.550
  716BOLB   PO217174  17.770  18.400  17.430
  716BOLB   GL317175  17.690  18.300  17.800
  716BOLB   GL417176  17.780  18.580  18.140
  716BOLB   C1C17177  18.110  18.090  18.040
  716BOLB   C2C17178  18.460  18.190  18.190
  716BOLB   C3C17179  18.620  18.230  18.620
  716BOLB   C4C17180  18.690  18.010  19.040
  716BOLB   C1D17181  18.030  18.400  18.450
  716BOLB   C2D17182  18.290  18.470  18.850
  716BOLB   C3D17183  18.310  18.440  19.320
  716BOLB   C4D17184  18.580  18.550  19.560
  717BOLB   NC117185  19.590   9.470  31.190
  717BOLB   PO117186  19.400   9.740  30.850
  717BOLB   GL117187  19.360   9.280  30.800
  717BOLB   GL217188  19.250   9.000  31.120
  717BOLB   C1A17189  19.090   8.840  30.650
  717BOLB   C2A17190  19.010   8.470  30.540
  717BOLB   C3A17191  18.700   8.230  30.250
  717BOLB   C4A17192  18.560   7.890  29.980
  717BOLB   C1B17193  19.390   8.600  31.090
  717BOLB   C2B17194  19.760   8.280  31.040
  717BOLB   C3B17195  19.710   7.860  30.920
  717BOLB   C4B17196  19.510   7.500  30.800
  717BOLB   NC217197  17.630   6.060  30.030
  717BOLB   PO217198  17.430   6.280  29.700
  717BOLB   GL317199  17.760   6.510  29.920
  717BOLB   GL417200  18.000   6.370  29.880
  717BOLB   C1C17201  17.850   6.940  30.080
  717BOLB   C2C17202  17.810   7.370  29.970
  717BOLB   C3C17203  17.940   7.530  29.640
  717BOLB   C4C17204  18.240   7.800  29.710
  717BOLB   C1D17205  18.230   6.790  29.730
  717BOLB   C2D17206  18.280   7.180  29.870
  717BOLB   C3D17207  18.660   7.470  29.760
  717BOLB   C4D17208  18.940   7.540  29.950
  718BOLB   NC117209  25.600   8.560  26.160
  718BOLB   PO117210  25.860   8.600  26.420
  718BOLB   GL117211  25.890   8.160  26.240
  718BOLB   GL217212  25.770   8.130  25.900
  718BOLB   C1A17213  26.050   7.740  26.100
  718BOLB   C2A17214  26.340   7.470  26.010
  718BOLB   C3A17215  26.555   7.220  25.830
  718BOLB   C4A17216  26.955   7.230  25.440
  718BOLB   C1B17217  25.550   7.770  25.580
  718BOLB   C2B17218  25.700   7.460  25.280
  718BOLB   C3B17219  25.830   7.500  24.850
  718BOLB   C4B17220  26.040   7.750  24.590
  718BOLB   NC217221  27.625   5.320  25.370
  718BOLB   PO217222  27.845   5.570  25.060
  718BOLB   GL317223  27.545   5.790  25.170
  718BOLB   GL417224  27.265   5.720  24.910
  718BOLB   C1C17225  27.465   6.200  25.210
  718BOLB   C2C17226  27.515   6.460  24.930
  718BOLB   C3C17227  27.395   6.870  25.040
  718BOLB   C4C17228  27.155   7.080  25.150
  718BOLB   C1D17229  26.885   5.860  25.150
  718BOLB   C2D17230  26.735   6.140  25.480
  718BOLB   C3D17231  26.785   6.410  25.930
  718BOLB   C4D17232  26.525   6.700  26.170
  719BOLB   NC117233  28.795  10.080  35.770
  719BOLB   PO117234  28.935  10.110  35.300
  719BOLB   GL117235  29.225   9.770  35.420
  719BOLB   GL217236  29.425   9.750  35.760
  719BOLB   C1A17237  29.535   9.480  35.320
  719BOLB   C2A17238  29.845   9.350  35.390
  719BOLB   C3A17239  30.185   9.150  35.530
  719BOLB   C4A17240  30.555   9.290  35.720
  719BOLB   C1B17241  29.725   9.540  35.830
  719BOLB   C2B17242  30.145   9.500  35.840
  719BOLB   C3B17243  30.475   9.820  35.700
  719BOLB   C4B17244  30.895   9.850  35.480
  719BOLB   NC217245  32.675   8.510  35.670
  719BOLB   PO217246  32.815   8.240  35.450
  719BOLB   GL317247  32.455   8.420  35.210
  719BOLB   GL417248  32.135   8.290  35.210
  719BOLB   C1C17249  32.235   8.810  35.310
  719BOLB   C2C17250  31.865   9.070  35.440
  719BOLB   C3C17251  31.465   9.330  35.430
  719BOLB   C4C17252  31.035   9.420  35.660
  719BOLB   C1D17253  31.795   8.570  35.410
  719BOLB   C2D17254  31.505   8.780  35.590
  719BOLB   C3D17255  31.045   8.830  35.630
  719BOLB   C4D17256  30.705   8.890  35.460
  720BOLB   NC117257  21.090  23.610  33.300
  720BOLB   PO117258  20.890  23.730  32.960
  720BOLB   GL117259  20.970  24.150  33.230
  720BOLB   GL217260  21.180  24.130  33.450
  720BOLB   C1A17261  20.800  24.550  33.270
  720BOLB   C2A17262  20.800  25.060  33.140
  720BOLB   C3A17263  21.070  25.340  32.910
  720BOLB   C4A17264  21.240  25.760  32.960
  720BOLB   C1B17265  21.310  24.480  33.220
  720BOLB   C2B17266  21.580  24.860  33.340
  720BOLB   C3B17267  21.410  25.270  33.260
  720BOLB   C4B17268  21.080  25.630  33.390
  720BOLB   NC217269  22.640   1.470  32.700
  720BOLB   PO217270  22.340   1.280  32.720
  720BOLB   GL317271  21.880   1.110  32.860
  720BOLB   GL417272  21.640   1.010  32.630
  720BOLB   C1C17273  21.790   0.640  32.980
  720BOLB   C2C17274  21.730   0.140  33.040
  720BOLB   C3C17275  21.470  26.340  33.270
  720BOLB   C4C17276  21.080  26.040  33.160
  720BOLB   C1D17277  21.450   0.630  32.610
  720BOLB   C2D17278  21.640   0.130  32.570
  720BOLB   C3D17279  21.330  26.300  32.680
  720BOLB   C4D17280  20.880  26.380  32.680
  721BOLB   NC117281  29.285  12.550  28.570
  721BOLB   PO117282  29.245  12.080  28.850
  721BOLB   GL117283  29.545  11.900  28.650
  721BOLB   GL217284  29.765  11.570  28.560
  721BOLB   C1A17285  29.975  12.040  28.490
  721BOLB   C2A17286  30.175  12.210  28.700
  721BOLB   C3A17287  30.375  12.560  28.590
  721BOLB   C4A17288  30.745  12.690  28.670
  721BOLB   C1B17289  29.835  11.170  28.440
  721BOLB   C2B17290  29.665  10.860  28.180
  721BOLB   C3B17291  29.835  10.650  27.810
  721BOLB   C4B17292  30.115  10.600  27.470
  721BOLB   NC217293  32.775  13.590  27.610
  721BOLB   PO217294  32.685  13.390  27.220
  721BOLB   GL317295  32.325  13.520  27.340
  721BOLB   GL417296  32.195  13.700  27.330
  721BOLB   C1C17297  31.915  13.310  27.650
  721BOLB   C2C17298  31.365  13.270  27.690
  721BOLB   C3C17299  31.025  13.040  27.930
  721BOLB   C4C17300  30.985  12.870  28.320
  721BOLB   C1D17301  31.795  13.710  27.290
  721BOLB   C2D17302  31.555  13.730  27.570
  721BOLB   C3D17303  31.475  13.690  28.080
  721BOLB   C4D17304  31.515  13.380  28.460
  722BOLB   NC117305  15.370  15.390  30.540
  722BOLB   PO117306  15.140  15.000  30.410
  722BOLB   GL117307  14.690  14.800  30.380
  722BOLB   GL217308  14.740  14.670  30.040
  722BOLB   C1A17309  14.350  14.550  30.300
  722BOLB   C2A17310  14.040  14.230  30.360
  722BOLB   C3A17311  13.930  13.790  30.300
  722BOLB   C4A17312  13.610  13.680  30.450
  722BOLB   C1B17313  14.460  14.530  29.710
  722BOLB   C2B17314  14.430  14.590  29.270
  722BOLB   C3B17315  14.250  15.010  29.050
  722BOLB   C4B17316  13.990  15.400  29.140
  722BOLB   NC217317  11.570  13.630  29.550
  722BOLB   PO217318  11.500  13.180  29.700
  722BOLB   GL317319  11.980  13.210  29.730
  722BOLB   GL417320  12.020  13.450  29.460
  722BOLB   C1C17321  12.460  13.460  29.700
  722BOLB   C2C17322  12.850  13.500  29.700
  722BOLB   C3C17323  13.190  13.820  29.780
  722BOLB   C4C17324  13.450  13.560  30.000
  722BOLB   C1D17325  12.240  13.760  29.360
  722BOLB   C2D17326  12.620  13.900  29.430
  722BOLB   C3D17327  12.960  14.010  29.410
  722BOLB   C4D17328  13.330  13.880  29.150
  723BOLB   NC117329  20.160   8.980  33.770
  723BOLB   PO117330  20.390   8.800  33.370
  723BOLB   GL117331  20.050   8.550  33.370
  723BOLB   GL217332  19.810   8.870  33.410
  723BOLB   C1A17333  19.840   8.120  33.230
  723BOLB   C2A17334  19.780   7.660  33.240
  723BOLB   C3A17335  19.760   7.280  33.170
  723BOLB   C4A17336  20.050   7.050  33.280
  723BOLB   C1B17337  19.560   8.460  33.460
  723BOLB   C2B17338  19.240   8.110  33.460
  723BOLB   C3B17339  19.220   7.690  33.500
  723BOLB   C4B17340  18.970   7.380  33.510
  723BOLB   NC217341  19.250   5.060  33.800
  723BOLB   PO217342  19.600   4.830  34.010
  723BOLB   GL317343  19.750   5.270  34.120
  723BOLB   GL417344  19.540   5.550  34.130
  723BOLB   C1C17345  20.040   5.570  33.920
  723BOLB   C2C17346  20.280   5.910  33.670
  723BOLB   C3C17347  20.070   6.310  33.380
  723BOLB   C4C17348  20.070   6.650  33.470
  723BOLB   C1D17349  19.290   5.980  34.170
  723BOLB   C2D17350  19.480   6.340  34.270
  723BOLB   C3D17351  19.630   6.700  34.520
  723BOLB   C4D17352  19.540   7.150  34.600
  724BOLB   NC117353  18.350  14.220  39.830
  724BOLB   PO117354  18.540  13.790  39.950
  724BOLB   GL117355  18.300  13.530  40.320
  724BOLB   GL217356  18.000  13.500  40.120
  724BOLB   C1A17357  18.230  13.390  40.790
  724BOLB   C2A17358  17.850  13.300  41.130
  724BOLB   C3A17359  17.400  13.260  41.240
  724BOLB   C4A17360  17.130  12.930  41.470
  724BOLB   C1B17361  17.940  13.090  40.310
  724BOLB   C2B17362  17.780  12.940  40.690
  724BOLB   C3B17363  17.430  12.860  41.010
  724BOLB   C4B17364  17.030  12.640  41.080
  724BOLB   NC217365  15.960  11.180  43.670
  724BOLB   PO217366  16.030  11.550  43.190
  724BOLB   GL317367  16.390  11.870  43.140
  724BOLB   GL417368  16.390  12.210  43.260
  724BOLB   C1C17369  16.750  11.970  42.860
  724BOLB   C2C17370  16.980  12.210  42.660
  724BOLB   C3C17371  16.790  12.470  42.310
  724BOLB   C4C17372  16.930  12.590  41.810
  724BOLB   C1D17373  16.880  12.370  43.240
  724BOLB   C2D17374  16.920  12.590  42.960
  724BOLB   C3D17375  17.200  12.800  42.670
  724BOLB   C4D17376  17.480  12.960  42.430
  725BOLB   NC117377  21.520  14.630  21.330
  725BOLB   PO117378  21.790  14.310  21.010
  725BOLB   GL117379  21.640  14.210  20.600
  725BOLB   GL217380  21.310  14.200  20.500
  725BOLB   C1A17381  21.700  14.030  20.230
  725BOLB   C2A17382  22.040  13.860  19.970
  725BOLB   C3A17383  21.980  13.980  19.450
  725BOLB   C4A17384  21.580  13.930  19.330
  725BOLB   C1B17385  21.110  14.000  20.180
  725BOLB   C2B17386  21.210  13.550  19.980
  725BOLB   C3B17387  21.350  13.220  19.830
  725BOLB   C4B17388  21.650  12.940  19.600
  725BOLB   NC217389  19.620  12.670  18.440
  725BOLB   PO217390  19.980  12.800  18.070
  725BOLB   GL317391  20.310  12.560  18.270
  725BOLB   GL417392  20.160  12.820  18.540
  725BOLB   C1C17393  20.670  12.800  18.460
  725BOLB   C2C17394  20.880  12.870  18.820
  725BOLB   C3C17395  20.930  13.240  19.240
  725BOLB   C4C17396  21.290  13.610  19.410
  725BOLB   C1D17397  20.360  12.670  18.950
  725BOLB   C2D17398  20.570  12.860  19.390
  725BOLB   C3D17399  20.600  12.630  19.880
  725BOLB   C4D17400  20.470  12.710  20.390
  726BOLB   NC117401  18.280  19.510  21.360
  726BOLB   PO117402  18.620  19.820  21.320
  726BOLB   GL117403  18.630  20.270  21.010
  726BOLB   GL217404  18.600  20.620  21.110
  726BOLB   C1A17405  18.850  20.370  20.640
  726BOLB   C2A17406  18.680  20.510  20.350
  726BOLB   C3A17407  18.300  20.900  20.260
  726BOLB   C4A17408  18.130  21.240  20.210
  726BOLB   C1B17409  18.490  20.750  20.730
  726BOLB   C2B17410  18.380  21.180  20.670
  726BOLB   C3B17411  18.260  21.460  20.800
  726BOLB   C4B17412  18.420  21.840  20.870
  726BOLB   NC217413  17.900  23.130  18.740
  726BOLB   PO217414  18.250  22.810  18.590
  726BOLB   GL317415  18.120  22.560  18.950
  726BOLB   GL417416  18.080  22.250  18.840
  726BOLB   C1C17417  17.910  22.320  19.290
  726BOLB   C2C17418  17.820  21.900  19.420
  726BOLB   C3C17419  18.040  21.600  19.660
  726BOLB   C4C17420  18.020  21.460  19.910
  726BOLB   C1D17421  18.380  22.190  19.220
  726BOLB   C2D17422  18.400  22.290  19.670
  726BOLB   C3D17423  18.390  22.290  20.180
  726BOLB   C4D17424  18.540  22.140  20.450
  727BOLB   NC117425  19.380   9.950  33.760
  727BOLB   PO117426  19.140  10.020  33.370
  727BOLB   GL117427  19.020   9.550  33.630
  727BOLB   GL217428  19.250   9.240  33.650
  727BOLB   C1A17429  18.700   9.230  33.790
  727BOLB   C2A17430  18.610   8.890  34.080
  727BOLB   C3A17431  18.500   8.510  34.180
  727BOLB   C4A17432  18.350   8.140  34.040
  727BOLB   C1B17433  19.100   8.850  33.620
  727BOLB   C2B17434  18.920   8.580  33.770
  727BOLB   C3B17435  18.710   8.200  33.710
  727BOLB   C4B17436  18.680   7.810  33.660
  727BOLB   NC217437  16.210   7.410  32.670
  727BOLB   PO217438  16.530   7.180  32.810
  727BOLB   GL317439  16.920   7.290  33.010
  727BOLB   GL417440  17.030   7.380  32.700
  727BOLB   C1C17441  17.300   7.420  33.270
  727BOLB   C2C17442  17.610   7.740  33.160
  727BOLB   C3C17443  18.010   7.870  33.250
  727BOLB   C4C17444  18.210   8.090  33.620
  727BOLB   C1D17445  17.160   7.760  32.910
  727BOLB   C2D17446  17.430   8.140  32.910
  727BOLB   C3D17447  17.630   8.410  32.650
  727BOLB   C4D17448  17.660   8.750  32.370
  728BOLB   NC117449  25.330  13.830  42.240
  728BOLB   PO117450  25.130  13.790  42.700
  728BOLB   GL117451  25.090  14.060  42.990
  728BOLB   GL217452  24.890  13.770  43.180
  728BOLB   C1A17453  25.320  14.120  43.360
  728BOLB   C2A17454  25.580  14.100  43.650
  728BOLB   C3A17455  25.930  14.070  43.780
  728BOLB   C4A17456  25.910  14.170  44.170
  728BOLB   C1B17457  25.110  13.690  43.430
  728BOLB   C2B17458  25.190  13.180  43.420
  728BOLB   C3B17459  25.250  12.810  43.470
  728BOLB   C4B17460  25.460  12.470  43.460
  728BOLB   NC217461  27.545  12.860  45.730
  728BOLB   PO217462  27.175  12.990  45.870
  728BOLB   GL317463  26.865  13.290  45.730
  728BOLB   GL417464  27.025  13.410  45.450
  728BOLB   C1C17465  26.505  13.320  45.550
  728BOLB   C2C17466  26.475  13.670  45.290
  728BOLB   C3C17467  26.350  13.740  44.870
  728BOLB   C4C17468  26.060  13.870  44.550
  728BOLB   C1D17469  27.225  13.610  45.130
  728BOLB   C2D17470  27.405  13.880  44.830
  728BOLB   C3D17471  27.395  14.220  44.610
  728BOLB   C4D17472  27.525  14.520  44.370
  729BOLB   NC117473  24.510  10.170  45.710
  729BOLB   PO117474  24.720  10.250  45.290
  729BOLB   GL117475  24.820  10.450  44.850
  729BOLB   GL217476  24.490  10.590  44.880
  729BOLB   C1A17477  24.940  10.770  44.480
  729BOLB   C2A17478  24.790  11.100  44.250
  729BOLB   C3A17479  24.620  11.550  44.210
  729BOLB   C4A17480  24.840  11.890  43.950
  729BOLB   C1B17481  24.520  10.520  44.440
  729BOLB   C2B17482  24.470  10.750  44.040
  729BOLB   C3B17483  24.240  10.880  43.740
  729BOLB   C4B17484  23.890  11.120  43.470
  729BOLB   NC217485  24.670  10.800  45.290
  729BOLB   PO217486  24.940  11.120  45.390
  729BOLB   GL317487  24.750  11.310  45.100
  729BOLB   GL417488  24.480  11.120  44.980
  729BOLB   C1C17489  24.780  11.660  45.090
  729BOLB   C2C17490  24.870  12.160  44.970
  729BOLB   C3C17491  25.260  12.310  44.660
  729BOLB   C4C17492  25.070  12.090  44.230
  729BOLB   C1D17493  24.380  11.000  44.520
  729BOLB   C2D17494  24.130  11.180  44.210
  729BOLB   C3D17495  24.380  11.310  43.890
  729BOLB   C4D17496  24.370  11.260  43.480
  730BOLB   NC117497  22.410  18.140  43.560
  730BOLB   PO117498  22.030  18.330  43.730
  730BOLB   GL117499  21.540  18.520  43.910
  730BOLB   GL217500  21.740  18.380  44.150
  730BOLB   C1A17501  21.240  18.470  44.350
  730BOLB   C2A17502  21.240  18.490  44.830
  730BOLB   C3A17503  21.270  18.490  45.250
  730BOLB   C4A17504  21.540  18.420  45.680
  730BOLB   C1B17505  21.930  18.060  44.370
  730BOLB   C2B17506  22.030  17.910  44.820
  730BOLB   C3B17507  22.360  17.900  45.040
  730BOLB   C4B17508  22.640  18.130  45.400
  730BOLB   NC217509  22.010  19.840  48.000
  730BOLB   PO217510  21.990  19.630  47.620
  730BOLB   GL317511  22.020  19.570  47.100
  730BOLB   GL417512  22.310  19.600  47.040
  730BOLB   C1C17513  21.960  19.320  46.790
  730BOLB   C2C17514  21.950  18.980  46.480
  730BOLB   C3C17515  22.070  18.640  46.240
  730BOLB   C4C17516  21.830  18.470  45.830
  730BOLB   C1D17517  22.520  19.370  46.790
  730BOLB   C2D17518  22.680  19.370  46.360
  730BOLB   C3D17519  22.880  19.490  46.030
  730BOLB   C4D17520  23.140  19.240  45.710
  731BOLB   NC117521  18.160   2.440  36.530
  731BOLB   PO117522  17.730   2.160  36.490
  731BOLB   GL117523  17.630   1.820  36.210
  731BOLB   GL217524  17.240   1.840  36.120
  731BOLB   C1A17525  18.030   1.570  36.150
  731BOLB   C2A17526  18.230   1.280  35.950
  731BOLB   C3A17527  18.460   1.000  35.980
  731BOLB   C4A17528  18.740   0.580  36.100
  731BOLB   C1B17529  17.360   1.530  35.840
  731BOLB   C2B17530  17.770   1.280  35.690
  731BOLB   C3B17531  18.020   0.900  35.660
  731BOLB   C4B17532  18.060   0.430  35.530
  731BOLB   NC217533  19.320   2.720  35.130
  731BOLB   PO217534  19.560   2.350  35.090
  731BOLB   GL317535  19.410   1.930  35.230
  731BOLB   GL417536  19.630   2.010  35.570
  731BOLB   C1C17537  19.350   1.470  35.180
  731BOLB   C2C17538  19.120   1.060  35.330
  731BOLB   C3C17539  18.940   0.640  35.370
  731BOLB   C4C17540  18.940   0.360  35.790
  731BOLB   C1D17541  19.410   1.580  35.650
  731BOLB   C2D17542  19.220   1.230  35.860
  731BOLB   C3D17543  18.910   0.920  35.790
  731BOLB   C4D17544  18.530   0.710  35.630
  732BOLB   NC117545  20.930   9.640  27.490
  732BOLB   PO117546  21.290   9.450  27.850
  732BOLB   GL117547  21.180   8.960  27.870
  732BOLB   GL217548  20.860   8.790  28.090
  732BOLB   C1A17549  21.110   8.680  27.540
  732BOLB   C2A17550  20.890   8.450  27.140
  732BOLB   C3A17551  20.930   8.030  27.030
  732BOLB   C4A17552  20.890   7.520  26.990
  732BOLB   C1B17553  20.660   8.300  28.180
  732BOLB   C2B17554  20.380   8.110  27.940
  732BOLB   C3B17555  20.290   7.940  27.540
  732BOLB   C4B17556  20.400   7.520  27.430
  732BOLB   NC217557  20.520   4.840  27.480
  732BOLB   PO217558  20.500   5.220  27.350
  732BOLB   GL317559  20.580   5.600  27.160
  732BOLB   GL417560  20.770   5.610  26.920
  732BOLB   C1C17561  20.620   6.040  27.210
  732BOLB   C2C17562  20.640   6.480  27.060
  732BOLB   C3C17563  20.460   6.980  27.040
  732BOLB   C4C17564  20.560   7.360  26.900
  732BOLB   C1D17565  20.920   6.060  26.830
  732BOLB   C2D17566  21.120   6.490  26.840
  732BOLB   C3D17567  21.390   6.750  27.180
  732BOLB   C4D17568  21.280   7.160  27.340
  733BOLB   NC117569  15.450  21.940  44.010
  733BOLB   PO117570  15.670  21.590  44.310
  733BOLB   GL117571  15.780  21.500  43.880
  733BOLB   GL217572  15.810  21.200  43.720
  733BOLB   C1A17573  16.030  21.600  43.550
  733BOLB   C2A17574  16.240  21.460  43.150
  733BOLB   C3A17575  16.460  21.090  43.000
  733BOLB   C4A17576  16.870  21.150  42.770
  733BOLB   C1B17577  16.090  21.020  43.480
  733BOLB   C2B17578  15.900  21.040  43.040
  733BOLB   C3B17579  16.080  21.230  42.670
  733BOLB   C4B17580  16.240  21.370  42.190
  733BOLB   NC217581  18.160  20.200  41.130
  733BOLB   PO217582  18.470  20.540  41.160
  733BOLB   GL317583  18.350  20.650  41.530
  733BOLB   GL417584  18.020  20.470  41.540
  733BOLB   C1C17585  18.110  20.710  42.000
  733BOLB   C2C17586  17.620  20.570  42.020
  733BOLB   C3C17587  17.400  20.670  42.380
  733BOLB   C4C17588  17.150  20.880  42.670
  733BOLB   C1D17589  17.890  20.890  41.540
  733BOLB   C2D17590  17.520  21.040  41.820
  733BOLB   C3D17591  17.750  20.990  42.260
  733BOLB   C4D17592  17.590  21.220  42.590
  734BOLB   NC117593  26.645   9.480  37.650
  734BOLB   PO117594  27.015   9.440  37.860
  734BOLB   GL117595  27.185   9.070  38.040
  734BOLB   GL217596  27.195   8.850  37.850
  734BOLB   C1A17597  27.515   8.900  38.290
  734BOLB   C2A17598  27.515   8.730  38.640
  734BOLB   C3A17599  27.765   8.470  38.910
  734BOLB   C4A17600  27.925   8.030  39.050
  734BOLB   C1B17601  27.355   8.450  38.020
  734BOLB   C2B17602  27.465   8.060  38.150
  734BOLB   C3B17603  27.545   7.620  38.200
  734BOLB   C4B17604  27.255   7.240  38.220
  734BOLB   NC217605  28.835   6.420  40.680
  734BOLB   PO217606  28.735   6.660  41.050
  734BOLB   GL317607  28.455   6.770  40.630
  734BOLB   GL417608  28.315   6.590  40.550
  734BOLB   C1C17609  28.405   7.100  40.380
  734BOLB   C2C17610  28.165   7.300  40.010
  734BOLB   C3C17611  28.025   7.370  39.540
  734BOLB   C4C17612  28.065   7.620  39.120
  734BOLB   C1D17613  28.025   7.050  40.710
  734BOLB   C2D17614  28.125   7.550  40.510
  734BOLB   C3D17615  28.065   7.960  40.520
  734BOLB   C4D17616  27.975   8.270  40.300
  735BOLB   NC117617  13.740  18.450  28.080
  735BOLB   PO117618  13.810  18.500  27.720
  735BOLB   GL117619  13.420  18.530  27.500
  735BOLB   GL217620  13.200  18.650  27.290
  735BOLB   C1A17621  12.990  18.420  27.700
  735BOLB   C2A17622  12.500  18.330  27.750
  735BOLB   C3A17623  12.080  18.260  27.890
  735BOLB   C4A17624  11.640  18.230  28.090
  735BOLB   C1B17625  12.920  18.590  26.900
  735BOLB   C2B17626  12.610  18.730  26.600
  735BOLB   C3B17627  12.330  18.570  26.270
  735BOLB   C4B17628  12.070  18.370  26.020
  735BOLB   NC217629   9.330  18.330  28.320
  735BOLB   PO217630   9.410  17.920  28.580
  735BOLB   GL317631   9.870  17.890  28.450
  735BOLB   GL417632  10.160  18.090  28.420
  735BOLB   C1C17633  10.290  17.640  28.450
  735BOLB   C2C17634  10.660  17.820  28.530
  735BOLB   C3C17635  10.930  18.030  28.260
  735BOLB   C4C17636  11.250  18.100  28.170
  735BOLB   C1D17637  10.460  17.950  28.080
  735BOLB   C2D17638  10.700  17.950  27.850
  735BOLB   C3D17639  10.780  18.300  27.800
  735BOLB   C4D17640  10.860  18.660  27.570
  736BOLB   NC117641  25.190   8.110  27.440
  736BOLB   PO117642  25.650   8.090  27.720
  736BOLB   GL117643  25.500   7.720  27.380
  736BOLB   GL217644  25.250   7.550  27.140
  736BOLB   C1A17645  25.710   7.330  27.500
  736BOLB   C2A17646  25.760   6.880  27.500
  736BOLB   C3A17647  25.530   6.420  27.390
  736BOLB   C4A17648  25.240   6.190  27.090
  736BOLB   C1B17649  25.460   7.240  27.080
  736BOLB   C2B17650  25.480   6.840  26.860
  736BOLB   C3B17651  25.650   6.470  26.840
  736BOLB   C4B17652  26.040   6.120  26.710
  736BOLB   NC217653  25.610   4.390  26.000
  736BOLB   PO217654  25.240   4.120  25.970
  736BOLB   GL317655  25.080   4.420  26.200
  736BOLB   GL417656  25.140   4.710  26.020
  736BOLB   C1C17657  25.260   4.670  26.540
  736BOLB   C2C17658  25.120   5.050  26.740
  736BOLB   C3C17659  25.070   5.460  26.710
  736BOLB   C4C17660  25.040   5.810  26.900
  736BOLB   C1D17661  24.830   5.010  26.180
  736BOLB   C2D17662  24.670   5.250  26.470
  736BOLB   C3D17663  24.330   5.580  26.310
  736BOLB   C4D17664  23.920   5.440  26.220
  737BOLB   NC117665  16.370  25.950  21.690
  737BOLB   PO117666  16.200  25.840  22.170
  737BOLB   GL117667  16.440  25.610  22.540
  737BOLB   GL217668  16.220  25.390  22.750
  737BOLB   C1A17669  16.600  25.150  22.530
  737BOLB   C2A17670  16.920  24.920  22.780
  737BOLB   C3A17671  17.280  24.990  23.090
  737BOLB   C4A17672  17.560  25.110  23.440
  737BOLB   C1B17673  16.190  24.960  22.720
  737BOLB   C2B17674  16.130  24.570  22.960
  737BOLB   C3B17675  15.820  24.370  23.300
  737BOLB   C4B17676  15.610  24.390  23.760
  737BOLB   NC217677  17.660   1.190  23.380
  737BOLB   PO217678  17.610   0.780  23.500
  737BOLB   GL317679  17.590   0.330  23.780
  737BOLB   GL417680  17.910   0.220  23.960
  737BOLB   C1C17681  17.470  26.440  24.000
  737BOLB   C2C17682  17.440  26.120  23.830
  737BOLB   C3C17683  17.650  25.780  23.500
  737BOLB   C4C17684  17.680  25.490  23.350
  737BOLB   C1D17685  17.910  26.320  23.650
  737BOLB   C2D17686  17.610  26.250  23.380
  737BOLB   C3D17687  17.190  26.140  23.310
  737BOLB   C4D17688  16.840  25.970  23.330
  738BOLB   NC117689  21.730  22.980  32.880
  738BOLB   PO117690  22.030  22.970  33.220
  738BOLB   GL117691  22.560  23.150  33.260
  738BOLB   GL217692  22.790  22.930  33.210
  738BOLB   C1A17693  22.740  23.450  33.060
  738BOLB   C2A17694  23.120  23.630  33.020
  738BOLB   C3A17695  23.430  23.870  32.760
  738BOLB   C4A17696  23.840  24.220  32.610
  738BOLB   C1B17697  23.120  23.090  33.100
  738BOLB   C2B17698  23.440  23.210  32.950
  738BOLB   C3B17699  23.750  23.440  32.660
  738BOLB   C4B17700  23.840  23.690  32.350
  738BOLB   NC217701  25.710  24.200  30.960
  738BOLB   PO217702  25.650  24.510  31.310
  738BOLB   GL317703  25.370  24.270  31.440
  738BOLB   GL417704  25.350  23.980  31.360
  738BOLB   C1C17705  25.010  24.350  31.790
  738BOLB   C2C17706  24.740  24.530  32.140
  738BOLB   C3C17707  24.460  24.520  32.330
  738BOLB   C4C17708  24.020  24.530  32.270
  738BOLB   C1D17709  25.180  23.500  31.400
  738BOLB   C2D17710  24.910  23.210  31.380
  738BOLB   C3D17711  24.730  23.210  31.680
  738BOLB   C4D17712  24.400  23.120  31.790
  739BOLB   NC117713  15.730  14.620  37.920
  739BOLB   PO117714  15.910  14.260  38.050
  739BOLB   GL117715  15.580  14.300  38.320
  739BOLB   GL217716  15.700  14.310  38.670
  739BOLB   C1A17717  15.220  14.150  38.470
  739BOLB   C2A17718  14.930  13.950  38.630
  739BOLB   C3A17719  14.680  13.510  38.530
  739BOLB   C4A17720  14.400  13.370  38.780
  739BOLB   C1B17721  15.440  14.240  38.920
  739BOLB   C2B17722  15.080  14.090  39.190
  739BOLB   C3B17723  14.820  14.070  39.470
  739BOLB   C4B17724  14.740  14.160  39.800
  739BOLB   NC217725  12.870  11.790  39.620
  739BOLB   PO217726  12.530  12.040  39.590
  739BOLB   GL317727  12.820  12.460  39.390
  739BOLB   GL417728  12.770  12.770  39.070
  739BOLB   C1C17729  13.180  12.560  39.210
  739BOLB   C2C17730  13.420  12.850  39.180
  739BOLB   C3C17731  13.720  12.870  39.110
  739BOLB   C4C17732  14.050  13.080  38.910
  739BOLB   C1D17733  12.800  13.200  39.000
  739BOLB   C2D17734  12.560  13.550  38.860
  739BOLB   C3D17735  12.510  13.740  38.420
  739BOLB   C4D17736  12.890  13.840  38.180
  740BOLB   NC117737  16.910  24.180  35.400
  740BOLB   PO117738  16.790  24.630  35.430
  740BOLB   GL117739  16.710  25.050  35.450
  740BOLB   GL217740  16.920  25.310  35.300
  740BOLB   C1A17741  16.520  25.220  35.650
  740BOLB   C2A17742  16.170  25.350  35.920
  740BOLB   C3A17743  16.120  25.520  36.320
  740BOLB   C4A17744  15.780  25.760  36.550
  740BOLB   C1B17745  16.790  25.670  35.550
  740BOLB   C2B17746  16.480  25.810  35.670
  740BOLB   C3B17747  16.090  25.840  35.890
  740BOLB   C4B17748  15.770  25.660  36.020
  740BOLB   NC217749  14.530   0.730  38.080
  740BOLB   PO217750  14.260   0.830  37.740
  740BOLB   GL317751  14.430   0.430  37.630
  740BOLB   GL417752  14.600   0.330  37.300
  740BOLB   C1C17753  14.640  26.430  37.640
  740BOLB   C2C17754  14.850  26.110  37.460
  740BOLB   C3C17755  14.970  25.980  37.070
  740BOLB   C4C17756  15.420  25.940  36.750
  740BOLB   C1D17757  15.000   0.680  37.130
  740BOLB   C2D17758  15.420   0.730  36.970
  740BOLB   C3D17759  15.610   1.120  36.900
  740BOLB   C4D17760  15.830   1.480  36.970
  741BOLB   NC117761  19.950  10.450  26.250
  741BOLB   PO117762  20.090  10.090  26.520
  741BOLB   GL117763  19.820   9.850  26.270
  741BOLB   GL217764  19.950   9.780  26.100
  741BOLB   C1A17765  19.400   9.660  26.250
  741BOLB   C2A17766  18.960   9.440  26.180
  741BOLB   C3A17767  18.590   9.050  26.300
  741BOLB   C4A17768  18.370   8.720  26.470
  741BOLB   C1B17769  19.800   9.320  26.280
  741BOLB   C2B17770  19.410   9.090  26.220
  741BOLB   C3B17771  19.110   8.900  26.020
  741BOLB   C4B17772  18.860   8.410  26.060
  741BOLB   NC217773  17.040   6.720  24.800
  741BOLB   PO217774  17.410   6.910  25.060
  741BOLB   GL317775  17.620   7.250  25.260
  741BOLB   GL417776  17.950   7.430  25.180
  741BOLB   C1C17777  17.590   7.720  25.460
  741BOLB   C2C17778  17.860   8.040  25.690
  741BOLB   C3C17779  18.000   8.300  26.040
  741BOLB   C4C17780  18.010   8.380  26.360
  741BOLB   C1D17781  18.000   7.470  25.630
  741BOLB   C2D17782  18.320   7.750  25.890
  741BOLB   C3D17783  18.490   8.060  26.110
  741BOLB   C4D17784  18.550   8.270  26.450
  742BOLB   NC117785  23.820  19.190  27.730
  742BOLB   PO117786  24.270  19.430  27.720
  742BOLB   GL117787  24.540  19.430  28.120
  742BOLB   GL217788  24.760  19.410  27.930
  742BOLB   C1A17789  24.850  19.830  28.270
  742BOLB   C2A17790  25.200  20.040  28.400
  742BOLB   C3A17791  25.420  20.150  28.660
  742BOLB   C4A17792  25.670  20.070  29.130
  742BOLB   C1B17793  25.200  19.590  28.070
  742BOLB   C2B17794  25.430  19.960  27.930
  742BOLB   C3B17795  25.850  20.110  27.880
  742BOLB   C4B17796  26.140  20.480  27.750
  742BOLB   NC217797  27.515  21.430  29.580
  742BOLB   PO217798  27.435  20.940  29.490
  742BOLB   GL317799  27.085  20.800  29.340
  742BOLB   GL417800  26.735  20.870  29.610
  742BOLB   C1C17801  26.905  20.380  29.360
  742BOLB   C2C17802  26.455  20.270  29.580
  742BOLB   C3C17803  26.200  20.010  29.590
  742BOLB   C4C17804  25.980  19.880  29.340
  742BOLB   C1D17805  26.465  20.700  29.310
  742BOLB   C2D17806  26.290  20.630  28.810
  742BOLB   C3D17807  26.120  20.580  28.380
  742BOLB   C4D17808  25.650  20.360  28.240
  743BOLB   NC117809  25.020  17.920  41.810
  743BOLB   PO117810  25.240  18.020  42.170
  743BOLB   GL117811  25.450  17.980  42.540
  743BOLB   GL217812  25.260  17.800  42.710
  743BOLB   C1A17813  25.910  17.800  42.680
  743BOLB   C2A17814  26.170  17.700  42.980
  743BOLB   C3A17815  26.340  17.890  43.350
  743BOLB   C4A17816  26.665  17.760  43.700
  743BOLB   C1B17817  25.370  17.680  43.140
  743BOLB   C2B17818  25.410  17.740  43.510
  743BOLB   C3B17819  25.480  18.060  43.680
  743BOLB   C4B17820  25.810  18.430  43.950
  743BOLB   NC217821  29.105  18.180  44.810
  743BOLB   PO217822  28.735  18.360  44.800
  743BOLB   GL317823  28.345  18.250  44.400
  743BOLB   GL417824  28.205  17.930  44.400
  743BOLB   C1C17825  27.995  18.260  44.150
  743BOLB   C2C17826  27.565  18.190  44.050
  743BOLB   C3C17827  27.265  18.120  43.890
  743BOLB   C4C17828  26.955  17.780  43.940
  743BOLB   C1D17829  27.825  17.800  44.220
  743BOLB   C2D17830  27.385  17.860  44.340
  743BOLB   C3D17831  26.965  17.660  44.430
  743BOLB   C4D17832  26.575  17.520  44.590
  744BOLB   NC117833  20.800  21.950  24.200
  744BOLB   PO117834  20.730  21.960  24.650
  744BOLB   GL117835  21.190  22.060  24.530
  744BOLB   GL217836  21.220  22.230  24.270
  744BOLB   C1A17837  21.470  22.390  24.680
  744BOLB   C2A17838  21.640  22.910  24.550
  744BOLB   C3A17839  21.980  23.270  24.570
  744BOLB   C4A17840  22.000  23.710  24.590
  744BOLB   C1B17841  21.360  22.560  24.030
  744BOLB   C2B17842  21.650  22.910  23.900
  744BOLB   C3B17843  22.070  22.940  24.220
  744BOLB   C4B17844  22.420  23.010  24.220
  744BOLB   NC217845  23.720  25.390  24.000
  744BOLB   PO217846  23.820  25.120  23.580
  744BOLB   GL317847  23.430  24.950  23.910
  744BOLB   GL417848  23.480  25.010  24.250
  744BOLB   C1C17849  23.020  24.820  24.020
  744BOLB   C2C17850  22.820  24.450  24.110
  744BOLB   C3C17851  22.460  24.300  24.230
  744BOLB   C4C17852  22.080  24.070  24.310
  744BOLB   C1D17853  23.140  24.700  24.460
  744BOLB   C2D17854  22.980  24.210  24.570
  744BOLB   C3D17855  22.680  24.110  24.940
  744BOLB   C4D17856  22.630  23.780  25.180
  745BOLB   NC117857  19.930  21.160  22.390
  745BOLB   PO117858  19.800  21.440  22.660
  745BOLB   GL117859  20.110  21.590  22.630
  745BOLB   GL217860  20.370  21.730  22.770
  745BOLB   C1A17861  20.350  21.710  22.310
  745BOLB   C2A17862  20.690  21.830  22.140
  745BOLB   C3A17863  20.820  21.670  21.690
  745BOLB   C4A17864  20.810  21.620  21.210
  745BOLB   C1B17865  20.370  22.170  22.580
  745BOLB   C2B17866  20.380  22.630  22.390
  745BOLB   C3B17867  20.650  23.030  22.450
  745BOLB   C4B17868  20.850  23.470  22.350
  745BOLB   NC217869  21.920  22.040  18.900
  745BOLB   PO217870  22.130  21.910  19.260
  745BOLB   GL317871  22.140  21.890  19.670
  745BOLB   GL417872  21.930  22.120  19.770
  745BOLB   C1C17873  22.010  21.700  20.110
  745BOLB   C2C17874  21.760  21.740  20.500
  745BOLB   C3C17875  21.380  21.770  20.700
  745BOLB   C4C17876  21.210  21.620  20.940
  745BOLB   C1D17877  21.750  22.130  20.120
  745BOLB   C2D17878  21.470  22.050  20.300
  745BOLB   C3D17879  21.150  21.850  20.120
  745BOLB   C4D17880  20.710  21.830  20.260
  746BOLB   NC117881  27.505   8.980  28.190
  746BOLB   PO117882  27.705   9.260  27.810
  746BOLB   GL117883  27.935   9.050  27.370
  746BOLB   GL217884  27.775   8.760  27.280
  746BOLB   C1A17885  28.205   8.930  27.030
  746BOLB   C2A17886  28.555   8.690  26.900
  746BOLB   C3A17887  28.925   8.560  26.780
  746BOLB   C4A17888  29.375   8.570  26.540
  746BOLB   C1B17889  27.805   8.410  27.140
  746BOLB   C2B17890  27.685   7.950  27.190
  746BOLB   C3B17891  27.895   7.530  27.240
  746BOLB   C4B17892  27.595   7.250  27.530
  746BOLB   NC217893  30.255   6.970  25.580
  746BOLB   PO217894  30.155   7.270  25.170
  746BOLB   GL317895  30.065   7.670  25.390
  746BOLB   GL417896  30.335   7.840  25.110
  746BOLB   C1C17897  30.035   8.100  25.510
  746BOLB   C2C17898  30.025   8.480  25.670
  746BOLB   C3C17899  29.885   8.750  26.000
  746BOLB   C4C17900  29.565   8.570  26.190
  746BOLB   C1D17901  29.905   8.020  24.940
  746BOLB   C2D17902  29.495   8.210  25.130
  746BOLB   C3D17903  29.215   8.570  25.340
  746BOLB   C4D17904  28.905   8.930  25.350
  747BOLB   NC117905  27.175  14.310  40.880
  747BOLB   PO117906  27.205  14.650  40.580
  747BOLB   GL117907  27.545  14.690  40.890
  747BOLB   GL217908  27.795  14.960  40.880
  747BOLB   C1A17909  27.765  14.620  41.390
  747BOLB   C2A17910  27.795  14.620  41.790
  747BOLB   C3A17911  28.105  14.660  42.120
  747BOLB   C4A17912  28.095  14.470  42.530
  747BOLB   C1B17913  28.215  14.790  40.860
  747BOLB   C2B17914  28.625  14.730  41.080
  747BOLB   C3B17915  29.065  14.610  41.130
  747BOLB   C4B17916  29.235  14.580  41.460
  747BOLB   NC217917  29.405  13.310  43.750
  747BOLB   PO217918  29.155  13.430  44.140
  747BOLB   GL317919  28.825  13.560  43.990
  747BOLB   GL417920  28.735  13.880  44.080
  747BOLB   C1C17921  28.835  13.740  43.540
  747BOLB   C2C17922  28.765  13.610  43.040
  747BOLB   C3C17923  28.445  13.700  42.690
  747BOLB   C4C17924  28.195  14.100  42.810
  747BOLB   C1D17925  28.355  13.820  43.850
  747BOLB   C2D17926  28.045  13.460  43.970
  747BOLB   C3D17927  27.885  13.070  43.850
  747BOLB   C4D17928  27.555  12.820  43.620
  748BOLB   NC117929  16.230  20.890  18.410
  748BOLB   PO117930  16.070  20.420  18.290
  748BOLB   GL117931  16.240  20.260  18.650
  748BOLB   GL217932  16.220  19.970  18.590
  748BOLB   C1A17933  16.170  20.090  19.150
  748BOLB   C2A17934  16.400  20.060  19.610
  748BOLB   C3A17935  16.370  20.510  19.880
  748BOLB   C4A17936  16.120  20.490  20.280
  748BOLB   C1B17937  16.390  19.700  18.780
  748BOLB   C2B17938  16.620  19.830  19.110
  748BOLB   C3B17939  17.020  20.000  19.200
  748BOLB   C4B17940  17.420  20.010  18.940
  748BOLB   NC217941  13.550  20.640  19.100
  748BOLB   PO217942  14.040  20.490  19.250
  748BOLB   GL317943  14.260  20.560  19.580
  748BOLB   GL417944  14.550  20.680  19.590
  748BOLB   C1C17945  14.500  20.810  20.050
  748BOLB   C2C17946  14.910  20.970  20.380
  748BOLB   C3C17947  15.330  20.920  20.440
  748BOLB   C4C17948  15.750  20.660  20.510
  748BOLB   C1D17949  14.950  20.450  19.760
  748BOLB   C2D17950  14.900  19.940  19.800
  748BOLB   C3D17951  15.000  19.580  19.790
  748BOLB   C4D17952  15.270  19.360  19.950
  749BOLB   NC117953  20.750  25.880  22.360
  749BOLB   PO117954  21.010  25.950  22.690
  749BOLB   GL117955  20.990  25.650  22.970
  749BOLB   GL217956  21.090  25.380  22.970
  749BOLB   C1A17957  20.590  25.520  23.190
  749BOLB   C2A17958  20.570  25.050  23.180
  749BOLB   C3A17959  20.720  24.610  23.260
  749BOLB   C4A17960  20.930  24.120  23.400
  749BOLB   C1B17961  21.090  24.970  23.170
  749BOLB   C2B17962  21.210  24.610  23.280
  749BOLB   C3B17963  21.590  24.420  23.240
  749BOLB   C4B17964  22.080  24.390  23.220
  749BOLB   NC217965  22.380  25.080  22.320
  749BOLB   PO217966  22.640  24.970  22.680
  749BOLB   GL317967  22.450  24.650  22.860
  749BOLB   GL417968  22.680  24.380  22.740
  749BOLB   C1C17969  22.240  24.100  22.780
  749BOLB   C2C17970  21.930  23.920  22.810
  749BOLB   C3C17971  21.540  23.870  23.080
  749BOLB   C4C17972  21.230  23.900  23.210
  749BOLB   C1D17973  22.700  24.030  23.080
  749BOLB   C2D17974  22.380  24.020  23.310
  749BOLB   C3D17975  22.020  23.880  23.340
  749BOLB   C4D17976  21.680  23.680  23.550
  750BOLB   NC117977  27.225  17.980  35.970
  750BOLB   PO117978  27.415  17.620  36.070
  750BOLB   GL117979  27.785  17.840  36.230
  750BOLB   GL217980  27.705  18.070  36.080
  750BOLB   C1A17981  28.195  18.160  36.330
  750BOLB   C2A17982  28.515  18.310  36.590
  750BOLB   C3A17983  28.875  18.250  36.810
  750BOLB   C4A17984  29.275  18.540  36.680
  750BOLB   C1B17985  27.845  18.440  36.020
  750BOLB   C2B17986  28.085  18.640  36.230
  750BOLB   C3B17987  28.475  18.780  36.410
  750BOLB   C4B17988  28.835  18.750  36.690
  750BOLB   NC217989  31.405  19.490  36.580
  750BOLB   PO217990  31.535  19.330  36.990
  750BOLB   GL317991  31.195  19.080  36.850
  750BOLB   GL417992  31.065  19.080  36.500
  750BOLB   C1C17993  30.825  18.850  36.870
  750BOLB   C2C17994  30.445  18.680  36.820
  750BOLB   C3C17995  30.085  18.790  36.730
  750BOLB   C4C17996  29.655  18.660  36.680
  750BOLB   C1D17997  30.665  18.900  36.320
  750BOLB   C2D17998  30.405  18.620  36.080
  750BOLB   C3D17999  30.355  18.130  35.970
  750BOLB   C4D18000  30.145  17.780  36.130
  751BOLB   NC118001  28.225  10.900  20.430
  751BOLB   PO118002  28.355  11.360  20.540
  751BOLB   GL118003  28.145  11.440  20.870
  751BOLB   GL218004  28.225  11.670  21.130
  751BOLB   C1A18005  28.165  11.290  21.340
  751BOLB   C2A18006  28.035  11.310  21.710
  751BOLB   C3A18007  27.785  11.480  21.970
  751BOLB   C4A18008  27.365  11.660  22.010
  751BOLB   C1B18009  28.045  11.960  21.400
  751BOLB   C2B18010  27.785  11.960  21.740
  751BOLB   C3B18011  27.415  12.160  21.850
  751BOLB   C4B18012  26.905  12.220  21.820
  751BOLB   NC218013  28.045  12.700  20.120
  751BOLB   PO218014  27.845  12.210  19.940
  751BOLB   GL318015  27.665  12.370  20.250
  751BOLB   GL418016  27.575  12.690  20.420
  751BOLB   C1C18017  27.535  12.040  20.440
  751BOLB   C2C18018  27.275  12.070  20.840
  751BOLB   C3C18019  27.265  12.020  21.280
  751BOLB   C4C18020  27.175  11.780  21.670
  751BOLB   C1D18021  27.255  12.930  20.300
  751BOLB   C2D18022  27.155  13.320  20.130
  751BOLB   C3D18023  27.055  13.640  20.350
  751BOLB   C4D18024  26.895  13.770  20.800
  752BOLB   NC118025  22.710   7.970  30.920
  752BOLB   PO118026  23.060   7.890  31.190
  752BOLB   GL118027  22.870   7.560  31.240
  752BOLB   GL218028  22.940   7.460  31.540
  752BOLB   C1A18029  22.600   7.240  31.180
  752BOLB   C2A18030  22.490   6.820  31.350
  752BOLB   C3A18031  22.190   6.480  31.490
  752BOLB   C4A18032  22.180   6.070  31.670
  752BOLB   C1B18033  23.040   7.140  31.830
  752BOLB   C2B18034  22.740   6.760  31.800
  752BOLB   C3B18035  22.530   6.370  31.870
  752BOLB   C4B18036  22.280   6.070  32.140
  752BOLB   NC218037  22.450   3.460  32.450
  752BOLB   PO218038  22.480   3.930  32.250
  752BOLB   GL318039  22.730   4.160  31.920
  752BOLB   GL418040  22.920   3.910  31.820
  752BOLB   C1C18041  22.630   4.570  31.550
  752BOLB   C2C18042  22.510   4.880  31.380
  752BOLB   C3C18043  22.390   5.330  31.410
  752BOLB   C4C18044  22.310   5.620  31.750
  752BOLB   C1D18045  23.180   4.150  32.150
  752BOLB   C2D18046  23.010   4.350  32.370
  752BOLB   C3D18047  22.840   4.320  32.700
  752BOLB   C4D18048  22.630   4.300  33.050
  753BOLB   NC118049  15.500  23.230  33.990
  753BOLB   PO118050  15.200  23.300  34.330
  753BOLB   GL118051  14.910  23.700  34.490
  753BOLB   GL218052  15.040  23.900  34.770
  753BOLB   C1A18053  14.640  23.970  34.430
  753BOLB   C2A18054  14.670  24.340  34.580
  753BOLB   C3A18055  14.610  24.820  34.640
  753BOLB   C4A18056  14.400  25.220  34.530
  753BOLB   C1B18057  14.750  24.080  35.040
  753BOLB   C2B18058  14.520  23.970  35.350
  753BOLB   C3B18059  14.270  23.910  35.610
  753BOLB   C4B18060  13.990  24.240  35.910
  753BOLB   NC218061  11.960  25.780  34.770
  753BOLB   PO218062  12.260  26.040  34.780
  753BOLB   GL318063  12.620  25.800  34.790
  753BOLB   GL418064  12.560  25.490  34.560
  753BOLB   C1C18065  13.020  25.630  34.840
  753BOLB   C2C18066  13.490  25.410  34.970
  753BOLB   C3C18067  13.820  25.490  34.860
  753BOLB   C4C18068  14.110  25.380  34.610
  753BOLB   C1D18069  12.770  25.460  34.240
  753BOLB   C2D18070  12.900  25.320  33.860
  753BOLB   C3D18071  13.080  25.060  33.510
  753BOLB   C4D18072  13.390  24.780  33.320
  754BOLB   NC118073  17.820  26.210  22.110
  754BOLB   PO118074  17.340  26.160  22.030
  754BOLB   GL118075  17.080  25.780  22.160
  754BOLB   GL218076  17.030  25.720  22.430
  754BOLB   C1A18077  17.080  25.270  22.200
  754BOLB   C2A18078  16.920  24.800  22.320
  754BOLB   C3A18079  16.900  24.590  21.890
  754BOLB   C4A18080  16.940  24.150  21.960
  754BOLB   C1B18081  17.090  25.380  22.690
  754BOLB   C2B18082  17.460  25.060  22.570
  754BOLB   C3B18083  17.420  24.610  22.740
  754BOLB   C4B18084  17.070  24.340  22.730
  754BOLB   NC218085  15.470  24.770  21.100
  754BOLB   PO218086  15.760  25.140  21.060
  754BOLB   GL318087  16.040  24.850  21.290
  754BOLB   GL418088  16.060  25.020  21.560
  754BOLB   C1C18089  16.140  24.450  21.250
  754BOLB   C2C18090  16.360  24.070  21.120
  754BOLB   C3C18091  16.680  23.740  21.310
  754BOLB   C4C18092  16.740  23.830  21.750
  754BOLB   C1D18093  16.310  24.660  21.730
  754BOLB   C2D18094  16.500  24.320  22.160
  754BOLB   C3D18095  16.650  24.020  22.380
  754BOLB   C4D18096  16.640  23.590  22.370
  755BOLB   NC118097  19.060  19.410  42.430
  755BOLB   PO118098  18.810  19.660  42.230
  755BOLB   GL118099  18.710  19.820  42.570
  755BOLB   GL218100  18.520  19.990  42.470
  755BOLB   C1A18101  18.620  19.990  42.980
  755BOLB   C2A18102  18.530  20.130  43.420
  755BOLB   C3A18103  18.570  20.140  43.860
  755BOLB   C4A18104  18.620  19.990  44.340
  755BOLB   C1B18105  18.240  20.200  42.800
  755BOLB   C2B18106  18.090  20.100  43.220
  755BOLB   C3B18107  17.860  20.060  43.620
  755BOLB   C4B18108  17.510  19.750  43.500
  755BOLB   NC218109  18.820  21.510  46.270
  755BOLB   PO218110  18.520  21.070  46.190
  755BOLB   GL318111  18.790  20.670  46.170
  755BOLB   GL418112  19.010  20.480  46.340
  755BOLB   C1C18113  18.820  20.410  45.830
  755BOLB   C2C18114  18.650  20.230  45.390
  755BOLB   C3C18115  18.500  19.960  45.030
  755BOLB   C4C18116  18.710  19.870  44.810
  755BOLB   C1D18117  19.120  20.100  46.000
  755BOLB   C2D18118  19.140  19.630  45.890
  755BOLB   C3D18119  19.150  19.370  45.510
  755BOLB   C4D18120  19.380  19.170  45.280
  756BOLB   NC118121  14.820  14.970  33.150
  756BOLB   PO118122  14.840  15.320  33.050
  756BOLB   GL118123  14.410  15.290  33.180
  756BOLB   GL218124  14.280  15.040  33.030
  756BOLB   C1A18125  14.070  15.370  33.410
  756BOLB   C2A18126  13.710  15.200  33.410
  756BOLB   C3A18127  13.410  15.150  33.630
  756BOLB   C4A18128  13.010  14.920  33.660
  756BOLB   C1B18129  14.120  14.770  33.280
  756BOLB   C2B18130  13.750  14.440  33.340
  756BOLB   C3B18131  13.400  14.180  33.270
  756BOLB   C4B18132  13.240  13.890  32.890
  756BOLB   NC218133  11.210  13.530  32.730
  756BOLB   PO218134  11.020  13.840  32.400
  756BOLB   GL318135  11.440  13.890  32.530
  756BOLB   GL418136  11.490  13.810  32.280
  756BOLB   C1C18137  11.730  14.150  32.630
  756BOLB   C2C18138  11.900  14.430  33.030
  756BOLB   C3C18139  12.300  14.330  33.310
  756BOLB   C4C18140  12.770  14.560  33.480
  756BOLB   C1D18141  11.910  14.080  32.210
  756BOLB   C2D18142  12.150  14.330  32.530
  756BOLB   C3D18143  12.450  14.470  32.790
  756BOLB   C4D18144  12.710  14.670  32.870
  757BOLB   NC118145  17.850  17.910  41.500
  757BOLB   PO118146  17.960  18.390  41.720
  757BOLB   GL118147  17.550  18.670  41.970
  757BOLB   GL218148  17.320  18.780  41.790
  757BOLB   C1A18149  17.560  18.820  42.430
  757BOLB   C2A18150  17.490  18.990  42.740
  757BOLB   C3A18151  17.380  18.810  43.120
  757BOLB   C4A18152  17.220  18.690  43.630
  757BOLB   C1B18153  17.160  18.990  42.150
  757BOLB   C2B18154  16.770  18.980  42.330
  757BOLB   C3B18155  16.540  19.350  42.380
  757BOLB   C4B18156  16.500  19.650  42.170
  757BOLB   NC218157  15.700  19.940  45.400
  757BOLB   PO218158  15.840  19.460  45.260
  757BOLB   GL318159  15.600  19.270  44.810
  757BOLB   GL418160  15.470  19.010  44.660
  757BOLB   C1C18161  15.800  19.300  44.350
  757BOLB   C2C18162  16.000  19.120  43.950
  757BOLB   C3C18163  16.430  19.050  43.830
  757BOLB   C4C18164  16.810  18.840  43.900
  757BOLB   C1D18165  15.970  18.800  44.690
  757BOLB   C2D18166  16.250  18.540  44.730
  757BOLB   C3D18167  16.720  18.340  44.680
  757BOLB   C4D18168  16.770  17.940  44.510
  758BOLB   NC118169  18.870  11.020  28.160
  758BOLB   PO118170  18.940  10.770  27.740
  758BOLB   GL118171  18.610  10.680  27.830
  758BOLB   GL218172  18.250  10.660  27.750
  758BOLB   C1A18173  18.480  10.290  27.910
  758BOLB   C2A18174  18.160   9.970  27.950
  758BOLB   C3A18175  17.830   9.660  28.040
  758BOLB   C4A18176  17.550   9.220  27.910
  758BOLB   C1B18177  17.800  10.460  27.720
  758BOLB   C2B18178  17.700  10.060  27.610
  758BOLB   C3B18179  17.520   9.660  27.640
  758BOLB   C4B18180  17.490   9.260  27.400
  758BOLB   NC218181  16.480   7.420  28.430
  758BOLB   PO218182  16.460   7.300  28.010
  758BOLB   GL318183  16.520   7.750  27.940
  758BOLB   GL418184  16.550   7.880  28.230
  758BOLB   C1C18185  16.770   8.020  27.600
  758BOLB   C2C18186  16.870   8.490  27.640
  758BOLB   C3C18187  17.050   8.860  27.490
  758BOLB   C4C18188  17.160   9.180  27.750
  758BOLB   C1D18189  16.790   8.220  28.110
  758BOLB   C2D18190  17.140   8.600  28.050
  758BOLB   C3D18191  17.490   8.780  27.690
  758BOLB   C4D18192  17.890   8.840  27.470
  759BOLB   NC118193  24.460   2.750  32.100
  759BOLB   PO118194  24.520   2.890  32.610
  759BOLB   GL118195  24.330   3.250  32.890
  759BOLB   GL218196  24.620   3.530  33.110
  759BOLB   C1A18197  24.170   3.680  32.900
  759BOLB   C2A18198  24.330   4.100  32.970
  759BOLB   C3A18199  24.610   4.460  33.100
  759BOLB   C4A18200  24.910   4.770  32.950
  759BOLB   C1B18201  24.820   3.950  33.150
  759BOLB   C2B18202  25.070   4.340  33.360
  759BOLB   C3B18203  25.380   4.630  33.400
  759BOLB   C4B18204  25.700   4.820  33.340
  759BOLB   NC218205  25.760   3.510  32.240
  759BOLB   PO218206  25.270   3.290  32.180
  759BOLB   GL318207  25.230   3.700  32.190
  759BOLB   GL418208  25.100   3.830  31.870
  759BOLB   C1C18209  25.340   4.090  32.340
  759BOLB   C2C18210  25.340   4.510  32.220
  759BOLB   C3C18211  25.260   4.870  32.450
  759BOLB   C4C18212  24.960   4.940  32.660
  759BOLB   C1D18213  24.940   4.260  31.630
  759BOLB   C2D18214  24.980   4.600  31.320
  759BOLB   C3D18215  25.040   4.860  31.000
  759BOLB   C4D18216  24.990   5.230  30.730
  760BOLB   NC118217  27.135  14.150  24.440
  760BOLB   PO118218  27.005  14.360  24.080
  760BOLB   GL118219  27.415  14.270  23.900
  760BOLB   GL218220  27.695  14.260  24.180
  760BOLB   C1A18221  27.755  14.340  23.610
  760BOLB   C2A18222  28.025  14.160  23.280
  760BOLB   C3A18223  28.335  14.170  23.050
  760BOLB   C4A18224  28.865  14.000  23.000
  760BOLB   C1B18225  28.075  14.470  24.120
  760BOLB   C2B18226  28.505  14.280  24.210
  760BOLB   C3B18227  28.735  14.410  23.870
  760BOLB   C4B18228  28.805  14.620  23.530
  760BOLB   NC218229  30.925  13.470  21.790
  760BOLB   PO218230  30.605  13.110  21.730
  760BOLB   GL318231  30.225  13.090  22.080
  760BOLB   GL418232  29.875  13.140  22.090
  760BOLB   C1C18233  30.155  13.210  22.490
  760BOLB   C2C18234  29.825  13.520  22.610
  760BOLB   C3C18235  29.575  13.630  22.770
  760BOLB   C4C18236  29.165  13.800  22.840
  760BOLB   C1D18237  29.465  13.100  22.290
  760BOLB   C2D18238  29.045  12.920  22.340
  760BOLB   C3D18239  28.615  12.990  22.560
  760BOLB   C4D18240  28.255  13.250  22.670
  761BOLB   NC118241  16.020  24.350  32.030
  761BOLB   PO118242  15.660  24.080  32.230
  761BOLB   GL118243  15.530  24.540  32.240
  761BOLB   GL218244  15.570  24.670  32.010
  761BOLB   C1A18245  15.130  24.540  32.270
  761BOLB   C2A18246  14.850  24.960  32.270
  761BOLB   C3A18247  14.810  25.430  32.330
  761BOLB   C4A18248  14.670  25.680  32.090
  761BOLB   C1B18249  15.310  24.980  31.870
  761BOLB   C2B18250  15.020  25.310  31.870
  761BOLB   C3B18251  14.720  25.550  31.560
  761BOLB   C4B18252  14.210  25.440  31.530
  761BOLB   NC218253  13.000   1.210  30.550
  761BOLB   PO218254  13.220   0.730  30.560
  761BOLB   GL318255  13.430   0.390  30.660
  761BOLB   GL418256  13.440   0.120  30.400
  761BOLB   C1C18257  13.650  26.440  30.830
  761BOLB   C2C18258  13.920  26.100  30.940
  761BOLB   C3C18259  14.210  25.850  31.250
  761BOLB   C4C18260  14.470  26.010  31.650
  761BOLB   C1D18261  13.470  26.200  30.080
  761BOLB   C2D18262  13.870  25.960  30.100
  761BOLB   C3D18263  14.210  25.740  30.290
  761BOLB   C4D18264  14.550  25.650  30.600
  762BOLB   NC118265  34.115  14.550  31.510
  762BOLB   PO118266  33.695  14.260  31.590
  762BOLB   GL118267  33.265  14.150  31.790
  762BOLB   GL218268  33.345  14.170  32.120
  762BOLB   C1A18269  32.865  14.140  31.560
  762BOLB   C2A18270  32.435  14.330  31.360
  762BOLB   C3A18271  32.035  14.390  31.150
  762BOLB   C4A18272  31.705  14.600  31.330
  762BOLB   C1B18273  32.945  14.150  32.140
  762BOLB   C2B18274  32.735  13.820  31.870
  762BOLB   C3B18275  32.375  13.910  31.700
  762BOLB   C4B18276  32.105  13.930  31.300
  762BOLB   NC218277  29.565  13.400  31.690
  762BOLB   PO218278  29.645  13.860  31.760
  762BOLB   GL318279  30.045  13.930  31.670
  762BOLB   GL418280  30.105  13.830  31.340
  762BOLB   C1C18281  30.405  13.840  31.840
  762BOLB   C2C18282  30.705  14.130  32.040
  762BOLB   C3C18283  31.125  14.380  31.960
  762BOLB   C4C18284  31.325  14.510  31.590
  762BOLB   C1D18285  30.525  14.120  31.410
  762BOLB   C2D18286  30.865  14.140  31.520
  762BOLB   C3D18287  31.255  14.020  31.520
  762BOLB   C4D18288  31.465  13.890  31.830
  763BOLB   NC118289  15.800  19.060  23.700
  763BOLB   PO118290  15.330  18.930  23.640
  763BOLB   GL118291  14.990  18.940  23.470
  763BOLB   GL218292  14.880  18.650  23.630
  763BOLB   C1A18293  14.650  18.880  23.240
  763BOLB   C2A18294  14.280  18.870  23.150
  763BOLB   C3A18295  13.850  19.000  23.130
  763BOLB   C4A18296  13.400  19.180  23.330
  763BOLB   C1B18297  14.710  18.290  23.350
  763BOLB   C2B18298  14.440  18.340  22.990
  763BOLB   C3B18299  14.000  18.260  22.900
  763BOLB   C4B18300  13.570  17.980  22.810
  763BOLB   NC218301  11.310  18.150  22.850
  763BOLB   PO218302  10.990  18.490  22.990
  763BOLB   GL318303  11.430  18.680  22.930
  763BOLB   GL418304  11.730  18.470  22.910
  763BOLB   C1C18305  11.740  18.880  23.220
  763BOLB   C2C18306  12.250  18.910  23.140
  763BOLB   C3C18307  12.660  18.980  23.140
  763BOLB   C4C18308  12.970  19.150  23.240
  763BOLB   C1D18309  12.080  18.440  23.100
  763BOLB   C2D18310  12.510  18.540  23.230
  763BOLB   C3D18311  12.860  18.630  23.370
  763BOLB   C4D18312  13.230  18.810  23.670
  764BOLB   NC118313  15.860   1.220  26.580
  764BOLB   PO118314  15.460   1.360  26.850
  764BOLB   GL118315  15.580   0.970  26.940
  764BOLB   GL218316  15.800   0.830  27.160
  764BOLB   C1A18317  15.550   0.500  26.830
  764BOLB   C2A18318  15.310   0.340  26.530
  764BOLB   C3A18319  15.420  26.330  26.400
  764BOLB   C4A18320  15.530  26.000  26.090
  764BOLB   C1B18321  16.020   0.540  27.360
  764BOLB   C2B18322  16.010   0.180  27.530
  764BOLB   C3B18323  16.090  26.220  27.720
  764BOLB   C4B18324  16.260  25.990  27.980
  764BOLB   NC218325  15.750  23.110  26.690
  764BOLB   PO218326  15.930  23.430  26.370
  764BOLB   GL318327  15.890  23.940  26.360
  764BOLB   GL418328  15.940  24.040  26.030
  764BOLB   C1C18329  15.760  24.390  26.390
  764BOLB   C2C18330  15.570  24.790  26.180
  764BOLB   C3C18331  15.570  25.180  26.150
  764BOLB   C4C18332  15.630  25.630  26.020
  764BOLB   C1D18333  15.600  24.300  25.900
  764BOLB   C2D18334  15.200  24.350  25.750
  764BOLB   C3D18335  15.020  24.330  25.290
  764BOLB   C4D18336  14.680  24.460  25.090
  765BOLB   NC118337  18.980  23.450  44.850
  765BOLB   PO118338  18.890  22.990  44.850
  765BOLB   GL118339  19.080  23.020  44.530
  765BOLB   GL218340  19.410  22.810  44.530
  765BOLB   C1A18341  18.930  22.940  44.140
  765BOLB   C2A18342  18.800  22.600  43.780
  765BOLB   C3A18343  18.960  22.230  43.600
  765BOLB   C4A18344  19.040  21.930  43.770
  765BOLB   C1B18345  19.630  22.430  44.430
  765BOLB   C2B18346  19.700  22.000  44.260
  765BOLB   C3B18347  19.920  21.670  44.010
  765BOLB   C4B18348  19.950  21.280  43.900
  765BOLB   NC218349  20.050  22.880  45.700
  765BOLB   PO218350  19.990  22.470  45.910
  765BOLB   GL318351  20.110  22.430  45.590
  765BOLB   GL418352  20.300  22.520  45.340
  765BOLB   C1C18353  19.850  22.250  45.190
  765BOLB   C2C18354  19.510  22.080  44.860
  765BOLB   C3C18355  19.270  21.850  44.530
  765BOLB   C4C18356  19.140  21.760  44.180
  765BOLB   C1D18357  20.480  22.480  44.880
  765BOLB   C2D18358  20.590  22.080  44.700
  765BOLB   C3D18359  20.670  21.800  44.360
  765BOLB   C4D18360  20.940  21.540  44.260
  766BOLB   NC118361  22.740  16.860  43.100
  766BOLB   PO118362  23.200  16.840  43.040
  766BOLB   GL118363  23.420  16.670  43.440
  766BOLB   GL218364  23.680  16.400  43.430
  766BOLB   C1A18365  23.340  16.640  43.940
  766BOLB   C2A18366  23.570  16.770  44.470
  766BOLB   C3A18367  23.820  16.890  44.790
  766BOLB   C4A18368  24.020  16.670  45.220
  766BOLB   C1B18369  23.860  16.570  43.750
  766BOLB   C2B18370  23.860  16.550  44.120
  766BOLB   C3B18371  24.000  16.470  44.590
  766BOLB   C4B18372  24.110  16.190  44.960
  766BOLB   NC218373  25.410  16.340  46.990
  766BOLB   PO218374  25.540  15.920  47.100
  766BOLB   GL318375  25.610  15.790  46.600
  766BOLB   GL418376  25.810  15.880  46.500
  766BOLB   C1C18377  25.240  15.980  46.170
  766BOLB   C2C18378  24.900  15.970  45.900
  766BOLB   C3C18379  24.740  16.370  45.770
  766BOLB   C4C18380  24.490  16.600  45.550
  766BOLB   C1D18381  25.520  16.260  46.380
  766BOLB   C2D18382  25.300  16.470  46.080
  766BOLB   C3D18383  25.140  16.620  45.680
  766BOLB   C4D18384  24.910  16.450  45.320
  767BOLB   NC118385  31.195   6.140  30.620
  767BOLB   PO118386  31.285   5.780  31.010
  767BOLB   GL118387  30.995   6.110  31.140
  767BOLB   GL218388  30.715   5.920  31.210
  767BOLB   C1A18389  30.905   6.430  31.440
  767BOLB   C2A18390  30.695   6.770  31.450
  767BOLB   C3A18391  30.365   7.100  31.420
  767BOLB   C4A18392  29.985   7.220  31.250
  767BOLB   C1B18393  30.535   6.370  31.070
  767BOLB   C2B18394  30.295   6.640  31.050
  767BOLB   C3B18395  29.865   6.740  31.120
  767BOLB   C4B18396  29.565   6.810  31.420
  767BOLB   NC218397  30.125   5.160  31.020
  767BOLB   PO218398  30.255   5.330  30.640
  767BOLB   GL318399  29.975   5.570  30.840
  767BOLB   GL418400  29.745   5.350  30.770
  767BOLB   C1C18401  29.855   6.040  30.810
  767BOLB   C2C18402  29.565   6.400  30.890
  767BOLB   C3C18403  29.565   6.800  30.630
  767BOLB   C4C18404  29.605   7.110  30.910
  767BOLB   C1D18405  29.425   5.590  30.940
  767BOLB   C2D18406  29.005   5.680  31.070
  767BOLB   C3D18407  28.735   5.710  30.850
  767BOLB   C4D18408  28.565   5.770  30.450
  768BOLB   NC118409  25.170   3.750  27.490
  768BOLB   PO118410  25.520   4.120  27.450
  768BOLB   GL118411  25.440   4.390  27.630
  768BOLB   GL218412  25.750   4.430  27.810
  768BOLB   C1A18413  25.210   4.610  27.970
  768BOLB   C2A18414  25.240   4.960  28.160
  768BOLB   C3A18415  25.460   5.300  28.430
  768BOLB   C4A18416  25.700   5.530  28.660
  768BOLB   C1B18417  25.650   4.910  27.800
  768BOLB   C2B18418  25.730   5.370  27.780
  768BOLB   C3B18419  25.770   5.770  27.770
  768BOLB   C4B18420  25.810   6.220  27.800
  768BOLB   NC218421  24.990   7.710  29.110
  768BOLB   PO218422  25.310   7.990  29.060
  768BOLB   GL318423  25.460   7.530  29.130
  768BOLB   GL418424  25.750   7.390  28.960
  768BOLB   C1C18425  25.590   7.140  29.320
  768BOLB   C2C18426  25.620   6.670  29.270
  768BOLB   C3C18427  25.640   6.250  29.140
  768BOLB   C4C18428  25.690   5.830  29.000
  768BOLB   C1D18429  25.830   6.950  28.830
  768BOLB   C2D18430  25.730   6.540  28.740
  768BOLB   C3D18431  25.750   6.090  28.600
  768BOLB   C4D18432  25.710   5.840  28.260
  769BOLB   NC118433  15.700  23.450  27.510
  769BOLB   PO118434  15.280  23.280  27.320
  769BOLB   GL118435  15.280  23.720  27.230
  769BOLB   GL218436  15.360  23.920  27.530
  769BOLB   C1A18437  15.030  24.200  27.140
  769BOLB   C2A18438  14.870  24.620  27.310
  769BOLB   C3A18439  14.980  24.930  27.580
  769BOLB   C4A18440  14.770  25.410  27.710
  769BOLB   C1B18441  15.170  24.300  27.620
  769BOLB   C2B18442  15.320  24.580  27.930
  769BOLB   C3B18443  15.130  24.950  28.030
  769BOLB   C4B18444  15.340  25.310  27.960
  769BOLB   NC218445  13.650   0.250  26.450
  769BOLB   PO218446  13.150   0.150  26.400
  769BOLB   GL318447  13.270  26.190  26.360
  769BOLB   GL418448  13.080  25.930  26.500
  769BOLB   C1C18449  13.600  25.870  26.610
  769BOLB   C2C18450  13.960  25.800  26.910
  769BOLB   C3C18451  14.420  25.830  26.970
  769BOLB   C4C18452  14.720  25.730  27.340
  769BOLB   C1D18453  13.240  25.510  26.540
  769BOLB   C2D18454  13.450  25.140  26.550
  769BOLB   C3D18455  13.600  24.700  26.230
  769BOLB   C4D18456  13.800  24.360  26.060
  770BOLB   NC118457  13.170   0.270  37.040
  770BOLB   PO118458  13.080  26.210  37.240
  770BOLB   GL118459  13.450  26.000  37.100
  770BOLB   GL218460  13.720  26.130  36.930
  770BOLB   C1A18461  13.410  25.850  36.670
  770BOLB   C2A18462  13.580  25.650  36.300
  770BOLB   C3A18463  13.840  25.350  36.150
  770BOLB   C4A18464  14.280  25.340  36.110
  770BOLB   C1B18465  13.940  25.780  36.840
  770BOLB   C2B18466  14.060  25.640  36.460
  770BOLB   C3B18467  14.440  25.840  36.280
  770BOLB   C4B18468  14.900  25.960  36.480
  770BOLB   NC218469  13.510  25.930  38.310
  770BOLB   PO218470  13.400  25.900  37.950
  770BOLB   GL318471  13.760  26.000  37.830
  770BOLB   GL418472  13.990  25.950  38.070
  770BOLB   C1C18473  13.920  25.850  37.400
  770BOLB   C2C18474  14.160  25.410  37.220
  770BOLB   C3C18475  14.310  25.300  36.790
  770BOLB   C4C18476  14.580  25.330  36.400
  770BOLB   C1D18477  14.070  25.600  37.870
  770BOLB   C2D18478  14.440  25.410  37.690
  770BOLB   C3D18479  14.830  25.140  37.640
  770BOLB   C4D18480  15.180  25.060  37.710
  771BOLB   NC118481  19.650  11.080  26.560
  771BOLB   PO118482  19.230  11.010  26.500
  771BOLB   GL118483  18.880  10.790  26.290
  771BOLB   GL218484  18.490  10.710  26.440
  771BOLB   C1A18485  18.690  10.500  26.020
  771BOLB   C2A18486  18.340  10.200  25.990
  771BOLB   C3A18487  18.040   9.890  25.950
  771BOLB   C4A18488  17.980   9.500  25.720
  771BOLB   C1B18489  18.140  10.530  26.450
  771BOLB   C2B18490  17.880  10.430  26.000
  771BOLB   C3B18491  17.510  10.340  25.760
  771BOLB   C4B18492  17.310  10.210  25.500
  771BOLB   NC218493  17.200   7.880  24.610
  771BOLB   PO218494  16.900   7.760  24.950
  771BOLB   GL318495  17.180   8.110  25.020
  771BOLB   GL418496  17.070   8.460  25.000
  771BOLB   C1C18497  17.340   8.180  25.380
  771BOLB   C2C18498  17.650   8.460  25.710
  771BOLB   C3C18499  17.930   8.760  25.740
  771BOLB   C4C18500  18.020   9.120  25.640
  771BOLB   C1D18501  17.380   8.650  25.230
  771BOLB   C2D18502  17.520   9.010  25.540
  771BOLB   C3D18503  17.610   9.350  25.240
  771BOLB   C4D18504  17.450   9.780  25.060
  772BOLB   NC118505  13.750  21.850  41.990
  772BOLB   PO118506  13.730  21.560  42.360
  772BOLB   GL118507  13.850  21.090  42.400
  772BOLB   GL218508  13.730  20.840  42.240
  772BOLB   C1A18509  14.200  21.090  42.450
  772BOLB   C2A18510  14.380  21.200  42.190
  772BOLB   C3A18511  14.330  21.550  41.950
  772BOLB   C4A18512  14.130  21.750  41.560
  772BOLB   C1B18513  14.120  20.710  42.130
  772BOLB   C2B18514  14.530  20.690  41.770
  772BOLB   C3B18515  14.900  20.780  41.570
  772BOLB   C4B18516  15.140  21.210  41.380
  772BOLB   NC218517  14.960  24.300  41.460
  772BOLB   PO218518  14.680  24.050  41.740
  772BOLB   GL318519  14.780  23.670  41.500
  772BOLB   GL418520  14.850  23.640  41.250
  772BOLB   C1C18521  14.840  23.160  41.430
  772BOLB   C2C18522  14.680  22.920  41.030
  772BOLB   C3C18523  14.490  22.530  41.060
  772BOLB   C4C18524  14.270  22.180  41.400
  772BOLB   C1D18525  15.180  23.590  40.880
  772BOLB   C2D18526  15.330  23.310  40.610
  772BOLB   C3D18527  15.440  22.970  40.360
  772BOLB   C4D18528  15.480  22.820  39.930
  773BOLB   NC118529  27.715  11.610  26.040
  773BOLB   PO118530  28.035  11.610  26.190
  773BOLB   GL118531  28.125  11.400  25.780
  773BOLB   GL218532  28.065  11.490  25.480
  773BOLB   C1A18533  28.465  11.230  25.490
  773BOLB   C2A18534  28.835  11.270  25.210
  773BOLB   C3A18535  28.935  11.380  24.730
  773BOLB   C4A18536  28.985  11.670  24.340
  773BOLB   C1B18537  28.355  11.670  25.100
  773BOLB   C2B18538  28.495  11.630  24.730
  773BOLB   C3B18539  28.465  11.600  24.280
  773BOLB   C4B18540  28.295  11.230  24.010
  773BOLB   NC218541  29.915  12.090  22.080
  773BOLB   PO218542  29.775  11.650  22.210
  773BOLB   GL318543  29.665  11.630  22.550
  773BOLB   GL418544  30.045  11.690  22.710
  773BOLB   C1C18545  29.385  11.290  22.830
  773BOLB   C2C18546  29.375  11.330  23.240
  773BOLB   C3C18547  29.365  11.470  23.670
  773BOLB   C4C18548  29.085  11.600  23.930
  773BOLB   C1D18549  29.705  11.840  23.000
  773BOLB   C2D18550  29.355  11.800  23.200
  773BOLB   C3D18551  29.025  12.010  23.230
  773BOLB   C4D18552  28.705  12.120  22.910
  774BOLB   NC118553  30.525   6.450  38.120
  774BOLB   PO118554  30.065   6.540  38.270
  774BOLB   GL118555  29.955   6.920  38.110
  774BOLB   GL218556  29.955   7.100  38.350
  774BOLB   C1A18557  29.675   7.190  37.950
  774BOLB   C2A18558  29.565   7.530  37.650
  774BOLB   C3A18559  29.685   8.030  37.570
  774BOLB   C4A18560  29.885   8.240  37.360
  774BOLB   C1B18561  30.295   7.270  38.240
  774BOLB   C2B18562  30.545   7.400  37.840
  774BOLB   C3B18563  30.685   7.660  37.480
  774BOLB   C4B18564  30.915   7.660  37.190
  774BOLB   NC218565  31.355   6.830  36.340
  774BOLB   PO218566  31.705   6.990  36.600
  774BOLB   GL318567  31.495   7.350  36.490
  774BOLB   GL418568  31.645   7.590  36.290
  774BOLB   C1C18569  31.505   7.860  36.680
  774BOLB   C2C18570  31.255   8.010  37.020
  774BOLB   C3C18571  30.805   8.240  37.140
  774BOLB   C4C18572  30.375   8.210  37.290
  774BOLB   C1D18573  31.575   7.960  36.200
  774BOLB   C2D18574  31.375   8.270  36.410
  774BOLB   C3D18575  30.985   8.410  36.580
  774BOLB   C4D18576  30.785   8.700  36.490
  775BOLB   NC118577  28.815  23.000  35.030
  775BOLB   PO118578  28.605  23.250  35.450
  775BOLB   GL118579  28.235  22.920  35.540
  775BOLB   GL218580  28.315  22.890  35.170
  775BOLB   C1A18581  27.835  22.690  35.550
  775BOLB   C2A18582  27.365  22.680  35.470
  775BOLB   C3A18583  27.105  22.510  35.730
  775BOLB   C4A18584  26.985  22.080  35.830
  775BOLB   C1B18585  27.815  22.860  35.040
  775BOLB   C2B18586  27.435  22.610  34.960
  775BOLB   C3B18587  27.085  22.320  35.130
  775BOLB   C4B18588  26.745  22.300  35.410
  775BOLB   NC218589  26.130  20.290  37.370
  775BOLB   PO218590  26.240  20.170  36.880
  775BOLB   GL318591  26.400  20.370  36.480
  775BOLB   GL418592  26.170  20.410  36.360
  775BOLB   C1C18593  26.575  20.720  36.300
  775BOLB   C2C18594  26.705  21.070  36.420
  775BOLB   C3C18595  26.785  21.400  36.320
  775BOLB   C4C18596  26.875  21.720  36.100
  775BOLB   C1D18597  26.190  20.520  35.860
  775BOLB   C2D18598  26.190  20.780  35.520
  775BOLB   C3D18599  26.190  21.140  35.250
  775BOLB   C4D18600  26.400  21.490  35.220
  776BOLB   NC118601  10.370  14.560  31.430
  776BOLB   PO118602  10.250  14.960  31.640
  776BOLB   GL118603  10.600  15.120  31.400
  776BOLB   GL218604  10.620  15.370  31.570
  776BOLB   C1A18605  10.950  15.190  31.250
  776BOLB   C2A18606  11.340  15.520  31.390
  776BOLB   C3A18607  11.750  15.660  31.670
  776BOLB   C4A18608  12.250  15.470  31.730
  776BOLB   C1B18609  11.000  15.190  31.760
  776BOLB   C2B18610  11.450  15.330  31.870
  776BOLB   C3B18611  11.610  15.630  32.140
  776BOLB   C4B18612  11.980  15.870  32.050
  776BOLB   NC218613  14.090  17.160  31.390
  776BOLB   PO218614  13.850  17.080  31.640
  776BOLB   GL318615  13.500  16.960  31.620
  776BOLB   GL418616  13.220  17.060  31.420
  776BOLB   C1C18617  13.220  16.590  31.560
  776BOLB   C2C18618  12.860  16.380  31.520
  776BOLB   C3C18619  12.850  16.000  31.660
  776BOLB   C4C18620  12.540  15.680  31.610
  776BOLB   C1D18621  12.830  16.910  31.510
  776BOLB   C2D18622  12.470  16.650  31.540
  776BOLB   C3D18623  12.020  16.590  31.370
  776BOLB   C4D18624  11.620  16.690  31.040
  777BOLB   NC118625  22.450  23.380  29.890
  777BOLB   PO118626  22.070  23.500  29.610
  777BOLB   GL118627  22.250  23.740  29.560
  777BOLB   GL218628  22.440  23.790  29.210
  777BOLB   C1A18629  22.530  24.020  29.630
  777BOLB   C2A18630  22.430  24.510  29.680
  777BOLB   C3A18631  22.510  24.970  29.900
  777BOLB   C4A18632  22.540  25.310  30.070
  777BOLB   C1B18633  22.900  23.880  29.280
  777BOLB   C2B18634  23.310  23.790  29.430
  777BOLB   C3B18635  23.690  23.810  29.540
  777BOLB   C4B18636  23.960  23.830  29.240
  777BOLB   NC218637  23.950   0.950  29.180
  777BOLB   PO218638  23.980   0.670  29.620
  777BOLB   GL318639  23.710   0.250  29.630
  777BOLB   GL418640  23.880   0.020  29.370
  777BOLB   C1C18641  23.450   0.010  29.740
  777BOLB   C2C18642  23.310  26.140  29.950
  777BOLB   C3C18643  22.810  26.080  29.950
  777BOLB   C4C18644  22.510  25.680  30.170
  777BOLB   C1D18645  24.010  25.940  29.340
  777BOLB   C2D18646  23.950  25.520  29.310
  777BOLB   C3D18647  23.880  25.040  29.270
  777BOLB   C4D18648  23.570  24.650  29.180
  778BOLB   NC118649  25.010  16.310  22.950
  778BOLB   PO118650  25.040  16.530  22.540
  778BOLB   GL118651  25.270  16.560  22.190
  778BOLB   GL218652  25.260  16.940  22.080
  778BOLB   C1A18653  25.540  16.570  21.820
  778BOLB   C2A18654  25.790  16.550  21.400
  778BOLB   C3A18655  26.160  16.520  21.260
  778BOLB   C4A18656  26.545  16.520  21.190
  778BOLB   C1B18657  25.690  17.070  22.050
  778BOLB   C2B18658  25.980  17.300  21.940
  778BOLB   C3B18659  26.400  17.420  21.650
  778BOLB   C4B18660  26.595  17.470  21.330
  778BOLB   NC218661  27.615  18.050  19.810
  778BOLB   PO218662  27.955  17.710  19.980
  778BOLB   GL318663  27.775  17.250  20.200
  778BOLB   GL418664  27.885  17.310  20.560
  778BOLB   C1C18665  27.405  17.250  20.410
  778BOLB   C2C18666  27.265  16.900  20.680
  778BOLB   C3C18667  27.025  16.680  20.700
  778BOLB   C4C18668  26.625  16.550  20.810
  778BOLB   C1D18669  27.765  16.990  20.880
  778BOLB   C2D18670  27.665  16.710  21.160
  778BOLB   C3D18671  27.545  16.460  21.550
  778BOLB   C4D18672  27.285  16.160  21.750
  779BOLB   NC118673  21.620  22.630  30.470
  779BOLB   PO118674  21.970  22.920  30.600
  779BOLB   GL118675  22.320  23.250  30.660
  779BOLB   GL218676  22.650  23.270  30.380
  779BOLB   C1A18677  22.730  23.510  30.800
  779BOLB   C2A18678  22.940  23.780  30.930
  779BOLB   C3A18679  23.340  24.060  30.870
  779BOLB   C4A18680  23.640  24.170  31.140
  779BOLB   C1B18681  22.940  23.500  30.240
  779BOLB   C2B18682  23.330  23.490  30.090
  779BOLB   C3B18683  23.460  23.760  29.970
  779BOLB   C4B18684  23.620  24.050  29.950
  779BOLB   NC218685  25.810  24.990  31.480
  779BOLB   PO218686  25.550  25.050  31.200
  779BOLB   GL318687  25.130  25.170  31.350
  779BOLB   GL418688  24.900  25.160  31.150
  779BOLB   C1C18689  24.660  24.900  31.520
  779BOLB   C2C18690  24.280  24.730  31.830
  779BOLB   C3C18691  23.890  24.440  31.800
  779BOLB   C4C18692  23.660  24.230  31.550
  779BOLB   C1D18693  24.670  25.190  30.810
  779BOLB   C2D18694  24.340  25.370  30.640
  779BOLB   C3D18695  23.800  25.410  30.680
  779BOLB   C4D18696  23.520  25.580  30.450
  780BOLB   NC118697  21.470   8.770  31.030
  780BOLB   PO118698  21.540   8.330  31.120
  780BOLB   GL118699  21.410   7.930  30.910
  780BOLB   GL218700  21.140   8.080  30.860
  780BOLB   C1A18701  21.310   7.480  31.070
  780BOLB   C2A18702  20.930   7.240  31.090
  780BOLB   C3A18703  20.700   6.840  31.230
  780BOLB   C4A18704  20.370   6.740  31.000
  780BOLB   C1B18705  20.960   7.730  30.810
  780BOLB   C2B18706  21.050   7.330  30.590
  780BOLB   C3B18707  20.900   6.940  30.310
  780BOLB   C4B18708  20.660   6.560  30.160
  780BOLB   NC218709  20.890   4.600  30.360
  780BOLB   PO218710  20.740   4.580  30.830
  780BOLB   GL318711  20.560   5.000  30.760
  780BOLB   GL418712  20.260   5.040  30.540
  780BOLB   C1C18713  20.760   5.430  30.870
  780BOLB   C2C18714  20.880   5.740  31.100
  780BOLB   C3C18715  20.710   6.070  31.290
  780BOLB   C4C18716  20.410   6.330  31.060
  780BOLB   C1D18717  19.980   5.360  30.250
  780BOLB   C2D18718  19.900   5.870  30.160
  780BOLB   C3D18719  19.650   5.890  29.810
  780BOLB   C4D18720  19.320   5.710  29.690
  781BOLB   NC118721  28.835  14.130  38.790
  781BOLB   PO118722  28.575  14.130  39.110
  781BOLB   GL118723  28.755  14.410  39.380
  781BOLB   GL218724  28.995  14.280  39.270
  781BOLB   C1A18725  28.895  14.370  39.830
  781BOLB   C2A18726  29.135  14.210  40.230
  781BOLB   C3A18727  29.345  13.930  40.400
  781BOLB   C4A18728  29.725  13.920  40.680
  781BOLB   C1B18729  29.415  14.170  39.290
  781BOLB   C2B18730  29.785  14.250  39.510
  781BOLB   C3B18731  30.115  14.150  39.760
  781BOLB   C4B18732  30.495  14.050  39.640
  781BOLB   NC218733  32.295  14.090  40.570
  781BOLB   PO218734  32.295  14.530  40.630
  781BOLB   GL318735  31.795  14.720  40.610
  781BOLB   GL418736  31.595  14.930  40.520
  781BOLB   C1C18737  31.435  14.390  40.680
  781BOLB   C2C18738  31.075  14.210  40.790
  781BOLB   C3C18739  30.555  14.130  40.630
  781BOLB   C4C18740  30.085  14.200  40.730
  781BOLB   C1D18741  31.225  14.660  40.300
  781BOLB   C2D18742  30.845  14.600  40.570
  781BOLB   C3D18743  30.315  14.710  40.700
  781BOLB   C4D18744  30.055  14.660  40.290
  782BOLB   NC118745  23.650  10.350  45.330
  782BOLB   PO118746  23.430  10.040  45.190
  782BOLB   GL118747  23.410  10.210  44.850
  782BOLB   GL218748  23.370  10.490  44.940
  782BOLB   C1A18749  23.440  10.330  44.400
  782BOLB   C2A18750  23.420  10.490  44.040
  782BOLB   C3A18751  23.210  10.480  43.740
  782BOLB   C4A18752  22.980  10.430  43.430
  782BOLB   C1B18753  23.410  10.710  44.760
  782BOLB   C2B18754  23.390  10.840  44.400
  782BOLB   C3B18755  23.120  10.960  44.130
  782BOLB   C4B18756  22.940  11.430  43.890
  782BOLB   NC218757  22.440   8.080  44.110
  782BOLB   PO218758  22.680   8.470  43.960
  782BOLB   GL318759  22.720   8.740  43.600
  782BOLB   GL418760  22.630   8.640  43.300
  782BOLB   C1C18761  22.700   9.150  43.450
  782BOLB   C2C18762  22.690   9.320  43.090
  782BOLB   C3C18763  22.690   9.710  42.970
  782BOLB   C4C18764  22.670  10.080  43.270
  782BOLB   C1D18765  22.430   8.830  43.090
  782BOLB   C2D18766  22.160   9.180  42.960
  782BOLB   C3D18767  22.320   9.500  42.670
  782BOLB   C4D18768  22.130   9.470  42.260
  783BOLB   NC118769  15.420  21.810  24.010
  783BOLB   PO118770  15.510  22.170  24.310
  783BOLB   GL118771  15.230  22.240  23.980
  783BOLB   GL218772  15.270  22.120  23.600
  783BOLB   C1A18773  14.950  22.410  23.860
  783BOLB   C2A18774  14.570  22.470  23.500
  783BOLB   C3A18775  14.260  22.550  23.320
  783BOLB   C4A18776  13.900  22.460  23.110
  783BOLB   C1B18777  15.480  22.080  23.260
  783BOLB   C2B18778  15.520  22.290  22.880
  783BOLB   C3B18779  15.400  22.600  22.710
  783BOLB   C4B18780  15.150  22.890  22.790
  783BOLB   NC218781  13.130  22.600  20.980
  783BOLB   PO218782  13.450  22.880  21.060
  783BOLB   GL318783  13.640  22.610  21.290
  783BOLB   GL418784  13.890  22.440  21.150
  783BOLB   C1C18785  13.800  22.440  21.620
  783BOLB   C2C18786  14.060  22.130  21.960
  783BOLB   C3C18787  14.130  22.210  22.380
  783BOLB   C4C18788  13.920  22.430  22.640
  783BOLB   C1D18789  14.190  22.780  21.230
  783BOLB   C2D18790  14.410  22.900  21.520
  783BOLB   C3D18791  14.780  23.040  21.570
  783BOLB   C4D18792  14.960  22.620  21.700
  784BOLB   NC118793  18.050  18.820  42.020
  784BOLB   PO118794  18.290  18.770  42.360
  784BOLB   GL118795  18.100  18.650  42.690
  784BOLB   GL218796  18.270  18.510  42.930
  784BOLB   C1A18797  17.770  18.490  42.900
  784BOLB   C2A18798  17.490  18.250  43.200
  784BOLB   C3A18799  17.050  18.390  43.300
  784BOLB   C4A18800  16.940  18.310  43.740
  784BOLB   C1B18801  18.140  18.640  43.260
  784BOLB   C2B18802  18.150  18.530  43.660
  784BOLB   C3B18803  18.050  18.450  44.120
  784BOLB   C4B18804  18.030  18.690  44.540
  784BOLB   NC218805  14.800  18.450  44.340
  784BOLB   PO218806  15.080  18.750  44.520
  784BOLB   GL318807  15.240  18.750  44.160
  784BOLB   GL418808  15.270  18.410  44.040
  784BOLB   C1C18809  15.670  18.790  44.180
  784BOLB   C2C18810  16.140  18.690  44.160
  784BOLB   C3C18811  16.540  18.640  44.310
  784BOLB   C4C18812  16.800  18.290  44.130
  784BOLB   C1D18813  15.560  18.540  43.730
  784BOLB   C2D18814  15.900  18.680  43.560
  784BOLB   C3D18815  16.100  18.800  43.100
  784BOLB   C4D18816  16.270  19.180  43.160
  785BOLB   NC118817  26.130  23.800  26.690
  785BOLB   PO118818  25.920  24.120  26.510
  785BOLB   GL118819  25.520  23.980  26.700
  785BOLB   GL218820  25.320  24.260  26.840
  785BOLB   C1A18821  25.260  23.700  26.890
  785BOLB   C2A18822  24.900  23.870  27.090
  785BOLB   C3A18823  24.510  23.780  27.220
  785BOLB   C4A18824  24.270  23.470  27.480
  785BOLB   C1B18825  25.040  24.110  26.620
  785BOLB   C2B18826  24.630  24.020  26.730
  785BOLB   C3B18827  24.410  23.720  26.790
  785BOLB   C4B18828  24.100  23.460  26.910
  785BOLB   NC218829  22.820  21.590  26.650
  785BOLB   PO218830  22.790  21.500  27.130
  785BOLB   GL318831  23.020  21.840  27.040
  785BOLB   GL418832  23.100  22.020  26.670
  785BOLB   C1C18833  23.220  22.150  27.140
  785BOLB   C2C18834  23.530  22.390  27.110
  785BOLB   C3C18835  23.790  22.670  27.260
  785BOLB   C4C18836  24.090  23.110  27.270
  785BOLB   C1D18837  23.310  22.260  26.650
  785BOLB   C2D18838  23.520  22.570  26.570
  785BOLB   C3D18839  23.890  22.770  26.320
  785BOLB   C4D18840  24.190  23.090  26.120
  786BOLB   NC118841  21.520   9.500  37.060
  786BOLB   PO118842  21.310   9.350  36.770
  786BOLB   GL118843  21.320   8.940  36.840
  786BOLB   GL218844  21.260   8.800  36.540
  786BOLB   C1A18845  21.410   8.470  36.870
  786BOLB   C2A18846  21.530   8.130  36.770
  786BOLB   C3A18847  21.540   7.710  36.640
  786BOLB   C4A18848  21.220   7.460  36.490
  786BOLB   C1B18849  20.830   8.550  36.670
  786BOLB   C2B18850  20.910   8.090  36.920
  786BOLB   C3B18851  21.150   7.660  36.950
  786BOLB   C4B18852  21.290   7.360  37.130
  786BOLB   NC218853  20.600   4.890  37.200
  786BOLB   PO218854  20.970   5.140  37.280
  786BOLB   GL318855  20.990   5.490  37.030
  786BOLB   GL418856  21.250   5.560  37.110
  786BOLB   C1C18857  20.880   5.950  36.940
  786BOLB   C2C18858  20.940   6.290  36.780
  786BOLB   C3C18859  21.070   6.620  36.530
  786BOLB   C4C18860  21.040   7.060  36.380
  786BOLB   C1D18861  21.420   5.860  36.980
  786BOLB   C2D18862  21.480   6.320  36.750
  786BOLB   C3D18863  21.560   6.750  36.630
  786BOLB   C4D18864  21.680   7.200  36.640
  787BOLB   NC118865  19.250  21.260  41.010
  787BOLB   PO118866  19.250  21.500  40.620
  787BOLB   GL118867  19.110  21.760  41.060
  787BOLB   GL218868  18.920  21.610  41.240
  787BOLB   C1A18869  19.060  22.090  41.330
  787BOLB   C2A18870  19.090  22.550  41.570
  787BOLB   C3A18871  19.050  22.780  41.880
  787BOLB   C4A18872  19.170  22.970  42.210
  787BOLB   C1B18873  18.850  21.860  41.650
  787BOLB   C2B18874  18.600  22.030  41.980
  787BOLB   C3B18875  18.720  22.050  42.410
  787BOLB   C4B18876  18.520  22.360  42.750
  787BOLB   NC218877  19.740  24.380  44.560
  787BOLB   PO218878  19.850  24.150  44.240
  787BOLB   GL318879  19.760  24.090  43.890
  787BOLB   GL418880  19.700  23.740  43.990
  787BOLB   C1C18881  19.700  23.790  43.540
  787BOLB   C2C18882  19.780  23.510  43.180
  787BOLB   C3C18883  19.730  23.160  42.930
  787BOLB   C4C18884  19.480  23.090  42.550
  787BOLB   C1D18885  19.760  23.320  43.650
  787BOLB   C2D18886  19.600  23.030  43.410
  787BOLB   C3D18887  19.370  22.830  43.110
  787BOLB   C4D18888  19.090  22.840  42.830
  788BOLB   NC118889  27.655  13.470  39.970
  788BOLB   PO118890  27.615  13.290  40.350
  788BOLB   GL118891  27.895  13.490  40.670
  788BOLB   GL218892  27.895  13.550  40.940
  788BOLB   C1A18893  28.145  13.890  40.680
  788BOLB   C2A18894  28.495  13.910  40.650
  788BOLB   C3A18895  28.995  14.070  40.790
  788BOLB   C4A18896  29.345  14.330  40.780
  788BOLB   C1B18897  27.985  13.450  41.410
  788BOLB   C2B18898  28.115  13.260  41.720
  788BOLB   C3B18899  28.425  13.030  41.970
  788BOLB   C4B18900  28.805  12.900  41.780
  788BOLB   NC218901  30.905  15.160  42.690
  788BOLB   PO218902  31.115  15.050  42.300
  788BOLB   GL318903  30.585  15.130  42.260
  788BOLB   GL418904  30.425  15.270  42.500
  788BOLB   C1C18905  30.365  15.060  41.950
  788BOLB   C2C18906  30.235  14.960  41.630
  788BOLB   C3C18907  30.065  14.770  41.170
  788BOLB   C4C18908  29.765  14.680  40.850
  788BOLB   C1D18909  30.005  15.130  42.320
  788BOLB   C2D18910  29.825  15.050  41.960
  788BOLB   C3D18911  29.355  14.900  41.860
  788BOLB   C4D18912  28.975  15.030  41.750
  789BOLB   NC118913  15.530  15.280  29.290
  789BOLB   PO118914  15.580  14.930  29.050
  789BOLB   GL118915  15.290  14.620  28.780
  789BOLB   GL218916  15.220  14.330  28.940
  789BOLB   C1A18917  14.920  14.520  28.500
  789BOLB   C2A18918  14.530  14.400  28.390
  789BOLB   C3A18919  14.120  14.310  28.360
  789BOLB   C4A18920  13.780  14.210  28.120
  789BOLB   C1B18921  14.760  14.310  28.890
  789BOLB   C2B18922  14.360  14.060  28.770
  789BOLB   C3B18923  13.930  13.900  28.690
  789BOLB   C4B18924  13.560  14.000  28.680
  789BOLB   NC218925  11.830  12.210  27.270
  789BOLB   PO218926  12.110  12.530  27.110
  789BOLB   GL318927  12.410  12.820  27.210
  789BOLB   GL418928  12.450  12.970  26.930
  789BOLB   C1C18929  12.740  13.050  27.430
  789BOLB   C2C18930  12.870  13.380  27.680
  789BOLB   C3C18931  13.240  13.660  27.870
  789BOLB   C4C18932  13.550  13.830  27.990
  789BOLB   C1D18933  12.580  12.930  26.510
  789BOLB   C2D18934  12.760  12.640  26.240
  789BOLB   C3D18935  13.190  12.360  26.210
  789BOLB   C4D18936  13.540  12.160  26.060
  790BOLB   NC118937  29.285  15.250  35.460
  790BOLB   PO118938  28.985  15.530  35.170
  790BOLB   GL118939  29.315  15.790  35.190
  790BOLB   GL218940  29.465  15.850  35.440
  790BOLB   C1A18941  29.605  16.110  34.990
  790BOLB   C2A18942  29.625  16.470  35.250
  790BOLB   C3A18943  29.915  16.700  35.200
  790BOLB   C4A18944  30.235  17.090  35.180
  790BOLB   C1B18945  29.825  16.010  35.390
  790BOLB   C2B18946  30.145  16.180  35.290
  790BOLB   C3B18947  30.475  16.150  35.130
  790BOLB   C4B18948  30.875  16.430  35.280
  790BOLB   NC218949  32.315  18.420  35.860
  790BOLB   PO218950  32.355  18.430  35.410
  790BOLB   GL318951  32.065  18.070  35.550
  790BOLB   GL418952  31.835  18.220  35.750
  790BOLB   C1C18953  31.825  17.810  35.270
  790BOLB   C2C18954  31.415  17.810  35.120
  790BOLB   C3C18955  30.935  17.730  35.180
  790BOLB   C4C18956  30.695  17.290  35.230
  790BOLB   C1D18957  31.575  17.930  35.670
  790BOLB   C2D18958  31.235  17.720  35.630
  790BOLB   C3D18959  31.195  17.300  35.450
  790BOLB   C4D18960  31.215  16.830  35.290
  791BOLB   NC118961  19.040   5.240  32.940
  791BOLB   PO118962  19.350   5.140  33.280
  791BOLB   GL118963  19.650   5.310  33.140
  791BOLB   GL218964  19.560   5.600  33.130
  791BOLB   C1A18965  19.990   5.470  32.980
  791BOLB   C2A18966  20.330   5.450  33.240
  791BOLB   C3A18967  20.750   5.590  33.240
  791BOLB   C4A18968  20.910   6.000  33.230
  791BOLB   C1B18969  19.870   5.820  33.350
  791BOLB   C2B18970  20.290   5.930  33.190
  791BOLB   C3B18971  20.550   6.280  33.160
  791BOLB   C4B18972  20.770   6.670  33.230
  791BOLB   NC218973  21.300   3.790  34.040
  791BOLB   PO218974  21.270   3.940  33.670
  791BOLB   GL318975  21.220   4.390  33.810
  791BOLB   GL418976  21.220   4.650  33.580
  791BOLB   C1C18977  21.170   4.840  34.000
  791BOLB   C2C18978  21.300   5.220  33.810
  791BOLB   C3C18979  21.400   5.610  33.780
  791BOLB   C4C18980  21.260   6.010  33.550
  791BOLB   C1D18981  21.340   5.010  33.320
  791BOLB   C2D18982  21.650   5.200  33.400
  791BOLB   C3D18983  21.980   5.440  33.180
  791BOLB   C4D18984  22.090   5.550  32.790
  792BOLB   NC118985  31.965   9.400  40.100
  792BOLB   PO118986  31.605   9.730  40.210
  792BOLB   GL118987  31.195   9.770  40.320
  792BOLB   GL218988  30.925   9.600  40.480
  792BOLB   C1A18989  30.835  10.040  40.140
  792BOLB   C2A18990  30.585   9.960  39.760
  792BOLB   C3A18991  30.255  10.110  39.550
  792BOLB   C4A18992  29.895  10.320  39.350
  792BOLB   C1B18993  30.475   9.680  40.270
  792BOLB   C2B18994  30.145   9.730  39.980
  792BOLB   C3B18995  29.885   9.670  39.700
  792BOLB   C4B18996  29.495   9.470  39.720
  792BOLB   NC218997  27.645  11.460  38.130
  792BOLB   PO218998  27.955  11.330  38.230
  792BOLB   GL318999  28.395  11.250  38.520
  792BOLB   GL419000  28.405  10.920  38.680
  792BOLB   C1C19001  28.845  11.390  38.670
  792BOLB   C2C19002  29.065  11.220  39.110
  792BOLB   C3C19003  29.285  10.840  39.360
  792BOLB   C4C19004  29.485  10.500  39.260
  792BOLB   C1D19005  28.885  10.870  38.670
  792BOLB   C2D19006  29.415  10.830  38.890
  792BOLB   C3D19007  29.875  10.780  38.950
  792BOLB   C4D19008  30.225  10.760  39.250
  793BOLB   NC119009  16.690  21.010  39.680
  793BOLB   PO119010  16.940  20.750  39.850
  793BOLB   GL119011  16.860  21.010  40.170
  793BOLB   GL219012  16.960  21.320  40.200
  793BOLB   C1A19013  16.470  21.070  40.460
  793BOLB   C2A19014  16.150  21.130  40.910
  793BOLB   C3A19015  15.970  21.350  41.340
  793BOLB   C4A19016  15.890  21.430  41.830
  793BOLB   C1B19017  16.750  21.450  40.480
  793BOLB   C2B19018  16.460  21.560  40.690
  793BOLB   C3B19019  16.060  21.640  40.930
  793BOLB   C4B19020  15.710  21.940  41.030
  793BOLB   NC219021  13.790  20.990  42.910
  793BOLB   PO219022  13.840  21.360  43.120
  793BOLB   GL319023  14.190  21.480  42.800
  793BOLB   GL419024  14.410  21.730  42.840
  793BOLB   C1C19025  14.600  21.310  42.620
  793BOLB   C2C19026  14.830  21.290  42.380
  793BOLB   C3C19027  15.220  21.420  42.390
  793BOLB   C4C19028  15.690  21.260  42.260
  793BOLB   C1D19029  14.840  21.760  42.690
  793BOLB   C2D19030  15.190  21.950  42.540
  793BOLB   C3D19031  15.550  21.770  42.360
  793BOLB   C4D19032  15.910  21.710  42.320
  794BOLB   NC119033  15.470  14.870  36.960
  794BOLB   PO119034  15.170  14.980  37.210
  794BOLB   GL119035  14.920  14.640  37.060
  794BOLB   GL219036  14.610  14.880  36.910
  794BOLB   C1A19037  14.640  14.290  37.120
  794BOLB   C2A19038  14.220  14.210  37.350
  794BOLB   C3A19039  13.860  14.040  37.530
  794BOLB   C4A19040  13.430  14.080  37.490
  794BOLB   C1B19041  14.200  14.750  37.010
  794BOLB   C2B19042  13.830  14.460  37.090
  794BOLB   C3B19043  13.450  14.620  37.060
  794BOLB   C4B19044  12.910  14.500  37.110
  794BOLB   NC219045  11.740  13.770  38.720
  794BOLB   PO219046  11.500  13.760  38.360
  794BOLB   GL319047  11.700  13.910  38.040
  794BOLB   GL419048  12.000  13.890  38.230
  794BOLB   C1C19049  11.910  14.100  37.770
  794BOLB   C2C19050  12.230  14.070  37.480
  794BOLB   C3C19051  12.580  14.080  37.310
  794BOLB   C4C19052  12.980  14.100  37.420
  794BOLB   C1D19053  12.380  13.910  37.960
  794BOLB   C2D19054  12.620  14.220  37.780
  794BOLB   C3D19055  12.570  14.560  37.380
  794BOLB   C4D19056  12.600  14.830  37.010
  795BOLB   NC119057  26.250   4.810  39.810
  795BOLB   PO119058  26.350   5.000  39.390
  795BOLB   GL119059  26.360   5.250  39.070
  795BOLB   GL219060  26.160   5.490  39.240
  795BOLB   C1A19061  26.605   5.420  38.650
  795BOLB   C2A19062  26.755   5.620  38.280
  795BOLB   C3A19063  26.915   5.880  37.930
  795BOLB   C4A19064  27.215   5.980  37.520
  795BOLB   C1B19065  26.120   5.730  38.900
  795BOLB   C2B19066  25.880   5.760  38.540
  795BOLB   C3B19067  26.050   5.930  38.130
  795BOLB   C4B19068  26.050   5.930  37.670
  795BOLB   NC219069  27.545   3.470  37.330
  795BOLB   PO219070  27.455   3.840  37.110
  795BOLB   GL319071  27.445   4.260  36.900
  795BOLB   GL419072  27.595   4.480  36.780
  795BOLB   C1C19073  27.175   4.640  36.930
  795BOLB   C2C19074  27.185   5.070  36.790
  795BOLB   C3C19075  27.455   5.350  36.960
  795BOLB   C4C19076  27.355   5.680  37.250
  795BOLB   C1D19077  27.565   4.810  36.560
  795BOLB   C2D19078  27.545   5.170  36.430
  795BOLB   C3D19079  27.605   5.590  36.520
  795BOLB   C4D19080  27.425   5.950  36.630
  796BOLB   NC119081  14.300  19.410  26.090
  796BOLB   PO119082  14.030  19.810  26.050
  796BOLB   GL119083  13.850  20.180  25.980
  796BOLB   GL219084  13.700  20.310  26.270
  796BOLB   C1A19085  13.710  20.380  25.550
  796BOLB   C2A19086  13.400  20.300  25.300
  796BOLB   C3A19087  13.110  20.630  25.250
  796BOLB   C4A19088  12.770  20.960  25.260
  796BOLB   C1B19089  13.330  20.300  25.920
  796BOLB   C2B19090  13.020  20.500  25.720
  796BOLB   C3B19091  12.690  20.370  25.500
  796BOLB   C4B19092  12.290  20.170  25.450
  796BOLB   NC219093  10.020  21.990  25.470
  796BOLB   PO219094  10.290  21.670  25.300
  796BOLB   GL319095  10.730  21.710  25.410
  796BOLB   GL419096  10.780  21.910  25.180
  796BOLB   C1C19097  11.220  21.580  25.500
  796BOLB   C2C19098  11.660  21.550  25.370
  796BOLB   C3C19099  11.950  21.320  25.230
  796BOLB   C4C19100  12.400  21.170  25.150
  796BOLB   C1D19101  11.190  22.080  25.310
  796BOLB   C2D19102  11.460  22.030  25.530
  796BOLB   C3D19103  11.940  22.000  25.490
  796BOLB   C4D19104  12.260  21.720  25.530
  797BOLB   NC119105  21.670  23.620  34.040
  797BOLB   PO119106  21.660  23.710  34.460
  797BOLB   GL119107  21.620  24.030  34.600
  797BOLB   GL219108  21.980  24.140  34.680
  797BOLB   C1A19109  21.540  24.400  34.490
  797BOLB   C2A19110  21.630  24.890  34.350
  797BOLB   C3A19111  21.790  25.310  34.170
  797BOLB   C4A19112  21.880  25.670  33.800
  797BOLB   C1B19113  21.940  24.590  34.770
  797BOLB   C2B19114  21.940  25.040  34.690
  797BOLB   C3B19115  22.140  25.380  34.570
  797BOLB   C4B19116  22.240  25.790  34.650
  797BOLB   NC219117  22.560   1.530  33.480
  797BOLB   PO219118  22.980   1.370  33.470
  797BOLB   GL319119  22.760   1.210  33.830
  797BOLB   GL419120  22.880   1.040  34.160
  797BOLB   C1C19121  22.550   0.790  33.820
  797BOLB   C2C19122  22.520   0.370  33.730
  797BOLB   C3C19123  22.330   0.040  33.630
  797BOLB   C4C19124  22.020  26.190  33.770
  797BOLB   C1D19125  22.820   0.650  34.270
  797BOLB   C2D19126  22.530   0.360  34.220
  797BOLB   C3D19127  22.280   0.030  34.210
  797BOLB   C4D19128  21.880  26.100  34.250
  798BOLB   NC119129  15.880  14.290  28.050
  798BOLB   PO119130  15.930  13.910  28.030
  798BOLB   GL119131  15.720  13.940  27.610
  798BOLB   GL219132  15.770  13.680  27.360
  798BOLB   C1A19133  15.270  13.860  27.450
  798BOLB   C2A19134  15.030  13.550  27.520
  798BOLB   C3A19135  14.650  13.230  27.390
  798BOLB   C4A19136  14.250  13.240  27.150
  798BOLB   C1B19137  15.440  13.390  27.250
  798BOLB   C2B19138  15.210  13.070  27.340
  798BOLB   C3B19139  14.890  12.690  27.180
  798BOLB   C4B19140  14.830  12.290  27.000
  798BOLB   NC219141  12.580  11.900  27.430
  798BOLB   PO219142  12.360  11.670  27.730
  798BOLB   GL319143  12.640  12.070  27.970
  798BOLB   GL419144  12.480  12.520  27.920
  798BOLB   C1C19145  13.020  12.190  27.860
  798BOLB   C2C19146  13.350  12.470  27.680
  798BOLB   C3C19147  13.550  12.740  27.360
  798BOLB   C4C19148  13.770  13.140  27.240
  798BOLB   C1D19149  12.840  12.640  27.700
  798BOLB   C2D19150  13.200  12.930  27.570
  798BOLB   C3D19151  13.380  13.240  27.540
  798BOLB   C4D19152  13.760  13.390  27.760
  799BOLB   NC119153  25.070  19.920  40.060
  799BOLB   PO119154  24.960  20.290  40.030
  799BOLB   GL119155  25.160  20.570  40.200
  799BOLB   GL219156  25.520  20.540  40.190
  799BOLB   C1A19157  25.300  21.060  40.250
  799BOLB   C2A19158  25.670  21.180  40.440
  799BOLB   C3A19159  26.000  21.250  40.660
  799BOLB   C4A19160  25.980  21.690  40.890
  799BOLB   C1B19161  25.730  20.820  40.080
  799BOLB   C2B19162  26.050  20.900  40.290
  799BOLB   C3B19163  26.410  21.010  40.530
  799BOLB   C4B19164  26.440  21.370  40.830
  799BOLB   NC219165  27.565  23.390  42.780
  799BOLB   PO219166  27.365  23.050  42.650
  799BOLB   GL319167  27.215  22.740  42.320
  799BOLB   GL419168  27.215  22.510  42.580
  799BOLB   C1C19169  26.865  22.620  41.920
  799BOLB   C2C19170  26.635  22.440  41.530
  799BOLB   C3C19171  26.445  22.330  41.120
  799BOLB   C4C19172  26.100  22.180  40.860
  799BOLB   C1D19173  27.075  22.260  42.180
  799BOLB   C2D19174  26.885  22.140  41.840
  799BOLB   C3D19175  26.485  21.980  41.660
  799BOLB   C4D19176  26.100  21.690  41.460
  800BOLB   NC119177  25.560  25.760  27.390
  800BOLB   PO119178  25.220  25.500  27.600
  800BOLB   GL119179  25.040  25.160  27.800
  800BOLB   GL219180  25.000  25.060  28.160
  800BOLB   C1A19181  24.910  24.720  27.720
  800BOLB   C2A19182  24.440  24.730  27.670
  800BOLB   C3A19183  24.100  24.680  27.430
  800BOLB   C4A19184  23.850  24.300  27.280
  800BOLB   C1B19185  24.540  24.880  28.210
  800BOLB   C2B19186  24.330  24.530  28.130
  800BOLB   C3B19187  23.960  24.340  28.250
  800BOLB   C4B19188  23.540  24.180  28.200
  800BOLB   NC219189  25.040  25.570  27.120
  800BOLB   PO219190  25.030  25.340  26.630
  800BOLB   GL319191  24.630  25.160  26.790
  800BOLB   GL419192  24.510  25.430  26.980
  800BOLB   C1C19193  24.380  24.780  26.910
  800BOLB   C2C19194  24.030  24.640  26.900
  800BOLB   C3C19195  23.690  24.480  26.740
  800BOLB   C4C19196  23.590  24.160  26.910
  800BOLB   C1D19197  24.100  25.210  26.720
  800BOLB   C2D19198  23.770  25.060  26.510
  800BOLB   C3D19199  23.360  24.780  26.390
  800BOLB   C4D19200  22.940  24.500  26.250
  801BOLB   NC119201  10.940  24.480  27.090
  801BOLB   PO119202  10.830  24.070  27.170
  801BOLB   GL119203  11.260  24.030  27.130
  801BOLB   GL219204  11.330  24.130  26.910
  801BOLB   C1A19205  11.640  24.170  27.350
  801BOLB   C2A19206  11.520  24.160  27.830
  801BOLB   C3A19207  11.830  24.120  28.110
  801BOLB   C4A19208  11.930  23.900  28.390
  801BOLB   C1B19209  11.340  23.580  27.060
  801BOLB   C2B19210  11.550  23.280  27.370
  801BOLB   C3B19211  11.890  23.110  27.420
  801BOLB   C4B19212  12.310  22.980  27.490
  801BOLB   NC219213  10.790  25.670  30.010
  801BOLB   PO219214  10.920  25.840  29.610
  801BOLB   GL319215  11.140  25.440  29.580
  801BOLB   GL419216  11.400  25.440  29.750
  801BOLB   C1C19217  11.350  25.140  29.380
  801BOLB   C2C19218  11.660  24.820  29.200
  801BOLB   C3C19219  11.650  24.310  29.110
  801BOLB   C4C19220  11.820  24.080  28.850
  801BOLB   C1D19221  11.610  25.310  30.110
  801BOLB   C2D19222  11.890  24.990  30.320
  801BOLB   C3D19223  12.120  24.590  30.680
  801BOLB   C4D19224  12.360  24.490  30.990
  802BOLB   NC119225  24.390  11.810  17.870
  802BOLB   PO119226  24.360  11.500  18.220
  802BOLB   GL119227  24.270  11.720  18.650
  802BOLB   GL219228  24.490  11.950  18.640
  802BOLB   C1A19229  23.860  11.730  18.810
  802BOLB   C2A19230  23.520  11.710  19.130
  802BOLB   C3A19231  23.130  11.840  19.270
  802BOLB   C4A19232  22.760  11.980  19.360
  802BOLB   C1B19233  24.310  11.970  19.090
  802BOLB   C2B19234  24.140  12.410  19.290
  802BOLB   C3B19235  23.880  12.510  19.630
  802BOLB   C4B19236  23.670  12.250  19.960
  802BOLB   NC219237  21.610  11.310  18.100
  802BOLB   PO219238  21.740  10.990  18.350
  802BOLB   GL319239  21.750  11.310  18.640
  802BOLB   GL419240  21.960  11.200  18.930
  802BOLB   C1C19241  21.730  11.690  18.880
  802BOLB   C2C19242  21.640  12.020  19.130
  802BOLB   C3C19243  21.910  12.150  19.370
  802BOLB   C4C19244  22.360  12.070  19.550
  802BOLB   C1D19245  22.300  11.520  18.800
  802BOLB   C2D19246  22.470  11.920  18.710
  802BOLB   C3D19247  22.900  11.930  18.600
  802BOLB   C4D19248  23.300  11.830  18.700
  803BOLB   NC119249  21.090   9.610  26.080
  803BOLB   PO119250  21.520   9.450  25.950
  803BOLB   GL119251  21.390   9.040  25.840
  803BOLB   GL219252  21.120   8.940  26.140
  803BOLB   C1A19253  21.460   8.780  25.500
  803BOLB   C2A19254  21.210   8.750  25.160
  803BOLB   C3A19255  20.790   8.650  24.860
  803BOLB   C4A19256  20.390   8.450  24.850
  803BOLB   C1B19257  20.840   8.610  26.250
  803BOLB   C2B19258  20.590   8.210  26.290
  803BOLB   C3B19259  20.210   7.920  26.090
  803BOLB   C4B19260  19.860   7.500  26.240
  803BOLB   NC219261  19.140   6.070  23.430
  803BOLB   PO219262  19.220   6.500  23.670
  803BOLB   GL319263  19.320   6.890  23.930
  803BOLB   GL419264  19.080   7.190  24.090
  803BOLB   C1C19265  19.580   7.200  24.190
  803BOLB   C2C19266  19.860   7.310  24.540
  803BOLB   C3C19267  20.030   7.680  24.680
  803BOLB   C4C19268  20.290   8.130  24.770
  803BOLB   C1D19269  19.020   7.560  24.140
  803BOLB   C2D19270  19.330   7.990  24.180
  803BOLB   C3D19271  19.580   8.310  24.240
  803BOLB   C4D19272  19.680   8.760  24.290
  804BOLB   NC119273  20.820   9.130  28.650
  804BOLB   PO119274  20.550   9.270  28.940
  804BOLB   GL119275  20.330   8.960  28.750
  804BOLB   GL219276  20.030   9.060  28.610
  804BOLB   C1A19277  20.470   8.570  28.680
  804BOLB   C2A19278  20.390   8.110  28.540
  804BOLB   C3A19279  20.190   7.840  28.320
  804BOLB   C4A19280  20.240   7.440  28.160
  804BOLB   C1B19281  19.620   8.950  28.520
  804BOLB   C2B19282  19.450   8.530  28.420
  804BOLB   C3B19283  19.460   8.100  28.310
  804BOLB   C4B19284  19.630   7.700  28.460
  804BOLB   NC219285  20.670   5.220  26.220
  804BOLB   PO219286  20.470   5.440  26.580
  804BOLB   GL319287  20.280   5.820  26.820
  804BOLB   GL419288  20.430   6.020  26.660
  804BOLB   C1C19289  20.120   6.180  27.040
  804BOLB   C2C19290  20.080   6.640  27.100
  804BOLB   C3C19291  20.050   7.070  27.360
  804BOLB   C4C19292  20.050   7.250  27.730
  804BOLB   C1D19293  20.730   6.350  26.370
  804BOLB   C2D19294  21.220   6.370  26.300
  804BOLB   C3D19295  21.470   6.370  26.470
  804BOLB   C4D19296  21.630   6.350  26.930
  805BOLB   NC119297  13.170  18.770  32.340
  805BOLB   PO119298  13.440  18.630  32.120
  805BOLB   GL119299  13.030  18.690  31.900
  805BOLB   GL219300  13.030  18.700  31.530
  805BOLB   C1A19301  12.690  18.950  31.920
  805BOLB   C2A19302  12.240  18.910  31.850
  805BOLB   C3A19303  11.980  18.630  31.790
  805BOLB   C4A19304  11.580  18.490  32.040
  805BOLB   C1B19305  12.560  18.780  31.460
  805BOLB   C2B19306  12.100  18.910  31.370
  805BOLB   C3B19307  11.720  18.900  31.430
  805BOLB   C4B19308  11.480  18.900  31.740
  805BOLB   NC219309   9.480  17.800  31.300
  805BOLB   PO219310   9.560  17.490  31.640
  805BOLB   GL319311   9.870  17.620  31.740
  805BOLB   GL419312   9.960  17.930  31.780
  805BOLB   C1C19313  10.320  17.600  31.820
  805BOLB   C2C19314  10.760  17.880  31.990
  805BOLB   C3C19315  11.080  18.130  31.940
  805BOLB   C4C19316  11.130  18.490  32.080
  805BOLB   C1D19317  10.400  18.060  31.730
  805BOLB   C2D19318  10.750  18.170  31.450
  805BOLB   C3D19319  11.070  18.450  31.530
  805BOLB   C4D19320  11.460  18.400  31.560
  806BOLB   NC119321  15.200  16.160  37.820
  806BOLB   PO119322  14.750  16.180  37.760
  806BOLB   GL119323  14.330  16.070  37.920
  806BOLB   GL219324  14.050  16.190  37.900
  806BOLB   C1A19325  14.230  15.960  38.310
  806BOLB   C2A19326  13.940  15.820  38.620
  806BOLB   C3A19327  13.770  15.510  38.830
  806BOLB   C4A19328  13.610  15.430  39.160
  806BOLB   C1B19329  13.740  16.120  37.710
  806BOLB   C2B19330  13.470  16.430  37.840
  806BOLB   C3B19331  13.080  16.620  38.030
  806BOLB   C4B19332  12.790  16.790  38.390
  806BOLB   NC219333  11.970  14.740  41.240
  806BOLB   PO219334  12.280  14.580  41.120
  806BOLB   GL319335  12.580  14.920  40.920
  806BOLB   GL419336  12.680  15.220  41.000
  806BOLB   C1C19337  12.660  14.990  40.570
  806BOLB   C2C19338  12.930  15.180  40.180
  806BOLB   C3C19339  13.040  15.430  39.820
  806BOLB   C4C19340  13.180  15.550  39.400
  806BOLB   C1D19341  13.060  15.010  41.010
  806BOLB   C2D19342  13.530  15.050  40.790
  806BOLB   C3D19343  13.940  15.080  40.680
  806BOLB   C4D19344  14.160  15.080  40.240
  807BOLB   NC119345  28.735  13.860  27.640
  807BOLB   PO119346  28.965  13.520  27.510
  807BOLB   GL119347  29.225  13.800  27.440
  807BOLB   GL219348  29.315  13.700  27.170
  807BOLB   C1A19349  29.235  14.210  27.130
  807BOLB   C2A19350  29.595  14.430  27.210
  807BOLB   C3A19351  29.855  14.680  27.530
  807BOLB   C4A19352  30.075  14.810  27.890
  807BOLB   C1B19353  29.645  13.950  27.260
  807BOLB   C2B19354  30.105  13.820  27.240
  807BOLB   C3B19355  30.475  13.950  27.240
  807BOLB   C4B19356  30.655  14.270  27.320
  807BOLB   NC219357  32.445  16.170  26.710
  807BOLB   PO219358  32.165  16.300  27.090
  807BOLB   GL319359  31.995  16.020  27.420
  807BOLB   GL419360  31.835  16.240  27.510
  807BOLB   C1C19361  31.765  15.830  27.760
  807BOLB   C2C19362  31.355  15.490  27.830
  807BOLB   C3C19363  30.925  15.300  27.750
  807BOLB   C4C19364  30.395  15.160  27.740
  807BOLB   C1D19365  31.455  16.340  27.650
  807BOLB   C2D19366  31.145  16.170  27.950
  807BOLB   C3D19367  30.785  16.250  28.150
  807BOLB   C4D19368  30.445  16.180  28.440
  808BOLB   NC119369  20.120  23.180  26.540
  808BOLB   PO119370  20.440  23.110  26.270
  808BOLB   GL119371  20.830  23.310  26.190
  808BOLB   GL219372  20.670  23.530  26.020
  808BOLB   C1A19373  21.140  23.550  26.220
  808BOLB   C2A19374  21.240  24.000  26.030
  808BOLB   C3A19375  21.390  24.110  25.630
  808BOLB   C4A19376  21.450  24.240  25.320
  808BOLB   C1B19377  20.790  23.890  25.840
  808BOLB   C2B19378  20.880  24.280  25.600
  808BOLB   C3B19379  20.720  24.650  25.430
  808BOLB   C4B19380  20.700  25.040  25.330
  808BOLB   NC219381  23.240  25.580  25.080
  808BOLB   PO219382  22.960  25.770  24.770
  808BOLB   GL319383  22.970  25.260  24.810
  808BOLB   GL419384  23.170  25.120  24.940
  808BOLB   C1C19385  22.450  25.040  24.860
  808BOLB   C2C19386  22.090  25.200  24.970
  808BOLB   C3C19387  21.790  24.940  25.130
  808BOLB   C4C19388  21.530  24.560  25.150
  808BOLB   C1D19389  22.880  24.750  24.980
  808BOLB   C2D19390  22.580  24.460  25.250
  808BOLB   C3D19391  22.550  24.120  25.510
  808BOLB   C4D19392  22.480  24.170  25.940
  809BOLB   NC119393  18.060  15.040  40.200
  809BOLB   PO119394  17.720  14.750  40.440
  809BOLB   GL119395  17.280  14.740  40.630
  809BOLB   GL219396  17.260  14.410  40.480
  809BOLB   C1A19397  17.050  14.550  40.920
  809BOLB   C2A19398  16.630  14.400  41.040
  809BOLB   C3A19399  16.300  14.110  41.100
  809BOLB   C4A19400  16.240  13.690  41.340
  809BOLB   C1B19401  16.890  14.190  40.540
  809BOLB   C2B19402  16.600  13.920  40.790
  809BOLB   C3B19403  16.480  13.490  40.880
  809BOLB   C4B19404  16.660  13.320  41.260
  809BOLB   NC219405  14.320  12.130  42.500
  809BOLB   PO219406  14.550  12.350  42.120
  809BOLB   GL319407  14.860  12.370  41.830
  809BOLB   GL419408  14.800  12.100  41.590
  809BOLB   C1C19409  14.970  12.650  41.620
  809BOLB   C2C19410  15.270  12.760  41.470
  809BOLB   C3C19411  15.600  13.070  41.400
  809BOLB   C4C19412  15.870  13.470  41.380
  809BOLB   C1D19413  15.200  12.160  41.490
  809BOLB   C2D19414  15.550  12.080  41.650
  809BOLB   C3D19415  15.760  11.730  41.750
  809BOLB   C4D19416  15.990  11.420  41.580
  810BOLB   NC119417  14.120  22.100  33.060
  810BOLB   PO119418  13.810  21.790  33.000
  810BOLB   GL119419  13.390  21.950  32.930
  810BOLB   GL219420  13.200  21.710  33.060
  810BOLB   C1A19421  13.070  22.260  32.870
  810BOLB   C2A19422  12.770  22.510  32.780
  810BOLB   C3A19423  12.410  22.470  32.680
  810BOLB   C4A19424  12.010  22.580  32.470
  810BOLB   C1B19425  12.840  21.850  33.290
  810BOLB   C2B19426  12.430  22.010  33.490
  810BOLB   C3B19427  12.070  21.960  33.660
  810BOLB   C4B19428  11.680  22.060  33.740
  810BOLB   NC219429   9.410  23.030  31.550
  810BOLB   PO219430   9.590  23.260  31.960
  810BOLB   GL319431   9.880  23.080  32.070
  810BOLB   GL419432   9.980  23.000  32.410
  810BOLB   C1C19433  10.350  22.850  31.980
  810BOLB   C2C19434  10.760  22.830  31.910
  810BOLB   C3C19435  11.220  22.590  31.880
  810BOLB   C4C19436  11.660  22.630  32.130
  810BOLB   C1D19437  10.310  22.820  32.550
  810BOLB   C2D19438  10.720  22.870  32.400
  810BOLB   C3D19439  11.120  22.830  32.320
  810BOLB   C4D19440  11.450  23.060  32.450
  811BOLB   NC119441  17.810  17.060  41.810
  811BOLB   PO119442  17.780  17.450  41.790
  811BOLB   GL119443  17.370  17.360  41.960
  811BOLB   GL219444  17.040  17.160  41.810
  811BOLB   C1A19445  17.300  16.980  42.240
  811BOLB   C2A19446  17.120  16.710  42.600
  811BOLB   C3A19447  16.720  16.590  42.480
  811BOLB   C4A19448  16.270  16.660  42.520
  811BOLB   C1B19449  16.790  16.810  41.900
  811BOLB   C2B19450  16.360  16.670  42.020
  811BOLB   C3B19451  15.930  16.700  42.040
  811BOLB   C4B19452  15.760  16.460  42.380
  811BOLB   NC219453  14.390  16.430  44.030
  811BOLB   PO219454  14.480  16.800  43.820
  811BOLB   GL319455  14.650  16.560  43.620
  811BOLB   GL419456  14.610  16.280  43.460
  811BOLB   C1C19457  14.970  16.650  43.330
  811BOLB   C2C19458  15.360  16.580  43.050
  811BOLB   C3C19459  15.580  16.810  42.720
  811BOLB   C4C19460  15.870  16.880  42.550
  811BOLB   C1D19461  14.610  15.920  43.130
  811BOLB   C2D19462  14.600  15.800  42.720
  811BOLB   C3D19463  14.830  16.100  42.380
  811BOLB   C4D19464  15.190  16.070  42.180
  812BOLB   NC119465  16.430  24.600  31.120
  812BOLB   PO119466  16.140  24.420  31.000
  812BOLB   GL119467  15.970  24.660  30.660
  812BOLB   GL219468  15.920  24.870  30.810
  812BOLB   C1A19469  15.720  24.780  30.300
  812BOLB   C2A19470  15.440  25.130  30.190
  812BOLB   C3A19471  15.230  25.410  30.410
  812BOLB   C4A19472  15.110  25.810  30.540
  812BOLB   C1B19473  15.550  25.010  30.800
  812BOLB   C2B19474  15.350  25.430  30.850
  812BOLB   C3B19475  15.030  25.670  31.010
  812BOLB   C4B19476  14.680  25.880  31.150
  812BOLB   NC219477  13.500   0.780  30.130
  812BOLB   PO219478  13.720   1.000  29.990
  812BOLB   GL319479  13.960   0.580  30.190
  812BOLB   GL419480  14.020   0.470  29.860
  812BOLB   C1C19481  13.860   0.340  30.440
  812BOLB   C2C19482  14.130   0.120  30.670
  812BOLB   C3C19483  14.390  26.300  30.800
  812BOLB   C4C19484  14.770  26.110  30.630
  812BOLB   C1D19485  14.410   0.400  30.040
  812BOLB   C2D19486  14.910   0.480  30.200
  812BOLB   C3D19487  15.160   0.510  30.490
  812BOLB   C4D19488  15.310   0.150  30.860
  813BOLB   NC119489  24.570  16.370  22.630
  813BOLB   PO119490  24.850  16.130  22.260
  813BOLB   GL119491  25.370  16.060  22.160
  813BOLB   GL219492  25.530  15.800  22.110
  813BOLB   C1A19493  25.790  16.220  22.050
  813BOLB   C2A19494  26.150  16.340  21.800
  813BOLB   C3A19495  26.545  16.180  21.840
  813BOLB   C4A19496  26.835  16.070  21.610
  813BOLB   C1B19497  25.720  15.780  21.710
  813BOLB   C2B19498  26.000  15.950  21.490
  813BOLB   C3B19499  26.380  16.050  21.340
  813BOLB   C4B19500  26.725  16.090  21.020
  813BOLB   NC219501  28.975  16.290  19.800
  813BOLB   PO219502  28.665  16.290  20.220
  813BOLB   GL319503  28.335  16.280  20.530
  813BOLB   GL419504  28.365  16.370  20.890
  813BOLB   C1C19505  27.975  16.090  20.540
  813BOLB   C2C19506  27.595  15.910  20.830
  813BOLB   C3C19507  27.305  15.680  21.090
  813BOLB   C4C19508  26.955  15.820  21.380
  813BOLB   C1D19509  27.925  16.240  21.080
  813BOLB   C2D19510  27.625  15.900  21.370
  813BOLB   C3D19511  27.335  15.650  21.610
  813BOLB   C4D19512  27.315  15.260  21.850
  814BOLB   NC119513  26.410   4.830  25.730
  814BOLB   PO119514  26.755   4.850  25.510
  814BOLB   GL119515  26.605   5.270  25.620
  814BOLB   GL219516  26.875   5.430  25.800
  814BOLB   C1A19517  26.320   5.680  25.450
  814BOLB   C2A19518  26.110   6.130  25.370
  814BOLB   C3A19519  25.940   6.550  25.210
  814BOLB   C4A19520  25.530   6.830  25.050
  814BOLB   C1B19521  26.735   5.670  26.110
  814BOLB   C2B19522  26.465   6.000  25.980
  814BOLB   C3B19523  26.240   6.370  25.940
  814BOLB   C4B19524  26.320   6.730  25.650
  814BOLB   NC219525  23.590   5.490  23.930
  814BOLB   PO219526  23.790   5.260  24.180
  814BOLB   GL319527  24.030   5.560  24.190
  814BOLB   GL419528  23.930   5.860  24.020
  814BOLB   C1C19529  24.370   5.960  24.150
  814BOLB   C2C19530  24.680   6.100  24.520
  814BOLB   C3C19531  24.960   6.500  24.500
  814BOLB   C4C19532  25.210   6.710  24.700
  814BOLB   C1D19533  23.770   6.050  24.460
  814BOLB   C2D19534  23.690   6.310  24.820
  814BOLB   C3D19535  23.600   6.660  24.980
  814BOLB   C4D19536  23.640   7.020  25.140
  815BOLB   NC119537  14.940  15.880  28.270
  815BOLB   PO119538  15.210  15.570  28.040
  815BOLB   GL119539  14.870  15.330  28.100
  815BOLB   GL219540  14.670  15.410  28.270
  815BOLB   C1A19541  14.450  15.250  27.780
  815BOLB   C2A19542  14.080  15.110  27.950
  815BOLB   C3A19543  13.780  14.730  27.990
  815BOLB   C4A19544  13.430  14.570  27.910
  815BOLB   C1B19545  14.430  15.080  28.280
  815BOLB   C2B19546  14.100  14.810  28.380
  815BOLB   C3B19547  13.840  14.720  28.630
  815BOLB   C4B19548  13.420  14.600  28.860
  815BOLB   NC219549  11.100  14.320  26.980
  815BOLB   PO219550  11.350  14.170  27.230
  815BOLB   GL319551  11.750  13.950  27.440
  815BOLB   GL419552  11.960  14.080  27.260
  815BOLB   C1C19553  12.170  13.750  27.570
  815BOLB   C2C19554  12.560  13.750  27.590
  815BOLB   C3C19555  12.940  13.960  27.620
  815BOLB   C4C19556  13.280  14.200  27.700
  815BOLB   C1D19557  12.420  13.950  27.130
  815BOLB   C2D19558  12.800  14.060  27.070
  815BOLB   C3D19559  13.100  14.250  27.270
  815BOLB   C4D19560  13.390  14.620  27.360
  816BOLB   NC119561  15.020  23.030  35.160
  816BOLB   PO119562  15.030  23.380  34.960
  816BOLB   GL119563  14.800  23.560  35.310
  816BOLB   GL219564  15.090  23.450  35.470
  816BOLB   C1A19565  14.540  23.450  35.520
  816BOLB   C2A19566  14.200  23.400  35.910
  816BOLB   C3A19567  13.840  23.630  36.100
  816BOLB   C4A19568  13.830  24.020  36.350
  816BOLB   C1B19569  14.870  23.790  35.720
  816BOLB   C2B19570  14.640  24.110  35.810
  816BOLB   C3B19571  14.460  24.460  35.710
  816BOLB   C4B19572  14.310  24.840  35.370
  816BOLB   NC219573  12.290  26.260  36.500
  816BOLB   PO219574  12.400  25.870  36.480
  816BOLB   GL319575  12.660  25.630  36.760
  816BOLB   GL419576  12.780  25.500  37.050
  816BOLB   C1C19577  13.050  25.480  36.580
  816BOLB   C2C19578  13.330  25.190  36.370
  816BOLB   C3C19579  13.600  24.820  36.310
  816BOLB   C4C19580  13.770  24.440  36.350
  816BOLB   C1D19581  13.130  25.320  37.020
  816BOLB   C2D19582  13.270  25.010  36.980
  816BOLB   C3D19583  13.810  25.070  37.080
  816BOLB   C4D19584  14.170  24.830  36.910
  817BOLB   NC119585  13.220  19.820  32.130
  817BOLB   PO119586  13.210  20.240  32.050
  817BOLB   GL119587  12.860  20.160  32.300
  817BOLB   GL219588  12.790  19.810  32.370
  817BOLB   C1A19589  12.380  20.250  32.400
  817BOLB   C2A19590  11.990  20.150  32.420
  817BOLB   C3A19591  11.730  20.310  32.120
  817BOLB   C4A19592  11.370  20.160  31.980
  817BOLB   C1B19593  12.400  19.770  32.500
  817BOLB   C2B19594  11.970  19.700  32.470
  817BOLB   C3B19595  11.660  19.420  32.290
  817BOLB   C4B19596  11.170  19.320  32.380
  817BOLB   NC219597   8.940  19.780  32.280
  817BOLB   PO219598   9.050  20.180  32.210
  817BOLB   GL319599   9.510  20.140  32.150
  817BOLB   GL419600   9.560  19.870  32.350
  817BOLB   C1C19601   9.990  20.220  32.020
  817BOLB   C2C19602  10.300  20.590  32.130
  817BOLB   C3C19603  10.600  20.580  31.890
  817BOLB   C4C19604  10.970  20.250  31.920
  817BOLB   C1D19605   9.960  19.990  32.440
  817BOLB   C2D19606  10.370  20.200  32.380
  817BOLB   C3D19607  10.720  20.350  32.420
  817BOLB   C4D19608  11.200  20.340  32.430
  818BOLB   NC119609  26.465   8.540  35.420
  818BOLB   PO119610  26.410   8.100  35.290
  818BOLB   GL119611  26.645   7.730  35.420
  818BOLB   GL219612  26.505   7.490  35.530
  818BOLB   C1A19613  27.015   7.440  35.580
  818BOLB   C2A19614  27.135   7.230  35.820
  818BOLB   C3A19615  27.395   6.960  36.060
  818BOLB   C4A19616  27.505   6.640  36.360
  818BOLB   C1B19617  26.605   7.060  35.700
  818BOLB   C2B19618  26.555   6.630  35.780
  818BOLB   C3B19619  26.735   6.350  35.590
  818BOLB   C4B19620  26.440   6.140  35.400
  818BOLB   NC219621  27.805   3.930  36.170
  818BOLB   PO219622  27.955   4.260  36.490
  818BOLB   GL319623  28.205   4.600  36.350
  818BOLB   GL419624  28.535   4.850  36.310
  818BOLB   C1C19625  28.055   5.020  36.400
  818BOLB   C2C19626  28.095   5.520  36.330
  818BOLB   C3C19627  27.905   5.970  36.450
  818BOLB   C4C19628  27.695   6.330  36.230
  818BOLB   C1D19629  28.445   5.310  36.090
  818BOLB   C2D19630  28.335   5.760  35.960
  818BOLB   C3D19631  28.155   6.110  36.080
  818BOLB   C4D19632  28.455   6.370  35.890
  819BOLB   NC119633  26.875  18.600  38.870
  819BOLB   PO119634  26.825  18.260  39.180
  819BOLB   GL119635  27.235  18.390  39.280
  819BOLB   GL219636  27.395  18.170  39.510
  819BOLB   C1A19637  27.565  18.630  39.330
  819BOLB   C2A19638  27.635  19.040  39.590
  819BOLB   C3A19639  27.665  19.370  39.920
  819BOLB   C4A19640  27.995  19.680  39.970
  819BOLB   C1B19641  27.875  18.310  39.520
  819BOLB   C2B19642  28.075  18.660  39.560
  819BOLB   C3B19643  28.185  19.060  39.710
  819BOLB   C4B19644  28.135  19.160  40.030
  819BOLB   NC219645  30.005  20.850  41.090
  819BOLB   PO219646  30.075  20.490  40.800
  819BOLB   GL319647  29.675  20.480  40.690
  819BOLB   GL419648  29.515  20.560  40.970
  819BOLB   C1C19649  29.195  20.530  40.410
  819BOLB   C2C19650  28.755  20.560  40.280
  819BOLB   C3C19651  28.395  20.380  40.000
  819BOLB   C4C19652  28.015  20.170  39.860
  819BOLB   C1D19653  29.165  20.600  40.940
  819BOLB   C2D19654  28.855  20.580  40.770
  819BOLB   C3D19655  28.385  20.390  40.630
  819BOLB   C4D19656  27.915  20.390  40.710
  820BOLB   NC119657  19.130  10.320  29.510
  820BOLB   PO119658  18.850  10.570  29.600
  820BOLB   GL119659  18.280  10.460  29.620
  820BOLB   GL219660  18.060  10.760  29.640
  820BOLB   C1A19661  17.940  10.270  29.560
  820BOLB   C2A19662  17.850   9.870  29.730
  820BOLB   C3A19663  17.540   9.520  29.790
  820BOLB   C4A19664  17.060   9.390  29.830
  820BOLB   C1B19665  17.630  10.750  29.730
  820BOLB   C2B19666  17.620  10.420  29.920
  820BOLB   C3B19667  17.410  10.010  29.750
  820BOLB   C4B19668  17.440   9.710  29.350
  820BOLB   NC219669  15.210   7.870  29.040
  820BOLB   PO219670  15.100   8.190  29.130
  820BOLB   GL319671  15.320   8.480  29.350
  820BOLB   GL419672  15.210   8.800  29.440
  820BOLB   C1C19673  15.710   8.490  29.400
  820BOLB   C2C19674  16.040   8.680  29.600
  820BOLB   C3C19675  16.370   8.870  29.590
  820BOLB   C4C19676  16.750   9.060  29.740
  820BOLB   C1D19677  15.630   9.000  29.550
  820BOLB   C2D19678  15.990   9.150  29.740
  820BOLB   C3D19679  16.340   9.340  29.730
  820BOLB   C4D19680  16.680   9.630  29.600
  821BOLB   NC119681  29.365  13.640  30.750
  821BOLB   PO119682  29.225  14.080  30.770
  821BOLB   GL119683  29.605  14.180  30.550
  821BOLB   GL219684  29.735  13.850  30.400
  821BOLB   C1A19685  29.975  14.490  30.550
  821BOLB   C2A19686  30.315  14.700  30.310
  821BOLB   C3A19687  30.585  15.050  30.390
  821BOLB   C4A19688  30.995  15.190  30.140
  821BOLB   C1B19689  30.065  14.080  30.270
  821BOLB   C2B19690  30.415  14.170  30.390
  821BOLB   C3B19691  30.855  14.090  30.420
  821BOLB   C4B19692  31.195  14.130  30.370
  821BOLB   NC219693  32.955  15.120  29.700
  821BOLB   PO219694  33.005  14.930  29.230
  821BOLB   GL319695  32.625  14.870  29.220
  821BOLB   GL419696  32.525  14.820  29.500
  821BOLB   C1C19697  32.245  15.090  29.160
  821BOLB   C2C19698  31.905  15.430  29.360
  821BOLB   C3C19699  31.475  15.370  29.440
  821BOLB   C4C19700  31.165  15.180  29.740
  821BOLB   C1D19701  32.125  14.750  29.530
  821BOLB   C2D19702  31.855  14.490  29.430
  821BOLB   C3D19703  31.655  14.140  29.410
  821BOLB   C4D19704  31.345  14.060  29.080
  822BOLB   NC119705  23.220  16.340  43.110
  822BOLB   PO119706  22.900  16.390  43.140
  822BOLB   GL119707  23.020  16.220  43.550
  822BOLB   GL219708  23.330  16.090  43.550
  822BOLB   C1A19709  22.970  16.290  44.000
  822BOLB   C2A19710  22.780  16.270  44.450
  822BOLB   C3A19711  22.940  16.270  44.850
  822BOLB   C4A19712  23.200  16.120  45.240
  822BOLB   C1B19713  23.450  16.090  43.950
  822BOLB   C2B19714  23.270  15.860  44.290
  822BOLB   C3B19715  23.060  15.800  44.630
  822BOLB   C4B19716  22.960  15.570  44.910
  822BOLB   NC219717  24.640  15.480  47.220
  822BOLB   PO219718  24.440  15.770  47.360
  822BOLB   GL319719  24.280  15.680  46.960
  822BOLB   GL419720  23.960  15.770  47.180
  822BOLB   C1C19721  24.080  15.760  46.620
  822BOLB   C2C19722  24.000  15.770  46.200
  822BOLB   C3C19723  23.870  15.910  45.860
  822BOLB   C4C19724  23.450  16.030  45.570
  822BOLB   C1D19725  23.560  15.710  46.930
  822BOLB   C2D19726  23.180  15.640  46.610
  822BOLB   C3D19727  23.080  15.490  46.230
  822BOLB   C4D19728  22.810  15.510  45.990
  823BOLB   NC119729  19.540   9.950  35.170
  823BOLB   PO119730  19.540  10.020  35.610
  823BOLB   GL119731  19.580   9.640  35.910
  823BOLB   GL219732  19.620   9.450  36.330
  823BOLB   C1A19733  19.330   9.300  35.960
  823BOLB   C2A19734  19.000   9.140  36.000
  823BOLB   C3A19735  18.660   9.120  35.710
  823BOLB   C4A19736  18.280   8.920  35.720
  823BOLB   C1B19737  19.210   9.390  36.480
  823BOLB   C2B19738  18.880   9.220  36.460
  823BOLB   C3B19739  19.030   8.810  36.360
  823BOLB   C4B19740  18.890   8.470  36.390
  823BOLB   NC219741  16.220   7.150  35.340
  823BOLB   PO219742  16.720   7.180  35.350
  823BOLB   GL319743  16.910   7.500  35.310
  823BOLB   GL419744  16.930   7.720  34.980
  823BOLB   C1C19745  16.920   7.910  35.540
  823BOLB   C2C19746  17.330   8.040  35.730
  823BOLB   C3C19747  17.610   8.410  35.840
  823BOLB   C4C19748  17.830   8.770  35.650
  823BOLB   C1D19749  17.210   8.040  35.170
  823BOLB   C2D19750  17.370   8.410  35.380
  823BOLB   C3D19751  17.780   8.460  35.230
  823BOLB   C4D19752  17.950   8.600  34.950
  824BOLB   NC119753  21.240   1.320  26.930
  824BOLB   PO119754  21.630   1.310  26.920
  824BOLB   GL119755  21.470   0.930  26.870
  824BOLB   GL219756  21.680   0.840  27.130
  824BOLB   C1A19757  21.350   0.440  27.060
  824BOLB   C2A19758  21.140  26.410  27.090
  824BOLB   C3A19759  21.190  26.010  26.980
  824BOLB   C4A19760  21.240  25.640  26.890
  824BOLB   C1B19761  21.750   0.530  27.400
  824BOLB   C2B19762  21.620   0.130  27.350
  824BOLB   C3B19763  21.560  26.290  27.550
  824BOLB   C4B19764  21.290  26.050  27.530
  824BOLB   NC219765  21.940   0.470  24.690
  824BOLB   PO219766  21.700   0.220  24.980
  824BOLB   GL319767  21.590   0.050  25.410
  824BOLB   GL419768  21.810  26.260  25.660
  824BOLB   C1C19769  21.340  26.090  25.580
  824BOLB   C2C19770  21.130  25.680  25.660
  824BOLB   C3C19771  21.160  25.380  26.020
  824BOLB   C4C19772  21.370  25.420  26.490
  824BOLB   C1D19773  21.750  25.780  25.480
  824BOLB   C2D19774  21.610  25.530  25.820
  824BOLB   C3D19775  21.810  25.500  26.240
  824BOLB   C4D19776  21.940  25.390  26.540
  825BOLB   NC119777  13.630  18.930  19.740
  825BOLB   PO119778  13.510  19.330  19.930
  825BOLB   GL119779  13.770  19.360  20.320
  825BOLB   GL219780  13.750  19.230  20.530
  825BOLB   C1A19781  14.170  19.480  20.460
  825BOLB   C2A19782  14.440  19.470  20.850
  825BOLB   C3A19783  14.710  19.620  21.140
  825BOLB   C4A19784  14.650  19.870  21.540
  825BOLB   C1B19785  13.840  19.190  20.980
  825BOLB   C2B19786  14.200  19.180  21.220
  825BOLB   C3B19787  14.200  19.570  21.390
  825BOLB   C4B19788  14.130  20.100  21.490
  825BOLB   NC219789  13.440  21.130  20.380
  825BOLB   PO219790  13.240  21.220  20.650
  825BOLB   GL319791  13.480  21.030  20.990
  825BOLB   GL419792  13.630  20.730  20.790
  825BOLB   C1C19793  13.740  20.830  21.380
  825BOLB   C2C19794  13.940  20.470  21.730
  825BOLB   C3C19795  14.140  20.280  21.960
  825BOLB   C4C19796  14.520  20.100  21.870
  825BOLB   C1D19797  14.040  20.960  20.950
  825BOLB   C2D19798  14.430  20.830  21.120
  825BOLB   C3D19799  14.730  20.820  21.420
  825BOLB   C4D19800  15.150  20.840  21.600
  826BOLB   NC119801  23.130  21.650  36.460
  826BOLB   PO119802  23.370  22.120  36.530
  826BOLB   GL119803  23.650  22.480  36.530
  826BOLB   GL219804  23.570  22.750  36.720
  826BOLB   C1A19805  23.890  22.890  36.380
  826BOLB   C2A19806  24.090  23.160  36.060
  826BOLB   C3A19807  24.130  23.640  35.900
  826BOLB   C4A19808  24.500  23.990  35.910
  826BOLB   C1B19809  23.870  22.860  37.120
  826BOLB   C2B19810  24.190  23.130  37.220
  826BOLB   C3B19811  24.360  23.600  37.020
  826BOLB   C4B19812  24.340  24.030  36.880
  826BOLB   NC219813  26.180  25.780  34.400
  826BOLB   PO219814  25.890  25.510  34.480
  826BOLB   GL319815  25.540  25.310  34.440
  826BOLB   GL419816  25.590  25.010  34.320
  826BOLB   C1C19817  25.200  25.130  34.850
  826BOLB   C2C19818  25.110  24.910  35.230
  826BOLB   C3C19819  25.050  24.590  35.470
  826BOLB   C4C19820  24.770  24.260  35.650
  826BOLB   C1D19821  25.290  24.790  34.480
  826BOLB   C2D19822  24.890  24.830  34.590
  826BOLB   C3D19823  24.460  24.640  34.440
  826BOLB   C4D19824  24.090  24.340  34.580
  827BOLB   NC119825  27.165  17.250  32.580
  827BOLB   PO119826  27.185  17.050  33.010
  827BOLB   GL119827  27.425  17.440  33.070
  827BOLB   GL219828  27.675  17.380  32.870
  827BOLB   C1A19829  27.685  17.810  33.070
  827BOLB   C2A19830  27.835  18.080  32.670
  827BOLB   C3A19831  28.145  18.440  32.560
  827BOLB   C4A19832  28.435  18.780  32.510
  827BOLB   C1B19833  28.045  17.560  32.690
  827BOLB   C2B19834  28.285  18.010  32.840
  827BOLB   C3B19835  28.035  18.390  33.100
  827BOLB   C4B19836  27.785  18.770  33.240
  827BOLB   NC219837  28.885  20.650  32.040
  827BOLB   PO219838  28.985  20.670  31.540
  827BOLB   GL319839  29.055  20.230  31.750
  827BOLB   GL419840  28.845  20.160  31.940
  827BOLB   C1C19841  29.205  19.790  32.000
  827BOLB   C2C19842  29.175  19.440  32.170
  827BOLB   C3C19843  28.925  19.110  32.020
  827BOLB   C4C19844  28.595  18.880  32.190
  827BOLB   C1D19845  28.565  20.120  32.270
  827BOLB   C2D19846  28.065  20.180  32.380
  827BOLB   C3D19847  27.785  20.290  32.100
  827BOLB   C4D19848  27.335  20.290  32.140
  828BOLB   NC119849  20.450  11.100  39.800
  828BOLB   PO119850  20.590  11.010  40.200
  828BOLB   GL119851  20.600  10.600  40.330
  828BOLB   GL219852  20.590  10.410  40.110
  828BOLB   C1A19853  20.410  10.220  40.660
  828BOLB   C2A19854  20.640  10.140  41.000
  828BOLB   C3A19855  20.660  10.280  41.380
  828BOLB   C4A19856  20.760  10.210  41.840
  828BOLB   C1B19857  20.770  10.010  40.270
  828BOLB   C2B19858  20.710   9.760  40.670
  828BOLB   C3B19859  20.530   9.520  41.010
  828BOLB   C4B19860  20.330   9.680  41.450
  828BOLB   NC219861  18.930   9.450  43.360
  828BOLB   PO219862  19.240   9.340  43.580
  828BOLB   GL319863  19.420   9.500  43.200
  828BOLB   GL419864  19.180   9.590  42.960
  828BOLB   C1C19865  19.800   9.750  43.170
  828BOLB   C2C19866  20.180   9.710  42.870
  828BOLB   C3C19867  20.530   9.850  42.630
  828BOLB   C4C19868  20.800   9.970  42.340
  828BOLB   C1D19869  19.520   9.910  42.760
  828BOLB   C2D19870  19.620  10.240  42.480
  828BOLB   C3D19871  19.770  10.400  42.090
  828BOLB   C4D19872  19.710  10.370  41.570
  829BOLB   NC119873  21.410  10.800  45.230
  829BOLB   PO119874  21.390  10.490  44.900
  829BOLB   GL119875  21.530  10.860  44.640
  829BOLB   GL219876  21.450  10.740  44.240
  829BOLB   C1A19877  21.660  11.210  44.460
  829BOLB   C2A19878  21.720  11.400  43.970
  829BOLB   C3A19879  22.080  11.520  43.700
  829BOLB   C4A19880  22.450  11.520  43.800
  829BOLB   C1B19881  21.390  11.100  43.830
  829BOLB   C2B19882  21.550  11.130  43.530
  829BOLB   C3B19883  21.850  11.330  43.310
  829BOLB   C4B19884  21.970  11.780  43.300
  829BOLB   NC219885  23.670  10.720  45.800
  829BOLB   PO219886  24.070  10.740  45.550
  829BOLB   GL319887  23.920  11.080  45.470
  829BOLB   GL419888  24.090  11.310  45.480
  829BOLB   C1C19889  23.640  11.250  45.090
  829BOLB   C2C19890  23.330  11.210  44.760
  829BOLB   C3C19891  22.880  11.080  44.530
  829BOLB   C4C19892  22.570  11.150  44.120
  829BOLB   C1D19893  24.270  11.540  45.270
  829BOLB   C2D19894  24.270  11.770  45.000
  829BOLB   C3D19895  24.360  11.600  44.700
  829BOLB   C4D19896  24.720  11.380  44.630
  830BOLB   NC119897  27.285   7.940  32.150
  830BOLB   PO119898  26.825   7.770  32.150
  830BOLB   GL119899  27.045   7.500  32.170
  830BOLB   GL219900  27.275   7.580  32.450
  830BOLB   C1A19901  27.325   7.170  32.150
  830BOLB   C2A19902  27.585   6.850  32.240
  830BOLB   C3A19903  27.785   6.590  32.560
  830BOLB   C4A19904  27.985   6.260  32.650
  830BOLB   C1B19905  27.575   7.340  32.670
  830BOLB   C2B19906  27.885   7.010  32.810
  830BOLB   C3B19907  28.105   6.690  33.000
  830BOLB   C4B19908  28.345   6.300  33.060
  830BOLB   NC219909  27.825   3.770  31.540
  830BOLB   PO219910  27.395   3.910  31.660
  830BOLB   GL319911  27.325   4.450  31.690
  830BOLB   GL419912  26.975   4.490  31.830
  830BOLB   C1C19913  27.565   4.810  31.960
  830BOLB   C2C19914  27.845   5.160  31.980
  830BOLB   C3C19915  28.005   5.510  32.250
  830BOLB   C4C19916  28.005   5.790  32.640
  830BOLB   C1D19917  26.975   4.790  31.490
  830BOLB   C2D19918  26.725   5.200  31.460
  830BOLB   C3D19919  26.420   5.290  31.120
  830BOLB   C4D19920  26.120   5.400  30.950
  831BOLB   NC119921  29.155  14.590  35.040
  831BOLB   PO119922  29.485  14.790  35.250
  831BOLB   GL119923  29.805  15.060  35.390
  831BOLB   GL219924  29.975  14.960  35.710
  831BOLB   C1A19925  30.215  15.140  35.380
  831BOLB   C2A19926  30.585  15.120  35.210
  831BOLB   C3A19927  30.895  15.120  35.550
  831BOLB   C4A19928  31.035  15.210  36.030
  831BOLB   C1B19929  30.235  15.390  35.820
  831BOLB   C2B19930  30.615  15.530  35.860
  831BOLB   C3B19931  31.025  15.600  35.820
  831BOLB   C4B19932  31.405  15.600  35.790
  831BOLB   NC219933  33.035  15.750  36.910
  831BOLB   PO219934  32.845  15.920  37.270
  831BOLB   GL319935  32.505  15.650  37.150
  831BOLB   GL419936  32.565  15.500  36.890
  831BOLB   C1C19937  32.095  15.300  37.160
  831BOLB   C2C19938  31.685  15.180  37.090
  831BOLB   C3C19939  31.355  15.210  36.870
  831BOLB   C4C19940  31.145  15.200  36.500
  831BOLB   C1D19941  32.635  15.480  36.440
  831BOLB   C2D19942  32.295  15.460  36.200
  831BOLB   C3D19943  31.895  15.470  35.870
  831BOLB   C4D19944  31.925  15.740  35.560
  832BOLB   NC119945  17.680  24.730  32.260
  832BOLB   PO119946  17.510  24.820  32.710
  832BOLB   GL119947  17.830  25.100  32.890
  832BOLB   GL219948  17.720  25.130  33.140
  832BOLB   C1A19949  18.100  25.500  32.840
  832BOLB   C2A19950  18.160  26.000  32.810
  832BOLB   C3A19951  18.240  26.320  32.930
  832BOLB   C4A19952  18.320   0.200  33.140
  832BOLB   C1B19953  17.640  25.530  33.190
  832BOLB   C2B19954  17.590  26.010  33.230
  832BOLB   C3B19955  17.460   0.030  33.530
  832BOLB   C4B19956  17.400   0.480  33.730
  832BOLB   NC219957  19.070   2.610  32.590
  832BOLB   PO219958  18.940   2.360  32.990
  832BOLB   GL319959  18.720   1.900  32.980
  832BOLB   GL419960  18.500   1.820  32.740
  832BOLB   C1C19961  18.820   1.630  33.340
  832BOLB   C2C19962  18.930   1.230  33.500
  832BOLB   C3C19963  18.780   0.880  33.290
  832BOLB   C4C19964  18.570   0.510  32.960
  832BOLB   C1D19965  18.370   1.350  32.740
  832BOLB   C2D19966  18.350   1.070  33.050
  832BOLB   C3D19967  18.210   0.760  33.250
  832BOLB   C4D19968  17.790   0.490  33.450
  833BOLB   NC119969  23.630   9.960  39.780
  833BOLB   PO119970  23.400   9.810  39.540
  833BOLB   GL119971  23.310   9.380  39.680
  833BOLB   GL219972  23.550   9.070  39.520
  833BOLB   C1A19973  23.330   9.090  40.050
  833BOLB   C2A19974  23.160   8.780  40.250
  833BOLB   C3A19975  23.000   8.370  40.270
  833BOLB   C4A19976  23.030   7.970  40.060
  833BOLB   C1B19977  23.520   8.660  39.340
  833BOLB   C2B19978  23.870   8.250  39.460
  833BOLB   C3B19979  24.050   7.760  39.510
  833BOLB   C4B19980  24.180   7.300  39.530
  833BOLB   NC219981  23.150   6.250  40.720
  833BOLB   PO219982  22.950   6.550  41.000
  833BOLB   GL319983  23.190   6.700  41.080
  833BOLB   GL419984  23.490   6.630  40.920
  833BOLB   C1C19985  23.340   7.100  40.970
  833BOLB   C2C19986  23.400   7.350  40.590
  833BOLB   C3C19987  23.290   7.350  40.250
  833BOLB   C4C19988  23.260   7.650  39.960
  833BOLB   C1D19989  23.690   6.890  40.710
  833BOLB   C2D19990  23.870   7.260  40.430
  833BOLB   C3D19991  23.850   7.630  40.170
  833BOLB   C4D19992  24.000   8.040  39.980
  834BOLB   NC119993  22.450  14.330  42.780
  834BOLB   PO119994  22.400  14.090  43.060
  834BOLB   GL119995  22.280  14.100  43.380
  834BOLB   GL219996  22.590  14.120  43.550
  834BOLB   C1A19997  22.110  13.990  43.730
  834BOLB   C2A19998  22.020  14.240  44.020
  834BOLB   C3A19999  21.800  14.240  44.510
  834BOLB   C4A20000  21.500  13.960  44.740
  834BOLB   C1B20001  22.560  14.140  44.000
  834BOLB   C2B20002  22.730  14.260  44.390
  834BOLB   C3B20003  23.060  14.510  44.660
  834BOLB   C4B20004  23.320  14.780  44.930
  834BOLB   NC220005  20.710  12.860  46.560
  834BOLB   PO220006  21.090  13.090  46.630
  834BOLB   GL320007  21.050  13.160  46.200
  834BOLB   GL420008  20.890  13.550  46.190
  834BOLB   C1C20009  21.250  13.320  45.900
  834BOLB   C2C20010  21.220  13.410  45.450
  834BOLB   C3C20011  21.100  13.720  45.350
  834BOLB   C4C20012  21.290  14.110  45.090
  834BOLB   C1D20013  21.110  13.770  45.850
  834BOLB   C2D20014  21.330  14.200  45.930
  834BOLB   C3D20015  21.600  14.530  45.950
  834BOLB   C4D20016  21.370  14.840  45.740
  835BOLB   NC120017  23.480   8.220  35.820
  835BOLB   PO120018  23.260   7.920  35.470
  835BOLB   GL120019  23.030   7.580  35.530
  835BOLB   GL220020  22.880   7.470  35.860
  835BOLB   C1A20021  23.040   7.110  35.330
  835BOLB   C2A20022  23.020   6.680  35.520
  835BOLB   C3A20023  23.060   6.350  35.840
  835BOLB   C4A20024  22.880   6.100  36.140
  835BOLB   C1B20025  22.770   7.110  35.750
  835BOLB   C2B20026  22.640   6.710  35.930
  835BOLB   C3B20027  22.460   6.440  36.200
  835BOLB   C4B20028  22.520   6.230  36.520
  835BOLB   NC220029  22.510   3.910  35.390
  835BOLB   PO220030  22.690   3.830  35.840
  835BOLB   GL320031  22.650   4.270  35.780
  835BOLB   GL420032  22.420   4.380  35.540
  835BOLB   C1C20033  23.030   4.520  35.670
  835BOLB   C2C20034  23.030   4.960  35.800
  835BOLB   C3C20035  22.790   5.230  36.130
  835BOLB   C4C20036  22.890   5.680  36.260
  835BOLB   C1D20037  22.560   4.800  35.660
  835BOLB   C2D20038  22.730   5.290  35.530
  835BOLB   C3D20039  23.060   5.560  35.740
  835BOLB   C4D20040  23.410   5.920  35.740
  836BOLB   NC120041  24.870   8.630  36.490
  836BOLB   PO120042  24.590   8.270  36.450
  836BOLB   GL120043  24.520   7.840  36.620
  836BOLB   GL220044  24.520   7.650  36.900
  836BOLB   C1A20045  24.600   7.350  36.530
  836BOLB   C2A20046  24.600   6.930  36.730
  836BOLB   C3A20047  24.500   6.740  37.170
  836BOLB   C4A20048  24.600   6.330  37.440
  836BOLB   C1B20049  24.620   7.270  37.080
  836BOLB   C2B20050  24.780   6.990  37.470
  836BOLB   C3B20051  24.500   6.930  37.880
  836BOLB   C4B20052  24.420   6.740  38.380
  836BOLB   NC220053  24.760   3.880  38.000
  836BOLB   PO220054  24.850   4.310  38.150
  836BOLB   GL320055  24.700   4.650  38.190
  836BOLB   GL420056  24.840   4.800  37.990
  836BOLB   C1C20057  24.510   5.030  38.360
  836BOLB   C2C20058  24.380   5.340  38.160
  836BOLB   C3C20059  24.610   5.570  37.900
  836BOLB   C4C20060  24.690   6.050  37.820
  836BOLB   C1D20061  25.000   5.230  37.820
  836BOLB   C2D20062  25.120   5.620  37.600
  836BOLB   C3D20063  25.080   5.990  37.430
  836BOLB   C4D20064  25.110   6.230  37.190
  837BOLB   NC120065  25.610  12.250  40.930
  837BOLB   PO120066  26.050  12.140  40.960
  837BOLB   GL120067  26.230  11.860  41.250
  837BOLB   GL220068  26.505  11.870  41.140
  837BOLB   C1A20069  25.980  11.720  41.770
  837BOLB   C2A20070  26.170  11.790  42.140
  837BOLB   C3A20071  26.160  11.670  42.610
  837BOLB   C4A20072  26.380  11.440  42.960
  837BOLB   C1B20073  26.815  11.650  41.310
  837BOLB   C2B20074  26.805  11.190  41.580
  837BOLB   C3B20075  26.915  10.840  41.750
  837BOLB   C4B20076  27.005  10.520  42.090
  837BOLB   NC220077  27.945  10.510  44.420
  837BOLB   PO220078  27.835  10.280  44.160
  837BOLB   GL320079  27.545  10.570  44.060
  837BOLB   GL420080  27.455  10.800  43.840
  837BOLB   C1C20081  27.085  10.790  44.200
  837BOLB   C2C20082  27.085  11.120  44.030
  837BOLB   C3C20083  26.795  11.250  43.730
  837BOLB   C4C20084  26.645  11.480  43.440
  837BOLB   C1D20085  26.975  10.810  43.640
  837BOLB   C2D20086  26.985  10.780  43.070
  837BOLB   C3D20087  26.885  10.890  42.720
  837BOLB   C4D20088  27.005  11.100  42.380
  838BOLB   NC120089  14.920  15.160  44.350
  838BOLB   PO120090  15.190  14.900  44.090
  838BOLB   GL120091  15.310  14.970  43.700
  838BOLB   GL220092  15.300  14.770  43.450
  838BOLB   C1A20093  15.760  14.840  43.720
  838BOLB   C2A20094  16.080  15.000  43.410
  838BOLB   C3A20095  15.970  15.350  43.150
  838BOLB   C4A20096  16.000  15.740  42.810
  838BOLB   C1B20097  15.640  14.630  43.160
  838BOLB   C2B20098  15.850  14.410  42.990
  838BOLB   C3B20099  16.210  14.500  42.710
  838BOLB   C4B20100  16.510  14.570  42.380
  838BOLB   NC220101  14.310  16.070  43.760
  838BOLB   PO220102  14.070  15.750  43.580
  838BOLB   GL320103  14.150  16.110  43.240
  838BOLB   GL420104  14.070  15.940  42.820
  838BOLB   C1C20105  14.460  16.390  42.960
  838BOLB   C2C20106  14.840  16.480  42.740
  838BOLB   C3C20107  15.290  16.370  42.530
  838BOLB   C4C20108  15.620  16.020  42.650
  838BOLB   C1D20109  13.930  15.970  42.400
  838BOLB   C2D20110  13.840  16.360  42.180
  838BOLB   C3D20111  13.510  16.350  41.770
  838BOLB   C4D20112  13.170  16.550  41.610
  839BOLB   NC120113  19.480  17.710  21.590
  839BOLB   PO120114  19.310  18.110  21.450
  839BOLB   GL120115  19.270  18.070  20.960
  839BOLB   GL220116  19.160  18.460  20.970
  839BOLB   C1A20117  19.110  18.060  20.480
  839BOLB   C2A20118  19.280  18.030  20.090
  839BOLB   C3A20119  19.670  17.960  19.860
  839BOLB   C4A20120  19.840  18.170  19.520
  839BOLB   C1B20121  19.270  18.580  20.600
  839BOLB   C2B20122  19.150  18.490  20.190
  839BOLB   C3B20123  19.110  18.490  19.810
  839BOLB   C4B20124  19.200  18.530  19.370
  839BOLB   NC220125  19.600  18.560  17.150
  839BOLB   PO220126  19.670  18.430  17.540
  839BOLB   GL320127  19.860  18.570  17.850
  839BOLB   GL420128  19.640  18.970  17.950
  839BOLB   C1C20129  19.860  18.410  18.170
  839BOLB   C2C20130  20.080  18.160  18.390
  839BOLB   C3C20131  20.190  17.930  18.730
  839BOLB   C4C20132  20.060  18.020  19.200
  839BOLB   C1D20133  19.690  18.990  18.380
  839BOLB   C2D20134  19.900  18.920  18.790
  839BOLB   C3D20135  20.080  19.110  19.230
  839BOLB   C4D20136  19.830  19.110  19.620
  840BOLB   NC120137  26.485  19.350  39.240
  840BOLB   PO120138  26.725  19.200  38.910
  840BOLB   GL120139  27.015  19.540  38.910
  840BOLB   GL220140  26.945  19.600  39.270
  840BOLB   C1A20141  27.375  19.750  38.990
  840BOLB   C2A20142  27.765  19.880  39.000
  840BOLB   C3A20143  28.205  20.120  38.790
  840BOLB   C4A20144  28.555  20.340  38.730
  840BOLB   C1B20145  27.075  19.980  39.420
  840BOLB   C2B20146  27.025  20.410  39.600
  840BOLB   C3B20147  27.135  20.770  39.540
  840BOLB   C4B20148  27.045  21.110  39.230
  840BOLB   NC220149  30.145  21.230  39.560
  840BOLB   PO220150  30.475  20.990  39.340
  840BOLB   GL320151  30.135  21.140  39.050
  840BOLB   GL420152  30.255  20.900  38.840
  840BOLB   C1C20153  29.805  21.100  38.630
  840BOLB   C2C20154  29.495  20.890  38.540
  840BOLB   C3C20155  29.175  20.770  38.450
  840BOLB   C4C20156  28.745  20.630  38.500
  840BOLB   C1D20157  30.215  20.440  38.900
  840BOLB   C2D20158  29.885  20.220  39.080
  840BOLB   C3D20159  29.465  20.290  39.110
  840BOLB   C4D20160  29.105  20.360  38.770
  841BOLB   NC120161  18.460  23.770  26.320
  841BOLB   PO120162  18.890  23.790  25.970
  841BOLB   GL120163  19.000  23.950  25.630
  841BOLB   GL220164  18.790  24.180  25.510
  841BOLB   C1A20165  19.390  24.150  25.420
  841BOLB   C2A20166  19.530  24.440  25.150
  841BOLB   C3A20167  19.570  24.420  24.720
  841BOLB   C4A20168  19.790  24.540  24.380
  841BOLB   C1B20169  19.010  24.430  25.560
  841BOLB   C2B20170  19.200  24.750  25.400
  841BOLB   C3B20171  19.340  25.190  25.450
  841BOLB   C4B20172  19.550  25.490  25.620
  841BOLB   NC220173  20.960  26.260  23.120
  841BOLB   PO220174  20.820  26.070  23.540
  841BOLB   GL320175  20.910  25.740  23.550
  841BOLB   GL420176  21.310  25.730  23.370
  841BOLB   C1C20177  20.890  25.300  23.540
  841BOLB   C2C20178  20.630  25.030  23.660
  841BOLB   C3C20179  20.420  24.760  23.920
  841BOLB   C4C20180  20.210  24.650  24.210
  841BOLB   C1D20181  21.360  25.490  23.700
  841BOLB   C2D20182  21.120  25.320  24.090
  841BOLB   C3D20183  20.910  25.570  24.350
  841BOLB   C4D20184  20.680  25.830  24.400
  842BOLB   NC120185  19.760  21.060  41.590
  842BOLB   PO120186  19.350  20.890  41.440
  842BOLB   GL120187  19.370  21.040  41.890
  842BOLB   GL220188  19.380  20.760  42.200
  842BOLB   C1A20189  19.140  21.170  42.240
  842BOLB   C2A20190  18.830  21.150  42.590
  842BOLB   C3A20191  18.620  21.350  42.820
  842BOLB   C4A20192  18.350  21.450  43.120
  842BOLB   C1B20193  19.520  20.840  42.510
  842BOLB   C2B20194  19.370  21.180  42.730
  842BOLB   C3B20195  19.130  21.500  43.060
  842BOLB   C4B20196  18.850  21.690  43.340
  842BOLB   NC220197  17.310  22.570  45.150
  842BOLB   PO220198  17.530  23.030  45.020
  842BOLB   GL320199  17.500  22.850  44.620
  842BOLB   GL420200  17.410  23.050  44.380
  842BOLB   C1C20201  17.520  22.510  44.300
  842BOLB   C2C20202  17.760  22.190  43.950
  842BOLB   C3C20203  18.020  21.980  43.640
  842BOLB   C4C20204  18.080  21.570  43.360
  842BOLB   C1D20205  17.300  22.940  43.970
  842BOLB   C2D20206  17.580  22.620  43.730
  842BOLB   C3D20207  17.600  22.320  43.500
  842BOLB   C4D20208  17.250  22.060  43.420
  843BOLB   NC120209  13.420  19.570  27.710
  843BOLB   PO120210  13.100  19.600  27.960
  843BOLB   GL120211  12.790  19.300  27.870
  843BOLB   GL220212  12.500  19.400  28.130
  843BOLB   C1A20213  12.430  19.190  27.640
  843BOLB   C2A20214  12.330  18.840  27.460
  843BOLB   C3A20215  12.280  18.650  27.050
  843BOLB   C4A20216  11.880  18.560  26.990
  843BOLB   C1B20217  12.160  19.670  27.950
  843BOLB   C2B20218  11.920  19.920  27.860
  843BOLB   C3B20219  11.580  20.260  28.050
  843BOLB   C4B20220  11.490  20.670  27.910
  843BOLB   NC220221   9.800  18.600  27.060
  843BOLB   PO220222   9.760  18.570  27.580
  843BOLB   GL320223  10.160  18.430  27.500
  843BOLB   GL420224  10.250  18.430  27.810
  843BOLB   C1C20225  10.560  18.320  27.360
  843BOLB   C2C20226  11.000  18.280  27.230
  843BOLB   C3C20227  11.200  18.260  26.860
  843BOLB   C4C20228  11.500  18.550  26.710
  843BOLB   C1D20229  10.390  18.430  28.150
  843BOLB   C2D20230  10.830  18.560  28.500
  843BOLB   C3D20231  11.210  18.930  28.580
  843BOLB   C4D20232  11.450  19.130  28.900
  844BOLB   NC120233  13.850  21.100  35.830
  844BOLB   PO120234  13.960  21.320  35.520
  844BOLB   GL120235  13.610  21.560  35.660
  844BOLB   GL220236  13.740  21.830  35.520
  844BOLB   C1A20237  13.230  21.660  35.600
  844BOLB   C2A20238  12.750  21.690  35.450
  844BOLB   C3A20239  12.350  21.940  35.680
  844BOLB   C4A20240  12.060  22.240  35.820
  844BOLB   C1B20241  13.530  22.110  35.680
  844BOLB   C2B20242  13.140  22.310  35.840
  844BOLB   C3B20243  13.040  22.760  35.750
  844BOLB   C4B20244  12.930  23.170  35.530
  844BOLB   NC220245  10.830  23.460  36.520
  844BOLB   PO220246  10.990  23.890  36.420
  844BOLB   GL320247  11.120  23.600  36.110
  844BOLB   GL420248  11.270  23.750  35.880
  844BOLB   C1C20249  11.060  23.200  35.900
  844BOLB   C2C20250  11.120  22.790  35.890
  844BOLB   C3C20251  11.360  22.530  36.020
  844BOLB   C4C20252  11.680  22.420  35.760
  844BOLB   C1D20253  11.680  23.560  35.890
  844BOLB   C2D20254  12.010  23.380  35.830
  844BOLB   C3D20255  12.240  23.130  35.500
  844BOLB   C4D20256  12.590  23.130  35.220
  845BOLB   NC120257  15.350  18.750  39.530
  845BOLB   PO120258  15.680  18.300  39.520
  845BOLB   GL120259  15.210  18.220  39.650
  845BOLB   GL220260  14.970  18.130  39.430
  845BOLB   C1A20261  14.880  17.990  39.900
  845BOLB   C2A20262  14.430  18.030  40.070
  845BOLB   C3A20263  13.980  17.910  40.130
  845BOLB   C4A20264  13.660  17.640  40.210
  845BOLB   C1B20265  14.600  17.900  39.520
  845BOLB   C2B20266  14.310  17.580  39.650
  845BOLB   C3B20267  14.010  17.270  39.770
  845BOLB   C4B20268  13.800  16.870  39.590
  845BOLB   NC220269  11.960  16.720  40.870
  845BOLB   PO220270  11.870  16.960  41.270
  845BOLB   GL320271  12.300  17.010  41.190
  845BOLB   GL420272  12.330  17.020  40.840
  845BOLB   C1C20273  12.640  17.170  41.230
  845BOLB   C2C20274  12.900  17.090  40.820
  845BOLB   C3C20275  13.290  17.160  40.710
  845BOLB   C4C20276  13.450  17.420  40.490
  845BOLB   C1D20277  12.440  17.060  40.460
  845BOLB   C2D20278  12.620  16.960  40.080
  845BOLB   C3D20279  12.930  16.690  39.830
  845BOLB   C4D20280  12.920  16.390  39.710
  846BOLB   NC120281  26.625  23.530  28.790
  846BOLB   PO120282  26.805  23.120  28.710
  846BOLB   GL120283  26.430  22.720  28.750
  846BOLB   GL220284  26.370  22.600  29.120
  846BOLB   C1A20285  26.300  22.410  28.460
  846BOLB   C2A20286  26.290  21.930  28.450
  846BOLB   C3A20287  26.410  21.540  28.180
  846BOLB   C4A20288  26.645  21.200  27.840
  846BOLB   C1B20289  26.030  22.300  28.930
  846BOLB   C2B20290  25.770  21.900  28.740
  846BOLB   C3B20291  25.310  21.650  28.570
  846BOLB   C4B20292  24.900  21.630  28.640
  846BOLB   NC220293  29.035  21.800  26.650
  846BOLB   PO220294  28.565  21.560  26.450
  846BOLB   GL320295  28.135  21.410  26.400
  846BOLB   GL420296  28.055  21.340  26.090
  846BOLB   C1C20297  27.725  21.350  26.500
  846BOLB   C2C20298  27.485  21.120  26.850
  846BOLB   C3C20299  26.975  21.060  27.070
  846BOLB   C4C20300  26.755  21.330  27.420
  846BOLB   C1D20301  27.825  20.930  26.170
  846BOLB   C2D20302  27.525  20.570  25.990
  846BOLB   C3D20303  27.335  20.200  25.980
  846BOLB   C4D20304  27.485  19.830  26.300
  847BOLB   NC120305  22.450  21.720  31.800
  847BOLB   PO120306  22.970  21.730  31.990
  847BOLB   GL120307  23.290  22.060  32.050
  847BOLB   GL220308  23.170  22.180  31.800
  847BOLB   C1A20309  23.570  22.290  32.040
  847BOLB   C2A20310  24.020  22.440  32.180
  847BOLB   C3A20311  24.370  22.790  32.180
  847BOLB   C4A20312  24.700  23.060  32.220
  847BOLB   C1B20313  23.230  22.150  31.280
  847BOLB   C2B20314  23.500  22.450  31.010
  847BOLB   C3B20315  23.690  22.790  30.740
  847BOLB   C4B20316  24.120  23.060  30.850
  847BOLB   NC220317  26.040  24.490  31.700
  847BOLB   PO220318  26.290  24.510  31.980
  847BOLB   GL320319  25.890  24.460  32.220
  847BOLB   GL420320  25.820  24.310  32.500
  847BOLB   C1C20321  25.360  24.510  32.280
  847BOLB   C2C20322  25.000  24.230  32.400
  847BOLB   C3C20323  24.770  23.820  32.250
  847BOLB   C4C20324  24.810  23.400  32.150
  847BOLB   C1D20325  25.460  23.980  32.370
  847BOLB   C2D20326  25.160  23.890  31.950
  847BOLB   C3D20327  24.870  23.880  31.640
  847BOLB   C4D20328  24.540  23.850  31.250
  848BOLB   NC120329  25.890  11.670  40.910
  848BOLB   PO120330  25.510  11.750  40.760
  848BOLB   GL120331  25.490  11.460  41.160
  848BOLB   GL220332  25.730  11.360  41.290
  848BOLB   C1A20333  25.210  11.140  41.350
  848BOLB   C2A20334  25.190  10.960  41.770
  848BOLB   C3A20335  25.430  10.670  42.120
  848BOLB   C4A20336  25.510  10.280  42.390
  848BOLB   C1B20337  25.810  10.980  41.430
  848BOLB   C2B20338  25.970  10.630  41.410
  848BOLB   C3B20339  26.050  10.290  41.820
  848BOLB   C4B20340  25.980  10.130  42.210
  848BOLB   NC220341  24.970   9.300  44.590
  848BOLB   PO220342  25.150   8.940  44.360
  848BOLB   GL320343  25.240   9.280  44.160
  848BOLB   GL420344  25.530   9.510  44.110
  848BOLB   C1C20345  25.310   9.270  43.670
  848BOLB   C2C20346  25.240   9.370  43.260
  848BOLB   C3C20347  25.320   9.700  43.040
  848BOLB   C4C20348  25.390   9.870  42.690
  848BOLB   C1D20349  25.450   9.760  43.690
  848BOLB   C2D20350  25.150   9.880  43.510
  848BOLB   C3D20351  24.840  10.070  43.620
  848BOLB   C4D20352  24.670  10.510  43.650
  849BOLB   NC120353  13.750  21.220  28.690
  849BOLB   PO120354  13.700  21.430  28.310
  849BOLB   GL120355  13.460  21.670  28.050
  849BOLB   GL220356  13.570  22.050  28.010
  849BOLB   C1A20357  13.170  21.790  27.810
  849BOLB   C2A20358  12.910  22.000  27.480
  849BOLB   C3A20359  12.690  22.390  27.360
  849BOLB   C4A20360  12.300  22.310  27.310
  849BOLB   C1B20361  13.310  22.310  27.980
  849BOLB   C2B20362  12.890  22.490  28.170
  849BOLB   C3B20363  12.630  22.340  27.870
  849BOLB   C4B20364  12.270  22.460  27.770
  849BOLB   NC220365  10.750  23.010  25.230
  849BOLB   PO220366  10.680  23.080  25.670
  849BOLB   GL320367  10.790  22.980  26.040
  849BOLB   GL420368  11.010  23.180  25.990
  849BOLB   C1C20369  11.060  22.860  26.390
  849BOLB   C2C20370  11.260  22.770  26.890
  849BOLB   C3C20371  11.740  22.820  27.010
  849BOLB   C4C20372  11.940  22.620  27.390
  849BOLB   C1D20373  11.410  22.790  26.080
  849BOLB   C2D20374  11.870  22.650  25.990
  849BOLB   C3D20375  12.250  22.790  25.690
  849BOLB   C4D20376  12.460  22.460  25.600
  850BOLB   NC120377  24.210  10.570  23.480
  850BOLB   PO120378  24.180  11.060  23.410
  850BOLB   GL120379  24.290  11.050  23.020
  850BOLB   GL220380  24.290  10.710  22.860
  850BOLB   C1A20381  24.390  11.130  22.580
  850BOLB   C2A20382  24.260  10.890  22.270
  850BOLB   C3A20383  24.170  10.540  21.980
  850BOLB   C4A20384  24.030  10.080  21.730
  850BOLB   C1B20385  24.770  10.570  22.810
  850BOLB   C2B20386  24.860  10.470  22.460
  850BOLB   C3B20387  25.100  10.480  22.210
  850BOLB   C4B20388  25.170  10.510  21.770
  850BOLB   NC220389  24.590   8.270  19.980
  850BOLB   PO220390  24.710   8.240  20.490
  850BOLB   GL320391  24.580   8.550  20.690
  850BOLB   GL420392  24.170   8.690  20.760
  850BOLB   C1C20393  24.610   9.020  20.730
  850BOLB   C2C20394  24.210   9.300  20.790
  850BOLB   C3C20395  24.090   9.680  21.030
  850BOLB   C4C20396  24.060   9.890  21.380
  850BOLB   C1D20397  24.320   8.880  21.130
  850BOLB   C2D20398  24.270   9.200  21.360
  850BOLB   C3D20399  24.180   9.500  21.730
  850BOLB   C4D20400  23.740   9.620  21.910
  851BOLB   NC120401  16.250  13.900  38.000
  851BOLB   PO120402  15.920  13.880  37.640
  851BOLB   GL120403  15.560  13.640  37.490
  851BOLB   GL220404  15.300  13.760  37.650
  851BOLB   C1A20405  15.390  13.270  37.530
  851BOLB   C2A20406  15.080  13.100  37.750
  851BOLB   C3A20407  14.910  12.710  37.850
  851BOLB   C4A20408  14.610  12.630  38.170
  851BOLB   C1B20409  15.030  14.050  37.990
  851BOLB   C2B20410  14.510  13.820  38.130
  851BOLB   C3B20411  14.300  13.400  38.230
  851BOLB   C4B20412  14.070  13.020  38.400
  851BOLB   NC220413  12.040  11.820  39.140
  851BOLB   PO220414  12.600  11.810  39.090
  851BOLB   GL320415  12.940  12.020  39.130
  851BOLB   GL420416  13.210  12.110  39.430
  851BOLB   C1C20417  13.440  12.100  39.000
  851BOLB   C2C20418  13.740  12.310  38.810
  851BOLB   C3C20419  13.950  12.450  38.470
  851BOLB   C4C20420  14.320  12.450  38.340
  851BOLB   C1D20421  13.600  12.410  39.510
  851BOLB   C2D20422  13.790  12.770  39.570
  851BOLB   C3D20423  14.150  12.830  39.340
  851BOLB   C4D20424  14.610  12.860  39.260
  852BOLB   NC120425  16.100  13.460  33.620
  852BOLB   PO120426  16.180  13.070  33.880
  852BOLB   GL120427  15.830  12.810  33.820
  852BOLB   GL220428  15.680  12.750  34.110
  852BOLB   C1A20429  15.650  12.380  33.780
  852BOLB   C2A20430  15.390  12.130  33.950
  852BOLB   C3A20431  15.130  11.920  33.720
  852BOLB   C4A20432  14.740  11.740  33.940
  852BOLB   C1B20433  15.480  12.450  34.340
  852BOLB   C2B20434  15.160  12.210  34.490
  852BOLB   C3B20435  14.810  12.210  34.540
  852BOLB   C4B20436  14.490  12.030  34.220
  852BOLB   NC220437  12.740  10.860  34.680
  852BOLB   PO220438  12.820  10.500  34.820
  852BOLB   GL320439  13.200  10.680  34.610
  852BOLB   GL420440  13.190  10.870  34.290
  852BOLB   C1C20441  13.560  10.870  34.600
  852BOLB   C2C20442  13.910  10.960  34.530
  852BOLB   C3C20443  14.170  11.310  34.390
  852BOLB   C4C20444  14.330  11.550  34.040
  852BOLB   C1D20445  13.580  11.170  34.200
  852BOLB   C2D20446  13.790  11.590  34.020
  852BOLB   C3D20447  14.010  11.980  34.050
  852BOLB   C4D20448  14.060  12.410  34.040
  853BOLB   NC120449  20.470  22.050  41.150
  853BOLB   PO120450  19.970  21.940  41.280
  853BOLB   GL120451  19.950  22.330  41.510
  853BOLB   GL220452  19.650  22.340  41.580
  853BOLB   C1A20453  19.920  22.690  41.770
  853BOLB   C2A20454  19.980  23.080  41.650
  853BOLB   C3A20455  19.960  23.500  41.510
  853BOLB   C4A20456  20.330  23.780  41.450
  853BOLB   C1B20457  19.480  22.590  41.940
  853BOLB   C2B20458  19.450  22.580  42.360
  853BOLB   C3B20459  19.570  22.500  42.800
  853BOLB   C4B20460  19.800  22.570  43.120
  853BOLB   NC220461  21.720  26.110  41.660
  853BOLB   PO220462  21.320  26.030  41.500
  853BOLB   GL320463  21.200  25.720  41.380
  853BOLB   GL420464  20.910  25.670  41.450
  853BOLB   C1C20465  21.140  25.200  41.430
  853BOLB   C2C20466  20.790  24.930  41.170
  853BOLB   C3C20467  20.640  24.470  41.340
  853BOLB   C4C20468  20.360  24.140  41.400
  853BOLB   C1D20469  20.800  25.480  41.070
  853BOLB   C2D20470  20.650  25.230  40.750
  853BOLB   C3D20471  20.500  24.810  40.640
  853BOLB   C4D20472  20.780  24.340  40.400
  854BOLB   NC120473  28.265  16.550  31.640
  854BOLB   PO120474  28.515  16.210  31.840
  854BOLB   GL120475  28.775  16.410  31.600
  854BOLB   GL220476  28.715  16.680  31.820
  854BOLB   C1A20477  29.075  16.440  31.370
  854BOLB   C2A20478  29.435  16.330  31.580
  854BOLB   C3A20479  29.745  16.530  31.680
  854BOLB   C4A20480  30.155  16.790  31.770
  854BOLB   C1B20481  28.765  16.860  31.400
  854BOLB   C2B20482  28.945  16.960  31.000
  854BOLB   C3B20483  29.075  17.290  30.710
  854BOLB   C4B20484  29.295  17.650  30.800
  854BOLB   NC220485  32.365  18.090  31.810
  854BOLB   PO220486  31.925  18.350  31.780
  854BOLB   GL320487  31.445  18.410  31.870
  854BOLB   GL420488  31.215  18.560  32.120
  854BOLB   C1C20489  31.245  18.040  31.720
  854BOLB   C2C20490  30.925  17.750  31.540
  854BOLB   C3C20491  30.795  17.290  31.430
  854BOLB   C4C20492  30.435  17.060  31.570
  854BOLB   C1D20493  31.105  18.170  32.180
  854BOLB   C2D20494  30.845  17.840  32.480
  854BOLB   C3D20495  30.445  17.850  32.610
  854BOLB   C4D20496  30.135  17.960  32.520
  855BOLB   NC120497  19.780  16.490  42.310
  855BOLB   PO120498  19.780  16.280  42.550
  855BOLB   GL120499  19.540  15.980  42.790
  855BOLB   GL220500  19.660  16.170  43.150
  855BOLB   C1A20501  19.230  15.900  43.070
  855BOLB   C2A20502  19.030  15.640  43.380
  855BOLB   C3A20503  18.880  15.460  43.780
  855BOLB   C4A20504  18.830  15.320  44.220
  855BOLB   C1B20505  19.510  15.880  43.480
  855BOLB   C2B20506  19.250  15.810  43.800
  855BOLB   C3B20507  19.310  15.740  44.270
  855BOLB   C4B20508  19.090  15.610  44.590
  855BOLB   NC220509  16.310  14.090  45.410
  855BOLB   PO220510  16.780  14.280  45.190
  855BOLB   GL320511  17.210  14.380  45.050
  855BOLB   GL420512  17.380  14.080  44.990
  855BOLB   C1C20513  17.360  14.570  44.580
  855BOLB   C2C20514  17.840  14.590  44.620
  855BOLB   C3C20515  18.180  14.660  44.420
  855BOLB   C4C20516  18.590  14.920  44.350
  855BOLB   C1D20517  17.710  14.360  45.100
  855BOLB   C2D20518  18.130  14.650  45.080
  855BOLB   C3D20519  18.490  14.780  44.850
  855BOLB   C4D20520  18.940  14.840  44.660
  856BOLB   NC120521  18.130  17.550  22.140
  856BOLB   PO120522  17.770  17.530  22.050
  856BOLB   GL120523  17.470  17.360  21.750
  856BOLB   GL220524  17.100  17.480  21.730
  856BOLB   C1A20525  17.370  17.190  21.320
  856BOLB   C2A20526  17.170  17.140  21.070
  856BOLB   C3A20527  17.010  16.950  20.730
  856BOLB   C4A20528  16.890  16.730  20.380
  856BOLB   C1B20529  16.870  17.360  21.440
  856BOLB   C2B20530  16.740  17.400  21.010
  856BOLB   C3B20531  16.380  17.570  20.640
  856BOLB   C4B20532  16.410  17.880  20.240
  856BOLB   NC220533  15.970  15.830  18.580
  856BOLB   PO220534  16.410  15.860  18.390
  856BOLB   GL320535  16.660  16.150  18.750
  856BOLB   GL420536  16.710  16.520  18.590
  856BOLB   C1C20537  16.500  16.280  19.200
  856BOLB   C2C20538  16.650  16.110  19.450
  856BOLB   C3C20539  16.820  16.170  19.910
  856BOLB   C4C20540  16.950  16.550  19.980
  856BOLB   C1D20541  17.020  16.450  18.980
  856BOLB   C2D20542  17.280  16.240  19.090
  856BOLB   C3D20543  17.670  16.160  19.280
  856BOLB   C4D20544  18.130  16.220  19.390
  857BOLB   NC120545  13.370  20.640  33.510
  857BOLB   PO120546  13.490  20.420  33.120
  857BOLB   GL120547  13.030  20.370  33.150
  857BOLB   GL220548  12.800  20.130  33.320
  857BOLB   C1A20549  12.580  20.580  33.340
  857BOLB   C2A20550  12.500  20.930  33.480
  857BOLB   C3A20551  12.250  20.790  33.810
  857BOLB   C4A20552  11.850  20.640  33.830
  857BOLB   C1B20553  12.350  20.070  33.370
  857BOLB   C2B20554  11.890  20.060  33.380
  857BOLB   C3B20555  11.570  19.680  33.400
  857BOLB   C4B20556  11.600  19.340  33.570
  857BOLB   NC220557   9.090  21.380  33.850
  857BOLB   PO220558   9.320  20.970  33.910
  857BOLB   GL320559   9.730  20.940  33.830
  857BOLB   GL420560   9.640  20.740  33.590
  857BOLB   C1C20561  10.160  20.950  33.670
  857BOLB   C2C20562  10.520  21.190  33.750
  857BOLB   C3C20563  11.020  21.300  33.810
  857BOLB   C4C20564  11.470  21.030  33.890
  857BOLB   C1D20565  10.120  20.540  33.410
  857BOLB   C2D20566  10.410  20.530  33.160
  857BOLB   C3D20567  10.810  20.350  33.130
  857BOLB   C4D20568  11.180  20.590  33.130
  858BOLB   NC120569  15.760  12.790  35.330
  858BOLB   PO120570  16.180  12.800  35.550
  858BOLB   GL120571  15.990  12.580  35.870
  858BOLB   GL220572  15.790  12.790  35.910
  858BOLB   C1A20573  15.750  12.270  35.940
  858BOLB   C2A20574  15.400  12.240  36.260
  858BOLB   C3A20575  15.360  11.870  36.460
  858BOLB   C4A20576  15.130  11.560  36.720
  858BOLB   C1B20577  15.370  12.640  35.870
  858BOLB   C2B20578  15.280  12.270  35.780
  858BOLB   C3B20579  15.350  11.860  35.940
  858BOLB   C4B20580  15.140  11.550  36.160
  858BOLB   NC220581  13.630   9.640  38.160
  858BOLB   PO220582  13.540  10.020  37.950
  858BOLB   GL320583  13.670  10.310  37.810
  858BOLB   GL420584  13.520  10.510  37.630
  858BOLB   C1C20585  14.020  10.490  37.610
  858BOLB   C2C20586  14.410  10.780  37.550
  858BOLB   C3C20587  14.600  11.170  37.280
  858BOLB   C4C20588  14.950  11.240  37.020
  858BOLB   C1D20589  13.500  10.950  37.450
  858BOLB   C2D20590  13.340  11.370  37.320
  858BOLB   C3D20591  12.990  11.620  37.230
  858BOLB   C4D20592  12.830  11.950  37.130
  859BOLB   NC120593  23.830   4.360  39.660
  859BOLB   PO120594  23.760   4.330  39.260
  859BOLB   GL120595  24.060   4.640  39.140
  859BOLB   GL220596  24.160   4.830  39.410
  859BOLB   C1A20597  24.290   4.980  38.860
  859BOLB   C2A20598  24.520   5.330  38.910
  859BOLB   C3A20599  24.580   5.560  38.510
  859BOLB   C4A20600  24.370   5.860  38.210
  859BOLB   C1B20601  24.210   5.280  39.370
  859BOLB   C2B20602  24.590   5.560  39.300
  859BOLB   C3B20603  24.590   5.900  38.990
  859BOLB   C4B20604  24.330   5.940  38.720
  859BOLB   NC220605  22.570   4.720  38.300
  859BOLB   PO220606  23.080   4.630  38.360
  859BOLB   GL320607  22.960   5.110  38.400
  859BOLB   GL420608  22.690   5.190  38.230
  859BOLB   C1C20609  23.060   5.570  38.480
  859BOLB   C2C20610  23.300   5.950  38.450
  859BOLB   C3C20611  23.630   6.320  38.320
  859BOLB   C4C20612  24.080   6.270  38.210
  859BOLB   C1D20613  22.640   5.560  38.240
  859BOLB   C2D20614  22.560   5.940  38.400
  859BOLB   C3D20615  22.570   6.400  38.230
  859BOLB   C4D20616  22.170   6.750  38.180
  860BOLB   NC120617  25.900  18.980  34.130
  860BOLB   PO120618  25.940  18.580  34.070
  860BOLB   GL120619  26.230  18.770  33.790
  860BOLB   GL220620  26.010  18.710  33.480
  860BOLB   C1A20621  26.485  18.950  33.540
  860BOLB   C2A20622  26.795  19.210  33.360
  860BOLB   C3A20623  26.975  19.410  33.040
  860BOLB   C4A20624  27.345  19.700  32.970
  860BOLB   C1B20625  26.060  19.150  33.160
  860BOLB   C2B20626  26.180  19.600  33.080
  860BOLB   C3B20627  26.605  19.780  33.010
  860BOLB   C4B20628  26.805  19.750  32.670
  860BOLB   NC220629  28.515  21.400  31.830
  860BOLB   PO220630  28.475  20.930  31.840
  860BOLB   GL320631  28.305  20.560  32.120
  860BOLB   GL420632  28.005  20.770  32.160
  860BOLB   C1C20633  28.285  20.650  32.560
  860BOLB   C2C20634  28.055  20.610  32.960
  860BOLB   C3C20635  27.775  20.360  33.210
  860BOLB   C4C20636  27.505  20.050  33.190
  860BOLB   C1D20637  27.785  20.600  32.550
  860BOLB   C2D20638  27.755  20.210  32.750
  860BOLB   C3D20639  27.665  19.880  32.580
  860BOLB   C4D20640  27.685  19.810  32.170
  861BOLB   NC120641  23.780   8.020  29.820
  861BOLB   PO120642  23.860   7.570  29.770
  861BOLB   GL120643  23.560   7.160  29.840
  861BOLB   GL220644  23.280   7.150  29.750
  861BOLB   C1A20645  23.560   6.730  30.030
  861BOLB   C2A20646  23.790   6.360  30.060
  861BOLB   C3A20647  23.890   5.930  30.030
  861BOLB   C4A20648  23.780   5.510  29.980
  861BOLB   C1B20649  22.900   6.880  29.980
  861BOLB   C2B20650  22.680   6.540  29.950
  861BOLB   C3B20651  22.550   6.140  29.900
  861BOLB   C4B20652  22.640   5.740  29.880
  861BOLB   NC220653  22.190   3.630  30.250
  861BOLB   PO220654  22.700   3.570  30.420
  861BOLB   GL320655  22.670   4.010  30.230
  861BOLB   GL420656  22.590   4.230  30.480
  861BOLB   C1C20657  22.900   4.370  30.060
  861BOLB   C2C20658  22.950   4.670  29.760
  861BOLB   C3C20659  23.200   4.960  29.890
  861BOLB   C4C20660  23.360   5.310  29.900
  861BOLB   C1D20661  22.900   4.520  30.500
  861BOLB   C2D20662  22.870   4.860  30.350
  861BOLB   C3D20663  23.100   5.230  30.330
  861BOLB   C4D20664  23.160   5.660  30.690
  862BOLB   NC120665  20.080  14.070  22.670
  862BOLB   PO120666  20.090  13.840  22.290
  862BOLB   GL120667  20.000  13.750  21.940
  862BOLB   GL220668  19.590  13.600  21.990
  862BOLB   C1A20669  19.970  13.520  21.460
  862BOLB   C2A20670  20.020  13.350  20.910
  862BOLB   C3A20671  20.100  13.340  20.570
  862BOLB   C4A20672  19.950  13.360  20.180
  862BOLB   C1B20673  19.470  13.350  21.600
  862BOLB   C2B20674  19.230  13.090  21.320
  862BOLB   C3B20675  19.320  12.950  20.870
  862BOLB   C4B20676  19.440  12.950  20.480
  862BOLB   NC220677  19.440  11.040  18.710
  862BOLB   PO220678  19.420  11.530  18.700
  862BOLB   GL320679  19.460  11.890  19.000
  862BOLB   GL420680  19.240  12.130  19.040
  862BOLB   C1C20681  19.680  12.070  19.300
  862BOLB   C2C20682  19.740  12.350  19.630
  862BOLB   C3C20683  19.530  12.700  19.770
  862BOLB   C4C20684  19.680  12.990  20.070
  862BOLB   C1D20685  19.250  12.120  19.520
  862BOLB   C2D20686  19.320  12.170  19.910
  862BOLB   C3D20687  19.120  12.090  20.310
  862BOLB   C4D20688  19.030  11.780  20.620
  863BOLB   NC120689  17.620  18.320  22.440
  863BOLB   PO120690  17.620  17.990  22.170
  863BOLB   GL120691  17.600  17.850  21.710
  863BOLB   GL220692  17.320  17.900  21.780
  863BOLB   C1A20693  17.570  17.770  21.320
  863BOLB   C2A20694  17.290  17.690  20.980
  863BOLB   C3A20695  17.200  17.520  20.640
  863BOLB   C4A20696  16.860  17.380  20.460
  863BOLB   C1B20697  17.150  18.040  21.440
  863BOLB   C2B20698  16.840  17.870  21.200
  863BOLB   C3B20699  16.870  17.860  20.750
  863BOLB   C4B20700  16.990  17.920  20.340
  863BOLB   NC220701  15.600  16.650  17.950
  863BOLB   PO220702  15.640  16.940  18.370
  863BOLB   GL320703  15.860  17.300  18.640
  863BOLB   GL420704  15.740  17.510  18.770
  863BOLB   C1C20705  16.130  17.160  19.030
  863BOLB   C2C20706  16.470  17.190  19.280
  863BOLB   C3C20707  16.650  17.060  19.650
  863BOLB   C4C20708  16.870  17.140  20.050
  863BOLB   C1D20709  15.700  17.490  19.250
  863BOLB   C2D20710  15.730  17.080  19.520
  863BOLB   C3D20711  16.150  16.820  19.630
  863BOLB   C4D20712  16.510  16.570  19.590
  864BOLB   NC120713  29.165  12.500  37.890
  864BOLB   PO120714  29.205  12.740  37.520
  864BOLB   GL120715  29.675  12.510  37.530
  864BOLB   GL220716  29.635  12.290  37.670
  864BOLB   C1A20717  30.105  12.650  37.490
  864BOLB   C2A20718  30.395  12.710  37.800
  864BOLB   C3A20719  30.725  12.680  38.070
  864BOLB   C4A20720  30.955  12.550  38.410
  864BOLB   C1B20721  30.015  12.200  37.890
  864BOLB   C2B20722  30.365  12.250  38.120
  864BOLB   C3B20723  30.645  12.150  38.420
  864BOLB   C4B20724  31.105  12.090  38.630
  864BOLB   NC220725  32.885  13.050  38.540
  864BOLB   PO220726  33.165  12.800  38.800
  864BOLB   GL320727  32.735  12.580  38.840
  864BOLB   GL420728  32.685  12.490  38.440
  864BOLB   C1C20729  32.425  12.550  38.950
  864BOLB   C2C20730  32.025  12.540  39.120
  864BOLB   C3C20731  31.605  12.620  39.020
  864BOLB   C4C20732  31.355  12.540  38.600
  864BOLB   C1D20733  32.255  12.430  38.350
  864BOLB   C2D20734  32.065  12.250  38.010
  864BOLB   C3D20735  31.725  11.920  37.900
  864BOLB   C4D20736  31.205  11.960  37.670
  865BOLB   NC120737  15.200  15.400  37.640
  865BOLB   PO120738  15.010  15.170  37.980
  865BOLB   GL120739  14.720  15.120  38.050
  865BOLB   GL220740  14.670  14.820  37.880
  865BOLB   C1A20741  14.310  14.920  38.190
  865BOLB   C2A20742  13.920  14.770  38.100
  865BOLB   C3A20743  13.780  14.440  38.400
  865BOLB   C4A20744  13.470  14.220  38.440
  865BOLB   C1B20745  14.310  15.080  37.720
  865BOLB   C2B20746  13.950  15.310  37.740
  865BOLB   C3B20747  13.820  15.710  38.030
  865BOLB   C4B20748  13.420  15.890  38.220
  865BOLB   NC220749  11.320  14.600  38.380
  865BOLB   PO220750  11.220  14.220  38.160
  865BOLB   GL320751  11.680  14.380  38.160
  865BOLB   GL420752  11.690  14.560  37.860
  865BOLB   C1C20753  11.940  14.430  38.470
  865BOLB   C2C20754  12.350  14.270  38.600
  865BOLB   C3C20755  12.730  14.180  38.710
  865BOLB   C4C20756  13.150  14.060  38.630
  865BOLB   C1D20757  12.150  14.490  38.040
  865BOLB   C2D20758  12.500  14.470  38.230
  865BOLB   C3D20759  12.940  14.410  38.250
  865BOLB   C4D20760  13.150  14.280  37.860
  866BOLB   NC120761  28.965  13.020  27.420
  866BOLB   PO120762  28.785  12.620  27.230
  866BOLB   GL120763  29.215  12.570  27.040
  866BOLB   GL220764  29.265  12.390  27.440
  866BOLB   C1A20765  29.665  12.490  27.080
  866BOLB   C2A20766  30.055  12.530  27.160
  866BOLB   C3A20767  30.355  12.820  27.010
  866BOLB   C4A20768  30.685  13.040  27.030
  866BOLB   C1B20769  29.635  12.210  27.470
  866BOLB   C2B20770  30.055  11.990  27.400
  866BOLB   C3B20771  30.565  11.950  27.320
  866BOLB   C4B20772  31.075  12.070  27.350
  866BOLB   NC220773  32.715  11.450  27.260
  866BOLB   PO220774  32.405  11.460  27.010
  866BOLB   GL320775  32.025  11.550  27.040
  866BOLB   GL420776  31.885  11.280  27.200
  866BOLB   C1C20777  31.795  11.720  26.660
  866BOLB   C2C20778  31.525  12.100  26.690
  866BOLB   C3C20779  31.255  12.400  27.020
  866BOLB   C4C20780  31.065  12.870  27.130
  866BOLB   C1D20781  31.435  11.270  27.240
  866BOLB   C2D20782  31.175  11.190  27.530
  866BOLB   C3D20783  30.745  11.030  27.390
  866BOLB   C4D20784  30.425  10.960  27.640
  867BOLB   NC120785  15.080  15.850  27.620
  867BOLB   PO120786  14.760  15.920  27.360
  867BOLB   GL120787  14.510  15.610  27.310
  867BOLB   GL220788  14.560  15.270  27.330
  867BOLB   C1A20789  14.050  15.400  27.160
  867BOLB   C2A20790  13.720  15.220  27.490
  867BOLB   C3A20791  13.380  15.050  27.660
  867BOLB   C4A20792  13.020  14.830  27.600
  867BOLB   C1B20793  14.240  14.930  27.440
  867BOLB   C2B20794  13.950  14.650  27.470
  867BOLB   C3B20795  13.720  14.230  27.430
  867BOLB   C4B20796  13.530  13.800  27.470
  867BOLB   NC220797  10.830  14.180  27.670
  867BOLB   PO220798  10.940  14.090  28.100
  867BOLB   GL320799  11.330  14.190  28.310
  867BOLB   GL420800  11.230  14.450  28.540
  867BOLB   C1C20801  11.650  14.430  28.060
  867BOLB   C2C20802  11.990  14.240  27.790
  867BOLB   C3C20803  12.410  14.230  27.550
  867BOLB   C4C20804  12.700  14.540  27.400
  867BOLB   C1D20805  11.500  14.530  28.790
  867BOLB   C2D20806  11.910  14.420  28.810
  867BOLB   C3D20807  12.230  14.640  28.810
  867BOLB   C4D20808  12.630  14.850  28.840
  868BOLB   NC120809  19.000  18.340  42.650
  868BOLB   PO120810  18.740  18.250  42.930
  868BOLB   GL120811  18.640  18.310  43.220
  868BOLB   GL220812  18.860  18.050  43.410
  868BOLB   C1A20813  18.390  17.950  43.540
  868BOLB   C2A20814  18.010  17.980  43.870
  868BOLB   C3A20815  17.950  17.670  44.190
  868BOLB   C4A20816  17.710  17.310  44.200
  868BOLB   C1B20817  18.800  18.240  43.670
  868BOLB   C2B20818  18.550  18.260  43.920
  868BOLB   C3B20819  18.350  18.100  44.280
  868BOLB   C4B20820  17.970  18.070  44.450
  868BOLB   NC220821  17.670  16.270  46.260
  868BOLB   PO220822  17.300  16.450  46.210
  868BOLB   GL320823  17.350  16.650  45.850
  868BOLB   GL420824  17.080  16.520  45.620
  868BOLB   C1C20825  17.520  16.720  45.510
  868BOLB   C2C20826  17.660  16.740  45.020
  868BOLB   C3C20827  17.570  16.740  44.680
  868BOLB   C4C20828  17.470  16.890  44.270
  868BOLB   C1D20829  17.130  16.510  45.200
  868BOLB   C2D20830  17.330  16.310  44.890
  868BOLB   C3D20831  17.720  16.200  44.690
  868BOLB   C4D20832  18.000  16.350  44.310
  869BOLB   NC120833  27.665  16.050  29.020
  869BOLB   PO120834  27.985  16.140  28.830
  869BOLB   GL120835  28.135  16.450  28.740
  869BOLB   GL220836  28.125  16.580  28.390
  869BOLB   C1A20837  28.535  16.700  28.730
  869BOLB   C2A20838  28.885  16.990  28.780
  869BOLB   C3A20839  29.165  16.840  28.640
  869BOLB   C4A20840  29.525  17.020  28.390
  869BOLB   C1B20841  28.375  16.760  28.050
  869BOLB   C2B20842  28.695  17.100  27.980
  869BOLB   C3B20843  28.955  17.140  28.300
  869BOLB   C4B20844  29.085  17.530  28.490
  869BOLB   NC220845  31.755  17.830  28.060
  869BOLB   PO220846  31.555  18.250  28.090
  869BOLB   GL320847  31.225  18.010  28.150
  869BOLB   GL420848  31.115  17.930  28.520
  869BOLB   C1C20849  30.985  17.620  27.870
  869BOLB   C2C20850  30.675  17.380  27.980
  869BOLB   C3C20851  30.325  17.180  28.160
  869BOLB   C4C20852  29.805  17.180  28.170
  869BOLB   C1D20853  30.805  17.690  28.390
  869BOLB   C2D20854  30.495  17.370  28.610
  869BOLB   C3D20855  30.305  16.990  28.800
  869BOLB   C4D20856  29.865  17.130  28.750
  870BOLB   NC120857  21.330  14.490  20.890
  870BOLB   PO120858  20.940  14.480  21.230
  870BOLB   GL120859  20.850  14.280  20.940
  870BOLB   GL220860  20.880  13.990  20.900
  870BOLB   C1A20861  20.790  14.220  20.450
  870BOLB   C2A20862  20.650  14.300  20.020
  870BOLB   C3A20863  20.350  14.480  19.770
  870BOLB   C4A20864  20.080  14.720  19.440
  870BOLB   C1B20865  21.010  13.630  20.710
  870BOLB   C2B20866  21.180  13.340  20.470
  870BOLB   C3B20867  21.300  13.000  20.280
  870BOLB   C4B20868  21.350  12.550  20.340
  870BOLB   NC220869  19.210  15.480  17.250
  870BOLB   PO220870  19.090  15.010  17.440
  870BOLB   GL320871  19.170  14.840  17.900
  870BOLB   GL420872  19.120  14.450  17.920
  870BOLB   C1C20873  19.260  14.860  18.350
  870BOLB   C2C20874  19.210  14.890  18.870
  870BOLB   C3C20875  19.310  14.760  19.350
  870BOLB   C4C20876  19.640  14.780  19.580
  870BOLB   C1D20877  19.460  14.250  18.250
  870BOLB   C2D20878  19.690  14.120  18.620
  870BOLB   C3D20879  19.730  13.930  19.020
  870BOLB   C4D20880  20.010  14.000  19.400
  871BOLB   NC120881  17.500  23.520  38.320
  871BOLB   PO120882  17.990  23.620  38.300
  871BOLB   GL120883  17.850  23.890  38.560
  871BOLB   GL220884  17.980  23.880  38.820
  871BOLB   C1A20885  17.420  24.160  38.580
  871BOLB   C2A20886  17.360  24.480  38.850
  871BOLB   C3A20887  17.200  24.720  39.060
  871BOLB   C4A20888  16.950  24.640  39.470
  871BOLB   C1B20889  17.840  24.310  39.060
  871BOLB   C2B20890  17.800  24.510  39.450
  871BOLB   C3B20891  17.900  24.600  39.880
  871BOLB   C4B20892  18.010  24.740  40.350
  871BOLB   NC220893  15.900  25.070  41.810
  871BOLB   PO220894  15.730  24.750  41.630
  871BOLB   GL320895  15.960  24.730  41.240
  871BOLB   GL420896  15.850  24.860  41.020
  871BOLB   C1C20897  16.200  24.440  41.000
  871BOLB   C2C20898  16.440  24.490  40.640
  871BOLB   C3C20899  16.770  24.560  40.350
  871BOLB   C4C20900  16.940  24.570  39.930
  871BOLB   C1D20901  16.270  24.970  40.810
  871BOLB   C2D20902  16.720  25.030  40.560
  871BOLB   C3D20903  17.010  24.930  40.190
  871BOLB   C4D20904  17.260  24.970  39.840
  872BOLB   NC120905  19.590  10.920  37.670
  872BOLB   PO120906  19.440  11.030  37.260
  872BOLB   GL120907  19.200  10.660  37.530
  872BOLB   GL220908  19.250  10.580  37.890
  872BOLB   C1A20909  18.790  10.350  37.550
  872BOLB   C2A20910  18.460  10.070  37.620
  872BOLB   C3A20911  18.180   9.820  37.900
  872BOLB   C4A20912  18.250   9.600  38.280
  872BOLB   C1B20913  19.410  10.140  38.000
  872BOLB   C2B20914  19.690   9.730  38.130
  872BOLB   C3B20915  19.560   9.450  38.400
  872BOLB   C4B20916  19.740   9.050  38.570
  872BOLB   NC220917  16.970   7.790  39.120
  872BOLB   PO220918  17.340   7.930  39.360
  872BOLB   GL320919  17.590   8.310  39.380
  872BOLB   GL420920  17.510   8.550  39.680
  872BOLB   C1C20921  17.800   8.610  39.310
  872BOLB   C2C20922  17.710   9.000  39.230
  872BOLB   C3C20923  17.810   9.370  38.890
  872BOLB   C4C20924  18.050   9.370  38.610
  872BOLB   C1D20925  17.940   8.510  39.790
  872BOLB   C2D20926  18.210   8.770  39.550
  872BOLB   C3D20927  18.590   8.950  39.460
  872BOLB   C4D20928  18.920   9.190  39.150
  873BOLB   NC120929  14.550  17.160  36.480
  873BOLB   PO120930  14.380  17.510  36.330
  873BOLB   GL120931  13.990  17.580  36.130
  873BOLB   GL220932  13.800  17.370  36.050
  873BOLB   C1A20933  13.520  17.770  36.070
  873BOLB   C2A20934  13.270  17.870  36.430
  873BOLB   C3A20935  13.130  17.960  36.860
  873BOLB   C4A20936  12.860  18.150  37.160
  873BOLB   C1B20937  13.590  17.380  36.390
  873BOLB   C2B20938  13.130  17.400  36.530
  873BOLB   C3B20939  12.820  17.590  36.630
  873BOLB   C4B20940  12.650  17.990  36.490
  873BOLB   NC220941  10.290  17.620  37.860
  873BOLB   PO220942  10.680  17.720  37.960
  873BOLB   GL320943  11.020  17.870  37.690
  873BOLB   GL420944  11.120  18.070  37.910
  873BOLB   C1C20945  11.470  17.820  37.460
  873BOLB   C2C20946  11.740  18.140  37.270
  873BOLB   C3C20947  12.160  18.160  37.350
  873BOLB   C4C20948  12.560  18.180  37.340
  873BOLB   C1D20949  11.480  18.220  37.830
  873BOLB   C2D20950  11.840  18.430  37.710
  873BOLB   C3D20951  12.000  18.860  37.870
  873BOLB   C4D20952  12.410  19.090  37.880
  874BOLB   NC120953  32.515  10.290  26.150
  874BOLB   PO120954  32.135  10.530  25.910
  874BOLB   GL120955  31.705  10.530  25.970
  874BOLB   GL220956  31.525  10.570  25.710
  874BOLB   C1A20957  31.325  10.350  26.230
  874BOLB   C2A20958  30.925  10.300  26.250
  874BOLB   C3A20959  30.495  10.190  26.230
  874BOLB   C4A20960  30.295  10.450  26.560
  874BOLB   C1B20961  31.325  10.940  25.990
  874BOLB   C2B20962  31.015  11.180  26.310
  874BOLB   C3B20963  30.615  11.120  26.540
  874BOLB   C4B20964  30.165  11.260  26.740
  874BOLB   NC220965  32.785  10.940  26.800
  874BOLB   PO220966  32.625  11.230  26.560
  874BOLB   GL320967  32.265  11.060  26.670
  874BOLB   GL420968  32.245  10.840  26.990
  874BOLB   C1C20969  31.855  11.190  26.700
  874BOLB   C2C20970  31.305  11.290  26.720
  874BOLB   C3C20971  30.975  11.110  26.970
  874BOLB   C4C20972  30.495  10.870  26.920
  874BOLB   C1D20973  31.865  10.710  27.020
  874BOLB   C2D20974  31.515  10.690  27.050
  874BOLB   C3D20975  31.325  10.770  27.350
  874BOLB   C4D20976  30.965  10.600  27.530
  875BOLB   NC120977  23.350  21.050  41.450
  875BOLB   PO120978  23.180  20.710  41.620
  875BOLB   GL120979  23.400  20.770  41.970
  875BOLB   GL220980  23.690  20.940  41.810
  875BOLB   C1A20981  23.620  20.750  42.400
  875BOLB   C2A20982  23.660  21.070  42.800
  875BOLB   C3A20983  23.760  21.490  42.880
  875BOLB   C4A20984  23.750  21.920  42.880
  875BOLB   C1B20985  23.680  21.220  42.130
  875BOLB   C2B20986  23.550  21.470  42.380
  875BOLB   C3B20987  23.720  21.920  42.320
  875BOLB   C4B20988  23.630  22.260  41.950
  875BOLB   NC220989  24.330  23.740  43.740
  875BOLB   PO220990  24.800  23.580  43.640
  875BOLB   GL320991  24.560  23.330  43.420
  875BOLB   GL420992  24.690  23.020  43.340
  875BOLB   C1C20993  24.130  23.180  43.490
  875BOLB   C2C20994  23.820  22.790  43.580
  875BOLB   C3C20995  23.700  22.490  43.370
  875BOLB   C4C20996  23.780  22.350  42.920
  875BOLB   C1D20997  24.860  22.640  43.050
  875BOLB   C2D20998  24.970  22.310  42.950
  875BOLB   C3D20999  25.160  21.800  42.980
  875BOLB   C4D21000  25.550  21.590  42.780
  876BOLB   NC121001  15.070  19.540  24.120
  876BOLB   PO121002  15.060  19.390  23.780
  876BOLB   GL121003  14.680  19.260  23.710
  876BOLB   GL221004  14.480  19.040  23.900
  876BOLB   C1A21005  14.270  19.260  23.560
  876BOLB   C2A21006  13.860  19.420  23.390
  876BOLB   C3A21007  13.510  19.680  23.280
  876BOLB   C4A21008  13.150  20.020  23.290
  876BOLB   C1B21009  14.350  18.780  23.670
  876BOLB   C2B21010  14.150  18.440  23.430
  876BOLB   C3B21011  13.800  18.090  23.400
  876BOLB   C4B21012  13.410  17.850  23.240
  876BOLB   NC221013  11.810  19.680  21.760
  876BOLB   PO221014  11.980  19.740  21.380
  876BOLB   GL321015  12.420  19.790  21.480
  876BOLB   GL421016  12.600  20.040  21.300
  876BOLB   C1C21017  12.590  19.820  21.850
  876BOLB   C2C21018  12.710  19.810  22.320
  876BOLB   C3C21019  12.600  19.850  22.650
  876BOLB   C4C21020  12.740  20.010  23.080
  876BOLB   C1D21021  12.670  20.340  21.690
  876BOLB   C2D21022  12.970  20.250  21.950
  876BOLB   C3D21023  13.180  19.990  22.230
  876BOLB   C4D21024  13.500  19.770  22.520
  877BOLB   NC121025  17.260  13.400  25.570
  877BOLB   PO121026  17.540  13.310  25.270
  877BOLB   GL121027  17.150  13.350  25.080
  877BOLB   GL221028  17.110  13.590  25.150
  877BOLB   C1A21029  16.780  13.330  24.780
  877BOLB   C2A21030  16.430  13.390  24.540
  877BOLB   C3A21031  16.070  13.210  24.510
  877BOLB   C4A21032  15.860  12.910  24.290
  877BOLB   C1B21033  16.620  13.700  25.050
  877BOLB   C2B21034  16.240  13.420  25.060
  877BOLB   C3B21035  15.890  13.180  25.050
  877BOLB   C4B21036  15.630  13.020  24.750
  877BOLB   NC221037  13.840  12.190  22.680
  877BOLB   PO221038  14.140  11.830  22.660
  877BOLB   GL321039  14.420  12.160  22.970
  877BOLB   GL421040  14.280  12.430  22.760
  877BOLB   C1C21041  14.770  12.300  23.350
  877BOLB   C2C21042  15.240  12.410  23.370
  877BOLB   C3C21043  15.680  12.570  23.590
  877BOLB   C4C21044  15.780  12.600  24.090
  877BOLB   C1D21045  14.500  12.720  23.180
  877BOLB   C2D21046  14.890  12.800  23.370
  877BOLB   C3D21047  15.350  12.910  23.500
  877BOLB   C4D21048  15.770  13.030  23.250
  878BOLB   NC121049  15.350  23.920  29.520
  878BOLB   PO121050  15.600  23.880  29.080
  878BOLB   GL121051  15.230  24.130  28.980
  878BOLB   GL221052  15.080  24.220  29.240
  878BOLB   C1A21053  15.140  24.560  28.830
  878BOLB   C2A21054  14.980  24.810  28.880
  878BOLB   C3A21055  14.910  25.310  28.840
  878BOLB   C4A21056  15.040  25.660  28.840
  878BOLB   C1B21057  14.910  24.600  29.380
  878BOLB   C2B21058  14.810  24.950  29.550
  878BOLB   C3B21059  14.600  25.310  29.650
  878BOLB   C4B21060  14.690  25.680  29.770
  878BOLB   NC221061  14.850   1.990  28.780
  878BOLB   PO221062  14.680   1.630  28.980
  878BOLB   GL321063  14.880   1.250  29.100
  878BOLB   GL421064  15.150   1.060  28.900
  878BOLB   C1C21065  14.890   0.810  29.280
  878BOLB   C2C21066  15.040   0.480  29.380
  878BOLB   C3C21067  15.040   0.060  29.230
  878BOLB   C4C21068  15.100  26.050  29.070
  878BOLB   C1D21069  15.320   0.690  29.010
  878BOLB   C2D21070  15.490   0.330  28.860
  878BOLB   C3D21071  15.590   0.110  28.960
  878BOLB   C4D21072  15.610  26.220  29.170
  879BOLB   NC121073  21.880   9.860  45.050
  879BOLB   PO121074  21.800  10.270  45.110
  879BOLB   GL121075  21.910  10.510  44.730
  879BOLB   GL221076  21.710  10.380  44.500
  879BOLB   C1A21077  22.080  10.880  44.450
  879BOLB   C2A21078  22.120  11.300  44.250
  879BOLB   C3A21079  22.320  11.700  44.270
  879BOLB   C4A21080  22.670  11.980  44.080
  879BOLB   C1B21081  21.940  10.520  44.160
  879BOLB   C2B21082  22.280  10.700  44.050
  879BOLB   C3B21083  22.350  10.980  43.670
  879BOLB   C4B21084  22.480  10.850  43.260
  879BOLB   NC221085  24.360  11.490  46.090
  879BOLB   PO221086  23.960  11.480  45.900
  879BOLB   GL321087  23.780  11.770  45.700
  879BOLB   GL421088  24.030  11.950  45.750
  879BOLB   C1C21089  23.640  11.740  45.310
  879BOLB   C2C21090  23.640  11.650  44.750
  879BOLB   C3C21091  23.520  11.790  44.390
  879BOLB   C4C21092  23.100  11.900  44.190
  879BOLB   C1D21093  23.970  12.120  45.310
  879BOLB   C2D21094  23.910  12.480  44.980
  879BOLB   C3D21095  23.910  12.560  44.520
  879BOLB   C4D21096  23.910  12.980  44.260
  880BOLB   NC121097  24.810  10.270  24.170
  880BOLB   PO121098  25.080  10.670  23.940
  880BOLB   GL121099  25.060  10.250  23.760
  880BOLB   GL221100  25.270  10.270  23.570
  880BOLB   C1A21101  25.120   9.830  23.750
  880BOLB   C2A21102  25.230   9.410  23.740
  880BOLB   C3A21103  25.390   9.050  23.800
  880BOLB   C4A21104  25.520   8.690  23.650
  880BOLB   C1B21105  25.560  10.320  23.400
  880BOLB   C2B21106  25.980  10.590  23.490
  880BOLB   C3B21107  26.430  10.420  23.430
  880BOLB   C4B21108  26.905  10.330  23.300
  880BOLB   NC221109  25.700   6.780  21.770
  880BOLB   PO221110  25.780   6.910  22.210
  880BOLB   GL321111  25.960   7.040  22.640
  880BOLB   GL421112  25.710   7.090  22.860
  880BOLB   C1C21113  26.010   7.470  22.870
  880BOLB   C2C21114  25.900   7.690  23.120
  880BOLB   C3C21115  25.790   8.010  23.330
  880BOLB   C4C21116  25.670   8.420  23.390
  880BOLB   C1D21117  25.480   7.420  22.860
  880BOLB   C2D21118  25.350   7.860  22.770
  880BOLB   C3D21119  24.900   7.940  22.580
  880BOLB   C4D21120  24.810   7.820  22.190
  881BOLB   NC121121  13.380  18.270  31.610
  881BOLB   PO121122  13.560  17.990  31.340
  881BOLB   GL121123  13.100  17.950  31.210
  881BOLB   GL221124  13.050  17.580  31.310
  881BOLB   C1A21125  12.630  18.090  30.850
  881BOLB   C2A21126  12.210  18.160  30.750
  881BOLB   C3A21127  11.850  18.310  30.660
  881BOLB   C4A21128  11.650  18.000  30.510
  881BOLB   C1B21129  12.760  17.420  31.400
  881BOLB   C2B21130  12.470  17.250  31.570
  881BOLB   C3B21131  12.210  17.060  31.780
  881BOLB   C4B21132  11.900  16.740  31.910
  881BOLB   NC221133   9.740  17.670  29.000
  881BOLB   PO221134   9.950  17.360  29.350
  881BOLB   GL321135  10.060  17.090  29.730
  881BOLB   GL421136   9.830  16.890  29.890
  881BOLB   C1C21137  10.310  17.290  30.010
  881BOLB   C2C21138  10.580  17.610  30.220
  881BOLB   C3C21139  10.960  17.680  30.170
  881BOLB   C4C21140  11.310  17.860  30.360
  881BOLB   C1D21141  10.150  16.820  30.130
  881BOLB   C2D21142  10.610  16.590  30.200
  881BOLB   C3D21143  10.960  16.680  30.070
  881BOLB   C4D21144  11.350  16.840  30.250
  882BOLB   NC121145  26.150  17.550  41.080
  882BOLB   PO121146  26.455  17.560  40.710
  882BOLB   GL121147  26.865  17.610  41.040
  882BOLB   GL221148  26.835  17.940  41.130
  882BOLB   C1A21149  27.225  17.650  41.230
  882BOLB   C2A21150  27.515  17.590  41.520
  882BOLB   C3A21151  27.865  17.550  41.810
  882BOLB   C4A21152  28.085  17.550  42.220
  882BOLB   C1B21153  27.115  18.220  41.270
  882BOLB   C2B21154  27.425  18.050  41.520
  882BOLB   C3B21155  27.785  18.180  41.750
  882BOLB   C4B21156  27.955  18.490  42.040
  882BOLB   NC221157  29.405  17.030  44.900
  882BOLB   PO221158  29.245  17.050  44.440
  882BOLB   GL321159  29.155  17.080  44.040
  882BOLB   GL421160  29.325  16.960  43.790
  882BOLB   C1C21161  28.815  17.160  43.630
  882BOLB   C2C21162  28.565  17.200  43.220
  882BOLB   C3C21163  28.355  17.130  42.780
  882BOLB   C4C21164  28.285  17.370  42.470
  882BOLB   C1D21165  29.225  16.970  43.380
  882BOLB   C2D21166  29.195  16.720  42.940
  882BOLB   C3D21167  28.985  16.480  42.530
  882BOLB   C4D21168  28.735  16.480  42.200
  883BOLB   NC121169  30.095  11.490  32.130
  883BOLB   PO121170  29.895  11.820  31.890
  883BOLB   GL121171  30.235  11.850  31.640
  883BOLB   GL221172  30.345  12.210  31.630
  883BOLB   C1A21173  30.475  11.800  31.280
  883BOLB   C2A21174  30.825  11.660  31.340
  883BOLB   C3A21175  31.215  11.680  31.530
  883BOLB   C4A21176  31.465  11.670  31.760
  883BOLB   C1B21177  30.595  12.370  31.460
  883BOLB   C2B21178  30.985  12.610  31.430
  883BOLB   C3B21179  31.405  12.770  31.350
  883BOLB   C4B21180  31.655  12.560  31.550
  883BOLB   NC221181  33.735  10.930  31.460
  883BOLB   PO221182  33.715  11.190  31.790
  883BOLB   GL321183  33.345  11.200  31.560
  883BOLB   GL421184  33.235  11.190  31.210
  883BOLB   C1C21185  32.975  11.140  31.630
  883BOLB   C2C21186  32.535  11.070  31.480
  883BOLB   C3C21187  32.145  11.240  31.400
  883BOLB   C4C21188  31.795  11.490  31.570
  883BOLB   C1D21189  32.905  11.420  31.100
  883BOLB   C2D21190  32.495  11.510  31.120
  883BOLB   C3D21191  32.055  11.750  31.140
  883BOLB   C4D21192  31.585  11.700  31.170
  884BOLB   NC121193  26.765   8.730  36.180
  884BOLB   PO121194  26.655   8.340  36.340
  884BOLB   GL121195  26.755   7.990  36.440
  884BOLB   GL221196  26.505   7.910  36.670
  884BOLB   C1A21197  26.935   7.620  36.410
  884BOLB   C2A21198  27.305   7.400  36.350
  884BOLB   C3A21199  27.745   7.240  36.450
  884BOLB   C4A21200  27.905   6.870  36.450
  884BOLB   C1B21201  26.825   7.750  36.870
  884BOLB   C2B21202  27.215   7.700  36.900
  884BOLB   C3B21203  27.475   7.320  36.840
  884BOLB   C4B21204  27.585   6.830  36.860
  884BOLB   NC221205  28.975   4.910  37.310
  884BOLB   PO221206  29.335   4.980  36.950
  884BOLB   GL321207  29.085   5.290  36.940
  884BOLB   GL421208  29.255   5.420  36.650
  884BOLB   C1C21209  28.715   5.540  36.840
  884BOLB   C2C21210  28.465   5.760  36.560
  884BOLB   C3C21211  28.425   6.270  36.450
  884BOLB   C4C21212  28.205   6.520  36.420
  884BOLB   C1D21213  28.895   5.450  36.370
  884BOLB   C2D21214  28.785   5.790  36.160
  884BOLB   C3D21215  28.825   6.120  35.840
  884BOLB   C4D21216  29.035   6.570  35.810
  885BOLB   NC121217  15.030  15.510  27.210
  885BOLB   PO121218  15.050  15.800  26.950
  885BOLB   GL121219  14.750  15.550  26.730
  885BOLB   GL221220  14.650  15.390  26.840
  885BOLB   C1A21221  14.420  15.360  26.420
  885BOLB   C2A21222  14.150  15.340  26.060
  885BOLB   C3A21223  14.020  15.020  25.900
  885BOLB   C4A21224  13.790  14.760  25.690
  885BOLB   C1B21225  14.320  15.180  26.840
  885BOLB   C2B21226  13.900  15.000  26.950
  885BOLB   C3B21227  13.420  15.020  27.040
  885BOLB   C4B21228  13.100  15.260  27.290
  885BOLB   NC221229  11.840  13.430  23.610
  885BOLB   PO221230  12.060  13.700  24.030
  885BOLB   GL321231  12.460  13.840  24.200
  885BOLB   GL421232  12.560  14.200  23.990
  885BOLB   C1C21233  12.690  13.850  24.590
  885BOLB   C2C21234  12.870  14.020  24.930
  885BOLB   C3C21235  13.150  14.220  25.240
  885BOLB   C4C21236  13.500  14.400  25.530
  885BOLB   C1D21237  12.700  14.610  24.010
  885BOLB   C2D21238  12.990  14.820  24.050
  885BOLB   C3D21239  13.260  14.980  24.280
  885BOLB   C4D21240  13.670  15.140  24.410
  886BOLB   NC121241  16.700  12.070  32.750
  886BOLB   PO121242  17.000  12.140  33.070
  886BOLB   GL121243  16.870  11.700  33.040
  886BOLB   GL221244  16.980  11.490  32.820
  886BOLB   C1A21245  16.490  11.500  33.010
  886BOLB   C2A21246  16.230  11.090  33.050
  886BOLB   C3A21247  16.030  10.840  33.390
  886BOLB   C4A21248  16.150  10.600  33.730
  886BOLB   C1B21249  16.940  11.230  33.180
  886BOLB   C2B21250  16.930  10.800  33.250
  886BOLB   C3B21251  16.910  10.360  33.130
  886BOLB   C4B21252  16.790  10.020  33.370
  886BOLB   NC221253  14.650   8.100  33.970
  886BOLB   PO221254  14.720   8.550  33.930
  886BOLB   GL321255  15.050   8.800  33.990
  886BOLB   GL421256  15.380   8.680  34.090
  886BOLB   C1C21257  15.260   9.170  33.930
  886BOLB   C2C21258  15.600   9.350  33.940
  886BOLB   C3C21259  15.960   9.790  33.930
  886BOLB   C4C21260  15.910  10.270  33.870
  886BOLB   C1D21261  15.550   8.820  33.670
  886BOLB   C2D21262  15.800   9.080  33.540
  886BOLB   C3D21263  16.200   9.400  33.660
  886BOLB   C4D21264  16.530   9.660  33.710
  887BOLB   NC121265  22.830  25.830  41.680
  887BOLB   PO121266  23.070  25.500  41.950
  887BOLB   GL121267  23.140  25.110  41.860
  887BOLB   GL221268  23.210  24.790  42.130
  887BOLB   C1A21269  22.830  24.870  41.790
  887BOLB   C2A21270  22.590  24.430  41.750
  887BOLB   C3A21271  22.230  24.250  41.870
  887BOLB   C4A21272  21.820  24.260  42.020
  887BOLB   C1B21273  22.820  24.610  42.290
  887BOLB   C2B21274  22.440  24.700  42.210
  887BOLB   C3B21275  22.090  24.560  42.310
  887BOLB   C4B21276  21.620  24.670  42.430
  887BOLB   NC221277  20.590  25.210  43.760
  887BOLB   PO221278  20.930  25.190  43.600
  887BOLB   GL321279  20.720  24.920  43.340
  887BOLB   GL421280  20.850  25.010  43.040
  887BOLB   C1C21281  20.710  24.540  42.950
  887BOLB   C2C21282  20.980  24.120  42.790
  887BOLB   C3C21283  21.240  23.950  42.470
  887BOLB   C4C21284  21.460  24.210  42.140
  887BOLB   C1D21285  21.140  24.770  42.750
  887BOLB   C2D21286  21.200  24.490  42.410
  887BOLB   C3D21287  21.040  24.270  41.990
  887BOLB   C4D21288  21.140  23.810  41.900
  888BOLB   NC121289  27.485  14.510  24.670
  888BOLB   PO121290  27.455  14.200  24.880
  888BOLB   GL121291  27.845  14.190  24.780
  888BOLB   GL221292  28.025  14.470  24.980
  888BOLB   C1A21293  28.265  14.110  24.640
  888BOLB   C2A21294  28.815  14.310  24.630
  888BOLB   C3A21295  29.295  14.340  24.730
  888BOLB   C4A21296  29.665  14.390  24.920
  888BOLB   C1B21297  28.375  14.610  24.650
  888BOLB   C2B21298  28.675  14.720  24.270
  888BOLB   C3B21299  28.855  14.910  23.980
  888BOLB   C4B21300  29.165  14.970  23.720
  888BOLB   NC221301  32.305  15.210  25.520
  888BOLB   PO221302  32.075  14.860  25.660
  888BOLB   GL321303  31.705  14.720  25.860
  888BOLB   GL421304  31.615  15.080  26.080
  888BOLB   C1C21305  31.325  14.420  25.750
  888BOLB   C2C21306  30.845  14.170  25.650
  888BOLB   C3C21307  30.395  14.230  25.440
  888BOLB   C4C21308  29.985  14.410  25.330
  888BOLB   C1D21309  31.245  14.780  26.040
  888BOLB   C2D21310  31.085  14.790  25.570
  888BOLB   C3D21311  30.645  14.740  25.510
  888BOLB   C4D21312  30.185  14.740  25.650
  889BOLB   NC121313  29.305  11.030  29.550
  889BOLB   PO121314  29.495  10.720  29.810
  889BOLB   GL121315  29.865  10.670  29.700
  889BOLB   GL221316  29.975  10.970  29.770
  889BOLB   C1A21317  30.075  10.830  29.250
  889BOLB   C2A21318  30.395  11.040  29.230
  889BOLB   C3A21319  30.705  10.950  28.890
  889BOLB   C4A21320  30.815  10.890  28.510
  889BOLB   C1B21321  30.405  10.790  29.750
  889BOLB   C2B21322  30.705  10.670  29.710
  889BOLB   C3B21323  30.805  10.230  29.600
  889BOLB   C4B21324  30.865   9.970  29.170
  889BOLB   NC221325  33.555  10.110  28.340
  889BOLB   PO221326  33.305  10.420  28.350
  889BOLB   GL321327  33.005  10.820  28.620
  889BOLB   GL421328  33.025  10.870  28.890
  889BOLB   C1C21329  32.485  10.800  28.430
  889BOLB   C2C21330  31.995  10.820  28.420
  889BOLB   C3C21331  31.525  10.960  28.400
  889BOLB   C4C21332  31.155  10.950  28.350
  889BOLB   C1D21333  32.615  10.880  28.880
  889BOLB   C2D21334  32.335  11.120  29.010
  889BOLB   C3D21335  32.005  11.250  29.250
  889BOLB   C4D21336  31.715  11.480  29.170
  890BOLB   NC121337  17.780  23.560  25.120
  890BOLB   PO121338  17.720  23.690  25.490
  890BOLB   GL121339  17.740  23.980  25.690
  890BOLB   GL221340  17.970  24.010  25.800
  890BOLB   C1A21341  17.390  24.320  25.660
  890BOLB   C2A21342  17.000  24.470  25.470
  890BOLB   C3A21343  16.730  24.700  25.120
  890BOLB   C4A21344  16.380  24.860  24.960
  890BOLB   C1B21345  17.880  24.420  25.610
  890BOLB   C2B21346  17.770  24.790  25.500
  890BOLB   C3B21347  17.740  25.050  25.040
  890BOLB   C4B21348  17.520  25.410  24.800
  890BOLB   NC221349  15.660   0.110  23.360
  890BOLB   PO221350  15.890   0.300  23.630
  890BOLB   GL321351  15.810   0.120  24.110
  890BOLB   GL421352  15.510   0.180  24.280
  890BOLB   C1C21353  15.900  26.090  24.090
  890BOLB   C2C21354  15.890  25.710  24.240
  890BOLB   C3C21355  15.890  25.530  24.590
  890BOLB   C4C21356  16.070  25.200  24.810
  890BOLB   C1D21357  15.720  26.330  24.570
  890BOLB   C2D21358  15.980  25.990  24.740
  890BOLB   C3D21359  16.080  25.690  25.020
  890BOLB   C4D21360  16.430  25.620  25.320
  891BOLB   NC121361  25.900  18.210  41.100
  891BOLB   PO121362  25.570  18.460  41.330
  891BOLB   GL121363  25.860  18.840  41.470
  891BOLB   GL221364  25.610  18.910  41.690
  891BOLB   C1A21365  26.090  19.060  41.840
  891BOLB   C2A21366  26.420  18.980  42.040
  891BOLB   C3A21367  26.665  18.850  42.380
  891BOLB   C4A21368  26.805  18.740  42.780
  891BOLB   C1B21369  25.650  19.450  41.800
  891BOLB   C2B21370  25.820  19.820  42.060
  891BOLB   C3B21371  26.040  20.200  42.070
  891BOLB   C4B21372  26.220  20.560  42.170
  891BOLB   NC221373  28.155  18.590  44.730
  891BOLB   PO221374  27.905  18.410  45.130
  891BOLB   GL321375  27.615  18.600  44.830
  891BOLB   GL421376  27.415  18.620  44.970
  891BOLB   C1C21377  27.245  18.810  44.460
  891BOLB   C2C21378  26.975  18.900  44.070
  891BOLB   C3C21379  26.755  18.860  43.660
  891BOLB   C4C21380  26.885  18.860  43.280
  891BOLB   C1D21381  27.015  18.650  44.840
  891BOLB   C2D21382  26.715  18.710  44.440
  891BOLB   C3D21383  26.320  18.610  44.160
  891BOLB   C4D21384  26.110  18.230  44.290
  892BOLB   NC121385  18.900  26.400  41.890
  892BOLB   PO121386  19.120  26.310  42.290
  892BOLB   GL121387  19.090  25.920  41.980
  892BOLB   GL221388  18.920  25.970  41.650
  892BOLB   C1A21389  19.040  25.420  41.980
  892BOLB   C2A21390  19.250  24.990  42.090
  892BOLB   C3A21391  19.650  24.940  41.990
  892BOLB   C4A21392  19.910  25.050  41.750
  892BOLB   C1B21393  19.070  25.620  41.530
  892BOLB   C2B21394  19.040  25.240  41.460
  892BOLB   C3B21395  19.100  24.890  41.220
  892BOLB   C4B21396  19.350  24.590  41.200
  892BOLB   NC221397  20.240  26.230  41.730
  892BOLB   PO221398  20.440  26.130  42.080
  892BOLB   GL321399  20.320  25.670  41.880
  892BOLB   GL421400  20.450  25.730  41.510
  892BOLB   C1C21401  19.920  25.700  41.520
  892BOLB   C2C21402  19.780  25.660  41.140
  892BOLB   C3C21403  19.810  25.290  41.140
  892BOLB   C4C21404  20.060  25.090  41.410
  892BOLB   C1D21405  20.320  25.460  41.160
  892BOLB   C2D21406  20.170  25.060  40.930
  892BOLB   C3D21407  20.190  24.610  41.020
  892BOLB   C4D21408  20.390  24.240  40.880
  893BOLB   NC121409  14.980  18.890  24.070
  893BOLB   PO121410  15.200  18.530  23.960
  893BOLB   GL121411  15.040  18.010  23.950
  893BOLB   GL221412  15.250  17.840  23.660
  893BOLB   C1A21413  14.660  17.800  23.910
  893BOLB   C2A21414  14.230  17.810  23.780
  893BOLB   C3A21415  13.850  17.640  23.560
  893BOLB   C4A21416  13.440  17.410  23.450
  893BOLB   C1B21417  14.820  17.830  23.450
  893BOLB   C2B21418  14.370  17.900  23.360
  893BOLB   C3B21419  14.050  17.800  23.000
  893BOLB   C4B21420  13.660  17.500  22.930
  893BOLB   NC221421  12.320  15.820  22.150
  893BOLB   PO221422  12.350  15.990  22.570
  893BOLB   GL321423  12.640  16.040  22.840
  893BOLB   GL421424  12.680  15.990  23.230
  893BOLB   C1C21425  13.030  16.280  23.010
  893BOLB   C2C21426  13.200  16.520  23.330
  893BOLB   C3C21427  13.120  16.720  23.680
  893BOLB   C4C21428  13.040  17.240  23.670
  893BOLB   C1D21429  12.810  16.310  23.560
  893BOLB   C2D21430  12.660  16.600  23.810
  893BOLB   C3D21431  12.660  16.620  24.240
  893BOLB   C4D21432  12.490  16.150  24.490
  894BOLB   NC121433  13.380  18.400  33.610
  894BOLB   PO121434  13.370  18.670  33.340
  894BOLB   GL121435  12.950  18.510  33.290
  894BOLB   GL221436  12.700  18.810  33.270
  894BOLB   C1A21437  12.530  18.360  33.170
  894BOLB   C2A21438  12.150  18.230  33.310
  894BOLB   C3A21439  11.870  17.880  33.270
  894BOLB   C4A21440  11.550  17.770  33.000
  894BOLB   C1B21441  12.550  18.690  33.640
  894BOLB   C2B21442  12.340  18.300  33.780
  894BOLB   C3B21443  12.020  18.200  33.830
  894BOLB   C4B21444  11.660  18.170  33.620
  894BOLB   NC221445   9.140  17.420  32.580
  894BOLB   PO221446   9.230  17.300  32.100
  894BOLB   GL321447   9.580  17.520  32.390
  894BOLB   GL421448   9.880  17.630  32.230
  894BOLB   C1C21449   9.980  17.390  32.670
  894BOLB   C2C21450  10.380  17.210  32.660
  894BOLB   C3C21451  10.790  17.420  32.860
  894BOLB   C4C21452  11.290  17.380  32.990
  894BOLB   C1D21453  10.340  17.630  32.290
  894BOLB   C2D21454  10.800  17.580  32.360
  894BOLB   C3D21455  11.070  17.310  32.310
  894BOLB   C4D21456  11.450  17.310  32.290
  895BOLB   NC121457  24.380   9.610  25.280
  895BOLB   PO121458  24.830   9.700  25.090
  895BOLB   GL121459  25.090   9.510  24.760
  895BOLB   GL221460  25.250   9.200  24.980
  895BOLB   C1A21461  25.380   9.250  24.490
  895BOLB   C2A21462  25.370   8.830  24.260
  895BOLB   C3A21463  25.220   8.620  24.030
  895BOLB   C4A21464  25.240   8.270  23.760
  895BOLB   C1B21465  25.330   8.760  24.800
  895BOLB   C2B21466  25.600   8.540  24.580
  895BOLB   C3B21467  25.920   8.230  24.360
  895BOLB   C4B21468  26.150   7.910  24.160
  895BOLB   NC221469  26.340   6.210  22.350
  895BOLB   PO221470  26.010   6.320  22.620
  895BOLB   GL321471  25.980   6.610  22.930
  895BOLB   GL421472  25.760   6.380  23.120
  895BOLB   C1C21473  25.810   6.880  23.270
  895BOLB   C2C21474  25.700   7.260  23.420
  895BOLB   C3C21475  25.430   7.630  23.280
  895BOLB   C4C21476  25.270   7.980  23.400
  895BOLB   C1D21477  25.990   6.410  23.470
  895BOLB   C2D21478  26.090   6.260  23.870
  895BOLB   C3D21479  26.340   6.640  24.160
  895BOLB   C4D21480  26.170   6.930  24.410
  896BOLB   NC121481  14.050  21.170  25.780
  896BOLB   PO121482  14.240  21.530  26.110
  896BOLB   GL121483  13.840  21.610  25.850
  896BOLB   GL221484  13.860  21.950  25.590
  896BOLB   C1A21485  13.360  21.600  25.750
  896BOLB   C2A21486  12.950  21.760  25.850
  896BOLB   C3A21487  12.580  21.830  25.920
  896BOLB   C4A21488  12.210  22.070  25.900
  896BOLB   C1B21489  13.430  22.100  25.580
  896BOLB   C2B21490  13.160  21.890  25.410
  896BOLB   C3B21491  12.990  21.980  25.100
  896BOLB   C4B21492  12.570  22.030  24.940
  896BOLB   NC221493   9.740  22.910  25.240
  896BOLB   PO221494  10.180  22.910  25.190
  896BOLB   GL321495  10.340  22.740  25.550
  896BOLB   GL421496  10.370  22.410  25.580
  896BOLB   C1C21497  10.590  22.520  25.990
  896BOLB   C2C21498  11.030  22.340  26.130
  896BOLB   C3C21499  11.440  22.270  25.990
  896BOLB   C4C21500  11.750  22.070  25.930
  896BOLB   C1D21501  10.740  22.300  25.520
  896BOLB   C2D21502  11.120  22.530  25.590
  896BOLB   C3D21503  11.560  22.600  25.540
  896BOLB   C4D21504  11.940  22.480  25.520
  897BOLB   NC121505  19.450  16.810  47.480
  897BOLB   PO121506  19.830  16.790  47.270
  897BOLB   GL121507  19.720  16.910  46.990
  897BOLB   GL221508  19.380  16.850  46.900
  897BOLB   C1A21509  19.810  16.950  46.580
  897BOLB   C2A21510  20.180  16.990  46.320
  897BOLB   C3A21511  20.200  17.330  46.020
  897BOLB   C4A21512  19.960  17.730  45.900
  897BOLB   C1B21513  19.580  16.540  46.650
  897BOLB   C2B21514  19.860  16.460  46.300
  897BOLB   C3B21515  20.020  16.150  46.200
  897BOLB   C4B21516  20.080  15.960  45.810
  897BOLB   NC221517  17.530  17.010  46.920
  897BOLB   PO221518  17.940  17.000  46.880
  897BOLB   GL321519  18.020  17.320  46.500
  897BOLB   GL421520  18.040  17.170  46.240
  897BOLB   C1C21521  18.460  17.540  46.460
  897BOLB   C2C21522  18.830  17.610  46.200
  897BOLB   C3C21523  19.250  17.770  46.080
  897BOLB   C4C21524  19.580  17.760  45.970
  897BOLB   C1D21525  18.040  16.790  46.020
  897BOLB   C2D21526  17.920  16.580  45.680
  897BOLB   C3D21527  18.300  16.320  45.500
  897BOLB   C4D21528  18.450  16.110  45.170
  898BOLB   NC121529  16.300  12.810  30.060
  898BOLB   PO121530  15.990  12.870  30.370
  898BOLB   GL121531  15.520  13.100  30.110
  898BOLB   GL221532  15.390  13.350  30.110
  898BOLB   C1A21533  15.150  12.880  30.150
  898BOLB   C2A21534  14.770  13.040  30.330
  898BOLB   C3A21535  14.340  12.980  30.420
  898BOLB   C4A21536  14.230  12.520  30.550
  898BOLB   C1B21537  15.040  13.410  30.420
  898BOLB   C2B21538  14.720  13.410  30.640
  898BOLB   C3B21539  14.460  13.070  30.920
  898BOLB   C4B21540  14.250  12.680  31.070
  898BOLB   NC221541  12.320  11.230  30.040
  898BOLB   PO221542  12.600  10.970  29.820
  898BOLB   GL321543  12.850  11.150  30.040
  898BOLB   GL421544  12.810  11.380  30.270
  898BOLB   C1C21545  13.160  11.360  29.880
  898BOLB   C2C21546  13.470  11.690  29.950
  898BOLB   C3C21547  13.530  11.990  30.280
  898BOLB   C4C21548  13.850  12.270  30.360
  898BOLB   C1D21549  13.160  11.620  30.400
  898BOLB   C2D21550  13.240  12.000  30.700
  898BOLB   C3D21551  13.480  12.280  30.730
  898BOLB   C4D21552  13.740  12.580  30.940
  899BOLB   NC121553  22.410  11.910  22.270
  899BOLB   PO121554  22.840  12.070  22.440
  899BOLB   GL121555  22.830  11.650  22.180
  899BOLB   GL221556  23.030  11.480  21.950
  899BOLB   C1A21557  22.720  11.180  22.140
  899BOLB   C2A21558  22.910  10.900  21.850
  899BOLB   C3A21559  22.980  10.660  21.450
  899BOLB   C4A21560  23.210  10.270  21.420
  899BOLB   C1B21561  22.550  11.450  21.780
  899BOLB   C2B21562  22.230  11.300  21.530
  899BOLB   C3B21563  22.220  11.340  21.150
  899BOLB   C4B21564  22.100  11.350  20.740
  899BOLB   NC221565  24.490   9.400  19.740
  899BOLB   PO221566  24.160   9.320  19.870
  899BOLB   GL321567  23.890   9.120  20.120
  899BOLB   GL421568  23.660   9.300  20.100
  899BOLB   C1C21569  23.860   9.000  20.610
  899BOLB   C2C21570  23.780   9.250  21.000
  899BOLB   C3C21571  23.750   9.460  21.440
  899BOLB   C4C21572  23.430   9.860  21.480
  899BOLB   C1D21573  23.820   9.480  20.460
  899BOLB   C2D21574  23.600   9.700  20.820
  899BOLB   C3D21575  23.630  10.110  20.990
  899BOLB   C4D21576  23.900  10.330  21.260
  900BOLB   NC121577  17.270  14.970  23.890
  900BOLB   PO121578  17.380  14.530  24.210
  900BOLB   GL121579  17.180  14.160  24.050
  900BOLB   GL221580  16.980  14.340  23.820
  900BOLB   C1A21581  17.000  13.840  23.820
  900BOLB   C2A21582  16.690  13.720  23.530
  900BOLB   C3A21583  16.710  13.600  23.130
  900BOLB   C4A21584  16.740  13.340  22.780
  900BOLB   C1B21585  16.830  14.150  23.370
  900BOLB   C2B21586  16.360  13.990  23.260
  900BOLB   C3B21587  15.980  14.040  22.840
  900BOLB   C4B21588  15.730  14.210  22.500
  900BOLB   NC221589  16.010  12.200  20.860
  900BOLB   PO221590  15.830  11.840  21.190
  900BOLB   GL321591  16.100  11.960  21.420
  900BOLB   GL421592  15.940  12.250  21.390
  900BOLB   C1C21593  16.240  12.060  21.800
  900BOLB   C2C21594  16.650  12.430  21.870
  900BOLB   C3C21595  16.650  12.820  22.040
  900BOLB   C4C21596  16.640  13.000  22.440
  900BOLB   C1D21597  15.760  12.700  21.520
  900BOLB   C2D21598  15.840  13.150  21.690
  900BOLB   C3D21599  15.940  13.570  21.950
  900BOLB   C4D21600  15.810  13.550  22.430
  901BOLB   NC121601  26.515  19.110  36.410
  901BOLB   PO121602  26.695  18.800  36.720
  901BOLB   GL121603  27.035  18.940  36.420
  901BOLB   GL221604  26.995  19.200  36.240
  901BOLB   C1A21605  27.525  19.280  36.460
  901BOLB   C2A21606  27.915  19.530  36.570
  901BOLB   C3A21607  28.255  19.840  36.610
  901BOLB   C4A21608  28.625  19.680  36.500
  901BOLB   C1B21609  27.225  19.600  36.240
  901BOLB   C2B21610  27.385  20.010  36.110
  901BOLB   C3B21611  27.365  20.430  35.990
  901BOLB   C4B21612  27.615  20.790  35.870
  901BOLB   NC221613  30.785  20.720  35.970
  901BOLB   PO221614  30.655  20.300  35.720
  901BOLB   GL321615  30.385  20.130  35.840
  901BOLB   GL421616  30.475  19.890  35.570
  901BOLB   C1C21617  29.965  20.110  35.980
  901BOLB   C2C21618  29.595  20.020  36.020
  901BOLB   C3C21619  29.365  20.080  36.330
  901BOLB   C4C21620  28.945  19.850  36.320
  901BOLB   C1D21621  30.165  19.870  35.220
  901BOLB   C2D21622  29.905  19.750  34.880
  901BOLB   C3D21623  29.805  19.330  34.710
  901BOLB   C4D21624  29.355  19.130  34.830
  902BOLB   NC121625  24.130  13.320  22.030
  902BOLB   PO121626  24.580  13.200  22.090
  902BOLB   GL121627  24.840  13.000  21.820
  902BOLB   GL221628  24.560  12.890  21.640
  902BOLB   C1A21629  25.240  13.010  21.420
  902BOLB   C2A21630  25.290  12.770  21.060
  902BOLB   C3A21631  25.510  12.650  20.720
  902BOLB   C4A21632  25.910  12.560  20.450
  902BOLB   C1B21633  24.770  13.100  21.220
  902BOLB   C2B21634  24.950  13.070  20.850
  902BOLB   C3B21635  25.020  12.990  20.500
  902BOLB   C4B21636  24.880  13.280  20.160
  902BOLB   NC221637  25.630  10.810  18.870
  902BOLB   PO221638  26.100  10.940  18.990
  902BOLB   GL321639  25.880  11.100  19.360
  902BOLB   GL421640  25.680  10.970  19.420
  902BOLB   C1C21641  25.910  11.430  19.670
  902BOLB   C2C21642  25.960  11.840  19.490
  902BOLB   C3C21643  26.270  12.280  19.650
  902BOLB   C4C21644  26.240  12.540  20.090
  902BOLB   C1D21645  25.660  10.990  19.920
  902BOLB   C2D21646  25.780  11.340  20.150
  902BOLB   C3D21647  25.770  11.810  20.110
  902BOLB   C4D21648  25.960  12.100  20.000
  903BOLB   NC121649  25.570  11.090  40.230
  903BOLB   PO121650  25.780  11.470  40.410
  903BOLB   GL121651  25.580  11.170  40.670
  903BOLB   GL221652  25.900  11.040  40.630
  903BOLB   C1A21653  25.540  10.940  41.040
  903BOLB   C2A21654  25.430  10.650  41.390
  903BOLB   C3A21655  25.640  10.510  41.760
  903BOLB   C4A21656  25.600  10.060  41.910
  903BOLB   C1B21657  26.030  10.980  40.990
  903BOLB   C2B21658  26.420  10.960  41.270
  903BOLB   C3B21659  26.915  10.660  41.220
  903BOLB   C4B21660  27.245  10.380  41.190
  903BOLB   NC221661  25.600   8.680  44.430
  903BOLB   PO221662  25.800   9.110  44.280
  903BOLB   GL321663  25.910   9.090  43.810
  903BOLB   GL421664  26.250   8.950  43.760
  903BOLB   C1C21665  25.870   9.360  43.470
  903BOLB   C2C21666  25.920   9.610  43.050
  903BOLB   C3C21667  25.850   9.700  42.580
  903BOLB   C4C21668  25.690   9.650  42.200
  903BOLB   C1D21669  26.260   9.040  43.260
  903BOLB   C2D21670  26.240   9.180  42.870
  903BOLB   C3D21671  26.495   9.360  42.620
  903BOLB   C4D21672  26.835   9.600  42.540
  904BOLB   NC121673  16.510  18.150  40.030
  904BOLB   PO121674  16.220  18.210  40.410
  904BOLB   GL121675  15.840  18.320  40.300
  904BOLB   GL221676  15.690  18.240  40.080
  904BOLB   C1A21677  15.530  18.440  40.510
  904BOLB   C2A21678  15.120  18.460  40.720
  904BOLB   C3A21679  14.870  18.250  41.000
  904BOLB   C4A21680  14.460  18.100  41.130
  904BOLB   C1B21681  15.170  18.170  40.250
  904BOLB   C2B21682  14.790  18.250  40.390
  904BOLB   C3B21683  14.510  18.480  40.730
  904BOLB   C4B21684  14.310  18.600  41.000
  904BOLB   NC221685  12.010  17.400  41.380
  904BOLB   PO221686  12.230  17.590  41.770
  904BOLB   GL321687  12.500  17.590  41.490
  904BOLB   GL421688  12.410  17.850  41.340
  904BOLB   C1C21689  13.000  17.520  41.330
  904BOLB   C2C21690  13.350  17.370  41.210
  904BOLB   C3C21691  13.750  17.460  40.940
  904BOLB   C4C21692  14.190  17.680  40.910
  904BOLB   C1D21693  12.840  17.960  41.210
  904BOLB   C2D21694  13.120  18.180  40.940
  904BOLB   C3D21695  13.420  18.370  40.720
  904BOLB   C4D21696  13.880  18.370  40.690
  905BOLB   NC121697  11.100  13.980  35.480
  905BOLB   PO121698  11.090  14.020  35.100
  905BOLB   GL121699  11.340  13.930  34.770
  905BOLB   GL221700  11.620  13.650  34.810
  905BOLB   C1A21701  11.730  14.200  34.590
  905BOLB   C2A21702  12.010  14.360  34.780
  905BOLB   C3A21703  12.440  14.450  34.700
  905BOLB   C4A21704  12.830  14.450  34.430
  905BOLB   C1B21705  12.010  13.750  34.940
  905BOLB   C2B21706  12.420  13.970  34.920
  905BOLB   C3B21707  12.790  14.040  34.690
  905BOLB   C4B21708  13.210  14.170  34.670
  905BOLB   NC221709  15.050  15.840  33.330
  905BOLB   PO221710  14.710  15.520  33.510
  905BOLB   GL321711  14.600  15.040  33.580
  905BOLB   GL421712  14.610  14.660  33.440
  905BOLB   C1C21713  14.270  14.780  33.750
  905BOLB   C2C21714  13.790  14.760  33.770
  905BOLB   C3C21715  13.400  14.570  33.690
  905BOLB   C4C21716  12.980  14.490  33.900
  905BOLB   C1D21717  14.450  14.230  33.310
  905BOLB   C2D21718  14.410  13.770  33.300
  905BOLB   C3D21719  14.090  13.510  33.090
  905BOLB   C4D21720  13.720  13.270  33.110
  906BOLB   NC121721  27.915  10.930  38.610
  906BOLB   PO121722  27.855  10.780  39.070
  906BOLB   GL121723  28.245  10.780  39.270
  906BOLB   GL221724  28.485  10.960  39.160
  906BOLB   C1A21725  28.575  10.490  39.020
  906BOLB   C2A21726  28.685  10.050  39.180
  906BOLB   C3A21727  28.925   9.850  39.500
  906BOLB   C4A21728  29.135   9.940  39.870
  906BOLB   C1B21729  28.625  10.660  39.600
  906BOLB   C2B21730  28.795  10.540  40.010
  906BOLB   C3B21731  28.705  10.150  40.270
  906BOLB   C4B21732  28.205  10.160  40.470
  906BOLB   NC221733  30.455   8.830  41.670
  906BOLB   PO221734  30.415   9.100  41.470
  906BOLB   GL321735  30.245   9.420  41.240
  906BOLB   GL421736  29.955   9.340  41.330
  906BOLB   C1C21737  30.185   9.900  41.050
  906BOLB   C2C21738  29.795  10.150  40.850
  906BOLB   C3C21739  29.575  10.180  40.540
  906BOLB   C4C21740  29.215  10.140  40.250
  906BOLB   C1D21741  29.525   9.250  41.090
  906BOLB   C2D21742  29.265   9.200  40.840
  906BOLB   C3D21743  28.885   9.480  40.790
  906BOLB   C4D21744  28.515   9.810  40.830
  907BOLB   NC121745  14.790  16.070  35.240
  907BOLB   PO121746  14.730  16.210  35.720
  907BOLB   GL121747  14.390  15.890  35.760
  907BOLB   GL221748  14.180  16.150  35.990
  907BOLB   C1A21749  13.960  15.780  35.710
  907BOLB   C2A21750  13.630  15.580  35.500
  907BOLB   C3A21751  13.280  15.440  35.360
  907BOLB   C4A21752  12.880  15.410  35.310
  907BOLB   C1B21753  13.820  16.040  36.220
  907BOLB   C2B21754  13.480  16.000  36.320
  907BOLB   C3B21755  13.200  15.760  36.340
  907BOLB   C4B21756  12.870  15.880  36.240
  907BOLB   NC221757  10.430  14.400  34.980
  907BOLB   PO221758  10.820  14.440  34.910
  907BOLB   GL321759  11.230  14.620  34.960
  907BOLB   GL421760  11.370  14.390  34.890
  907BOLB   C1C21761  11.660  14.790  34.880
  907BOLB   C2C21762  12.040  14.730  35.150
  907BOLB   C3C21763  12.240  15.000  35.500
  907BOLB   C4C21764  12.540  15.200  35.570
  907BOLB   C1D21765  11.640  14.250  35.100
  907BOLB   C2D21766  12.060  14.160  35.280
  907BOLB   C3D21767  12.430  14.390  35.180
  907BOLB   C4D21768  12.890  14.440  35.060
  908BOLB   NC121769  26.150   8.180  36.350
  908BOLB   PO121770  26.210   8.340  36.780
  908BOLB   GL121771  25.930   7.950  36.810
  908BOLB   GL221772  26.040   7.750  36.600
  908BOLB   C1A21773  25.820   7.550  36.990
  908BOLB   C2A21774  26.040   7.220  37.290
  908BOLB   C3A21775  26.260   6.850  37.460
  908BOLB   C4A21776  26.200   6.500  37.660
  908BOLB   C1B21777  26.080   7.240  36.720
  908BOLB   C2B21778  26.000   6.830  36.940
  908BOLB   C3B21779  25.790   6.650  37.320
  908BOLB   C4B21780  25.580   6.940  37.540
  908BOLB   NC221781  27.585   4.570  38.760
  908BOLB   PO221782  27.845   4.950  38.910
  908BOLB   GL321783  27.645   5.290  38.570
  908BOLB   GL421784  27.695   5.690  38.650
  908BOLB   C1C21785  27.385   5.560  38.330
  908BOLB   C2C21786  27.145   5.980  38.380
  908BOLB   C3C21787  26.775   6.240  38.380
  908BOLB   C4C21788  26.645   6.330  37.940
  908BOLB   C1D21789  27.895   6.160  38.750
  908BOLB   C2D21790  28.195   6.470  38.780
  908BOLB   C3D21791  28.145   6.870  38.620
  908BOLB   C4D21792  28.225   7.310  38.750
  909BOLB   NC121793  18.980  15.700  22.260
  909BOLB   PO121794  18.600  15.790  22.220
  909BOLB   GL121795  18.600  15.390  22.030
  909BOLB   GL221796  18.800  15.220  21.890
  909BOLB   C1A21797  18.340  15.280  21.680
  909BOLB   C2A21798  18.120  15.300  21.350
  909BOLB   C3A21799  17.700  15.320  21.210
  909BOLB   C4A21800  17.360  15.240  20.910
  909BOLB   C1B21801  18.610  14.890  21.770
  909BOLB   C2B21802  18.340  14.790  21.410
  909BOLB   C3B21803  17.960  14.840  21.200
  909BOLB   C4B21804  17.580  14.870  21.210
  909BOLB   NC221805  15.270  14.490  19.550
  909BOLB   PO221806  15.710  14.540  19.670
  909BOLB   GL321807  16.130  14.630  19.870
  909BOLB   GL421808  16.240  14.370  19.970
  909BOLB   C1C21809  16.530  14.830  20.010
  909BOLB   C2C21810  16.910  14.880  19.930
  909BOLB   C3C21811  17.160  15.150  20.130
  909BOLB   C4C21812  17.320  15.280  20.550
  909BOLB   C1D21813  16.200  14.540  20.360
  909BOLB   C2D21814  16.290  14.730  20.690
  909BOLB   C3D21815  16.190  14.710  21.150
  909BOLB   C4D21816  16.160  14.420  21.530
  910BOLB   NC121817  28.935  10.550  37.370
  910BOLB   PO121818  28.875  10.820  37.750
  910BOLB   GL121819  29.295  10.860  37.460
  910BOLB   GL221820  29.545  10.550  37.580
  910BOLB   C1A21821  29.705  11.130  37.550
  910BOLB   C2A21822  30.085  11.120  37.670
  910BOLB   C3A21823  30.395  11.520  37.730
  910BOLB   C4A21824  30.445  11.880  37.780
  910BOLB   C1B21825  29.825  10.830  37.950
  910BOLB   C2B21826  30.215  10.800  38.250
  910BOLB   C3B21827  30.365  11.040  38.590
  910BOLB   C4B21828  30.765  11.240  38.730
  910BOLB   NC221829  32.855  11.260  39.020
  910BOLB   PO221830  32.805  11.460  38.670
  910BOLB   GL321831  32.305  11.620  38.620
  910BOLB   GL421832  32.025  11.600  38.860
  910BOLB   C1C21833  31.945  11.840  38.380
  910BOLB   C2C21834  31.605  12.020  38.380
  910BOLB   C3C21835  31.235  12.110  38.140
  910BOLB   C4C21836  30.815  12.020  38.000
  910BOLB   C1D21837  31.715  11.740  38.920
  910BOLB   C2D21838  31.385  11.700  38.700
  910BOLB   C3D21839  31.035  11.620  38.520
  910BOLB   C4D21840  31.225  11.240  38.520
  911BOLB   NC121841  29.145  13.030  29.180
  911BOLB   PO121842  29.065  13.020  28.740
  911BOLB   GL121843  29.365  13.370  28.890
  911BOLB   GL221844  29.575  13.520  28.660
  911BOLB   C1A21845  29.795  13.250  29.070
  911BOLB   C2A21846  30.225  13.380  29.280
  911BOLB   C3A21847  30.725  13.260  29.120
  911BOLB   C4A21848  31.075  13.310  29.360
  911BOLB   C1B21849  29.855  13.190  28.470
  911BOLB   C2B21850  30.205  13.060  28.400
  911BOLB   C3B21851  30.575  13.200  28.190
  911BOLB   C4B21852  30.955  13.510  28.030
  911BOLB   NC221853  32.945  14.610  29.610
  911BOLB   PO221854  33.095  14.480  30.020
  911BOLB   GL321855  32.895  14.050  29.930
  911BOLB   GL421856  33.025  13.830  30.030
  911BOLB   C1C21857  32.505  13.860  29.800
  911BOLB   C2C21858  32.305  13.630  29.510
  911BOLB   C3C21859  31.795  13.620  29.480
  911BOLB   C4C21860  31.385  13.640  29.420
  911BOLB   C1D21861  32.685  13.820  30.350
  911BOLB   C2D21862  32.365  13.670  30.460
  911BOLB   C3D21863  32.255  13.400  30.970
  911BOLB   C4D21864  32.185  13.390  31.430
  912BOLB   NC121865  24.650  18.560  23.720
  912BOLB   PO121866  24.570  18.320  23.380
  912BOLB   GL121867  24.910  18.510  23.270
  912BOLB   GL221868  25.100  18.630  23.470
  912BOLB   C1A21869  24.930  18.820  22.930
  912BOLB   C2A21870  24.990  19.220  22.760
  912BOLB   C3A21871  24.900  19.410  22.390
  912BOLB   C4A21872  24.810  19.750  22.150
  912BOLB   C1B21873  25.220  19.050  23.310
  912BOLB   C2B21874  25.480  19.420  23.110
  912BOLB   C3B21875  25.630  19.780  23.170
  912BOLB   C4B21876  25.690  20.240  23.060
  912BOLB   NC221877  26.945  20.950  21.680
  912BOLB   PO221878  26.705  21.030  21.360
  912BOLB   GL321879  26.475  20.710  21.430
  912BOLB   GL421880  26.545  20.600  21.750
  912BOLB   C1C21881  26.110  20.430  21.400
  912BOLB   C2C21882  25.750  20.390  21.520
  912BOLB   C3C21883  25.380  20.450  21.780
  912BOLB   C4C21884  25.040  20.200  22.030
  912BOLB   C1D21885  26.330  20.300  21.860
  912BOLB   C2D21886  26.030  20.050  21.800
  912BOLB   C3D21887  25.830  19.730  22.090
  912BOLB   C4D21888  25.550  19.430  22.360
  913BOLB   NC121889  15.160  20.570  37.650
  913BOLB   PO121890  14.890  20.210  37.790
  913BOLB   GL121891  14.590  20.340  38.040
  913BOLB   GL221892  14.550  20.320  38.390
  913BOLB   C1A21893  14.320  20.710  38.260
  913BOLB   C2A21894  13.890  20.820  38.420
  913BOLB   C3A21895  13.440  20.720  38.390
  913BOLB   C4A21896  13.060  20.660  38.390
  913BOLB   C1B21897  14.050  20.350  38.390
  913BOLB   C2B21898  13.720  20.180  38.500
  913BOLB   C3B21899  13.300  20.250  38.570
  913BOLB   C4B21900  13.000  20.300  38.790
  913BOLB   NC221901  10.460  20.760  38.230
  913BOLB   PO221902  10.530  20.340  38.380
  913BOLB   GL321903  10.890  20.550  38.390
  913BOLB   GL421904  10.970  20.730  38.190
  913BOLB   C1C21905  11.350  20.540  38.350
  913BOLB   C2C21906  11.740  20.460  38.490
  913BOLB   C3C21907  12.230  20.480  38.400
  913BOLB   C4C21908  12.610  20.580  38.550
  913BOLB   C1D21909  11.070  20.360  37.950
  913BOLB   C2D21910  11.260  20.340  37.520
  913BOLB   C3D21911  11.710  20.400  37.370
  913BOLB   C4D21912  12.050  20.680  37.260
  914BOLB   NC121913  18.480  11.170  29.710
  914BOLB   PO121914  18.170  11.200  29.500
  914BOLB   GL121915  17.770  11.220  29.690
  914BOLB   GL221916  17.360  11.190  29.660
  914BOLB   C1A21917  17.650  11.060  30.090
  914BOLB   C2A21918  17.360  10.800  30.200
  914BOLB   C3A21919  17.110  10.670  29.930
  914BOLB   C4A21920  16.790  10.420  29.860
  914BOLB   C1B21921  17.320  10.920  29.400
  914BOLB   C2B21922  17.150  10.540  29.430
  914BOLB   C3B21923  16.960  10.140  29.390
  914BOLB   C4B21924  16.980   9.720  29.100
  914BOLB   NC221925  14.460   8.910  29.850
  914BOLB   PO221926  14.900   8.780  29.930
  914BOLB   GL321927  15.390   8.830  29.980
  914BOLB   GL421928  15.680   8.530  29.970
  914BOLB   C1C21929  15.610   9.130  30.040
  914BOLB   C2C21930  15.890   9.580  29.950
  914BOLB   C3C21931  16.390   9.810  29.940
  914BOLB   C4C21932  16.790  10.070  29.840
  914BOLB   C1D21933  16.070   8.800  30.070
  914BOLB   C2D21934  16.530   8.820  30.120
  914BOLB   C3D21935  16.830   9.110  30.370
  914BOLB   C4D21936  16.940   9.500  30.600
  915BOLB   NC121937  14.280  23.350  31.150
  915BOLB   PO121938  14.600  23.490  30.760
  915BOLB   GL121939  14.190  23.700  30.780
  915BOLB   GL221940  13.920  23.540  30.690
  915BOLB   C1A21941  14.000  24.000  31.070
  915BOLB   C2A21942  13.790  24.320  31.310
  915BOLB   C3A21943  13.670  24.690  31.380
  915BOLB   C4A21944  13.380  25.020  31.200
  915BOLB   C1B21945  13.630  23.860  30.760
  915BOLB   C2B21946  13.180  23.860  30.950
  915BOLB   C3B21947  12.780  23.850  30.930
  915BOLB   C4B21948  12.320  23.960  30.740
  915BOLB   NC221949  10.790   0.100  31.680
  915BOLB   PO221950  11.150  26.240  32.000
  915BOLB   GL321951  11.530  25.870  31.860
  915BOLB   GL421952  11.520  25.500  32.030
  915BOLB   C1C21953  11.860  25.690  31.730
  915BOLB   C2C21954  12.240  25.720  31.520
  915BOLB   C3C21955  12.530  25.350  31.480
  915BOLB   C4C21956  12.920  25.170  31.260
  915BOLB   C1D21957  11.850  25.650  32.190
  915BOLB   C2D21958  12.210  25.530  32.580
  915BOLB   C3D21959  12.570  25.660  32.900
  915BOLB   C4D21960  12.970  25.730  32.930
  916BOLB   NC121961  19.150  22.890  39.510
  916BOLB   PO121962  18.840  22.620  39.610
  916BOLB   GL121963  18.810  22.860  39.930
  916BOLB   GL221964  18.890  22.600  40.250
  916BOLB   C1A21965  18.850  23.190  40.220
  916BOLB   C2A21966  18.520  23.430  40.410
  916BOLB   C3A21967  18.290  23.650  40.370
  916BOLB   C4A21968  18.200  23.750  40.820
  916BOLB   C1B21969  18.850  22.870  40.660
  916BOLB   C2B21970  18.990  23.370  40.680
  916BOLB   C3B21971  19.110  23.710  41.080
  916BOLB   C4B21972  19.020  23.870  41.450
  916BOLB   NC221973  17.880  25.270  42.740
  916BOLB   PO221974  17.710  24.900  42.930
  916BOLB   GL321975  17.820  24.710  42.580
  916BOLB   GL421976  17.760  24.350  42.770
  916BOLB   C1C21977  17.900  24.650  42.070
  916BOLB   C2C21978  18.110  24.320  41.900
  916BOLB   C3C21979  18.090  24.060  41.680
  916BOLB   C4C21980  18.130  24.070  41.190
  916BOLB   C1D21981  17.960  24.160  42.370
  916BOLB   C2D21982  18.110  23.850  42.190
  916BOLB   C3D21983  18.230  23.410  42.000
  916BOLB   C4D21984  18.070  22.950  42.110
  917BOLB   NC121985  18.580  13.330  39.130
  917BOLB   PO121986  18.220  13.030  39.260
  917BOLB   GL121987  17.910  12.750  39.470
  917BOLB   GL221988  17.640  12.570  39.370
  917BOLB   C1A21989  17.720  12.740  39.890
  917BOLB   C2A21990  17.340  12.560  40.160
  917BOLB   C3A21991  17.260  12.280  40.390
  917BOLB   C4A21992  17.050  12.300  40.770
  917BOLB   C1B21993  17.590  12.340  39.620
  917BOLB   C2B21994  17.330  12.010  39.920
  917BOLB   C3B21995  17.390  11.580  40.170
  917BOLB   C4B21996  17.430  11.440  40.550
  917BOLB   NC221997  15.250  11.280  42.140
  917BOLB   PO221998  15.430  11.010  42.030
  917BOLB   GL321999  15.860  11.230  42.060
  917BOLB   GL422000  15.800  11.460  42.160
  917BOLB   C1C22001  16.240  11.490  42.040
  917BOLB   C2C22002  16.390  11.740  41.660
  917BOLB   C3C22003  16.490  11.900  41.290
  917BOLB   C4C22004  16.830  12.000  40.960
  917BOLB   C1D22005  15.880  11.860  42.230
  917BOLB   C2D22006  16.070  12.080  41.920
  917BOLB   C3D22007  16.050  12.160  41.520
  917BOLB   C4D22008  15.990  11.930  41.320
  918BOLB   NC122009  33.365  15.580  32.100
  918BOLB   PO122010  33.195  15.920  32.280
  918BOLB   GL122011  32.855  15.780  32.630
  918BOLB   GL222012  32.685  15.950  32.400
  918BOLB   C1A22013  32.555  15.520  32.730
  918BOLB   C2A22014  32.125  15.400  32.870
  918BOLB   C3A22015  31.795  15.150  32.760
  918BOLB   C4A22016  31.475  14.960  33.060
  918BOLB   C1B22017  32.285  16.090  32.380
  918BOLB   C2B22018  32.015  16.330  32.610
  918BOLB   C3B22019  32.095  16.680  32.940
  918BOLB   C4B22020  31.855  16.710  33.260
  918BOLB   NC222021  33.505  14.300  33.160
  918BOLB   PO222022  33.405  14.510  33.480
  918BOLB   GL322023  32.985  14.590  33.520
  918BOLB   GL422024  32.745  14.560  33.290
  918BOLB   C1C22025  32.505  14.640  33.770
  918BOLB   C2C22026  32.035  14.560  33.850
  918BOLB   C3C22027  31.715  14.510  33.550
  918BOLB   C4C22028  31.445  14.790  33.410
  918BOLB   C1D22029  32.275  14.370  33.180
  918BOLB   C2D22030  32.285  14.020  32.900
  918BOLB   C3D22031  32.235  13.460  32.760
  918BOLB   C4D22032  31.935  13.130  32.820
  919BOLB   NC122033  21.830   1.880  33.210
  919BOLB   PO122034  21.510   1.830  33.010
  919BOLB   GL122035  21.600   1.370  33.170
  919BOLB   GL222036  21.300   1.290  33.070
  919BOLB   C1A22037  21.700   0.970  33.330
  919BOLB   C2A22038  21.490   0.690  33.510
  919BOLB   C3A22039  21.050   0.560  33.620
  919BOLB   C4A22040  20.670   0.510  33.440
  919BOLB   C1B22041  21.210   1.140  33.490
  919BOLB   C2B22042  21.250   0.950  33.890
  919BOLB   C3B22043  21.260   1.000  34.300
  919BOLB   C4B22044  21.290   1.170  34.740
  919BOLB   NC222045  20.090   2.350  31.240
  919BOLB   PO222046  19.810   2.200  31.510
  919BOLB   GL322047  19.830   1.940  31.850
  919BOLB   GL422048  19.550   1.770  32.010
  919BOLB   C1C22049  19.850   1.490  32.260
  919BOLB   C2C22050  19.980   1.260  32.560
  919BOLB   C3C22051  20.080   1.090  32.950
  919BOLB   C4C22052  20.320   0.700  33.180
  919BOLB   C1D22053  19.680   1.430  31.780
  919BOLB   C2D22054  19.730   1.040  31.510
  919BOLB   C3D22055  19.690   0.580  31.410
  919BOLB   C4D22056  19.770   0.230  31.650
  920BOLB   NC122057  15.460  14.320  36.870
  920BOLB   PO122058  15.250  14.610  36.600
  920BOLB   GL122059  14.890  14.300  36.660
  920BOLB   GL222060  14.760  14.360  36.460
  920BOLB   C1A22061  14.670  13.900  36.770
  920BOLB   C2A22062  14.500  13.800  37.180
  920BOLB   C3A22063  14.150  13.580  37.230
  920BOLB   C4A22064  14.200  13.220  37.090
  920BOLB   C1B22065  14.390  14.300  36.710
  920BOLB   C2B22066  14.070  14.070  36.880
  920BOLB   C3B22067  13.710  13.880  37.000
  920BOLB   C4B22068  13.330  13.750  37.170
  920BOLB   NC222069  12.250  11.170  37.490
  920BOLB   PO222070  12.560  11.520  37.650
  920BOLB   GL322071  12.890  11.720  37.750
  920BOLB   GL422072  12.880  12.020  37.590
  920BOLB   C1C22073  13.330  11.840  37.670
  920BOLB   C2C22074  13.580  12.220  37.650
  920BOLB   C3C22075  13.840  12.470  37.310
  920BOLB   C4C22076  14.140  12.780  37.240
  920BOLB   C1D22077  13.180  12.290  37.360
  920BOLB   C2D22078  13.490  12.010  37.160
  920BOLB   C3D22079  13.880  11.750  37.050
  920BOLB   C4D22080  14.080  11.470  36.760
  921BOLB   NC122081  24.800   7.820  26.950
  921BOLB   PO122082  25.010   8.000  27.020
  921BOLB   GL122083  25.410   7.940  26.720
  921BOLB   GL222084  25.430   8.150  26.430
  921BOLB   C1A22085  25.690   7.720  26.450
  921BOLB   C2A22086  25.580   7.500  26.110
  921BOLB   C3A22087  25.840   7.470  25.790
  921BOLB   C4A22088  26.120   7.280  25.540
  921BOLB   C1B22089  25.330   7.910  26.050
  921BOLB   C2B22090  25.220   7.490  25.780
  921BOLB   C3B22091  25.260   7.280  25.510
  921BOLB   C4B22092  25.310   7.230  25.000
  921BOLB   NC222093  25.660   4.940  24.370
  921BOLB   PO222094  26.130   5.090  24.350
  921BOLB   GL322095  26.290   5.360  24.770
  921BOLB   GL422096  26.160   5.400  25.090
  921BOLB   C1C22097  26.370   5.820  24.960
  921BOLB   C2C22098  26.525   6.230  25.020
  921BOLB   C3C22099  26.485   6.630  25.230
  921BOLB   C4C22100  26.440   7.100  25.320
  921BOLB   C1D22101  25.920   5.710  25.170
  921BOLB   C2D22102  25.580   5.930  25.290
  921BOLB   C3D22103  25.620   6.300  25.490
  921BOLB   C4D22104  25.700   6.570  25.900
  922BOLB   NC122105  12.620  15.790  21.620
  922BOLB   PO122106  12.750  16.090  21.840
  922BOLB   GL122107  12.810  16.380  22.050
  922BOLB   GL222108  12.590  16.330  22.280
  922BOLB   C1A22109  13.180  16.460  22.220
  922BOLB   C2A22110  13.480  16.730  22.250
  922BOLB   C3A22111  14.000  16.760  22.230
  922BOLB   C4A22112  14.260  16.980  22.020
  922BOLB   C1B22113  12.860  16.530  22.640
  922BOLB   C2B22114  13.270  16.610  22.750
  922BOLB   C3B22115  13.430  16.200  22.680
  922BOLB   C4B22116  13.580  15.940  22.950
  922BOLB   NC222117  13.110  16.780  19.500
  922BOLB   PO222118  13.510  16.750  19.770
  922BOLB   GL322119  13.620  16.870  20.200
  922BOLB   GL422120  13.370  17.080  20.350
  922BOLB   C1C22121  13.870  16.900  20.600
  922BOLB   C2C22122  14.360  16.980  20.700
  922BOLB   C3C22123  14.500  16.980  21.180
  922BOLB   C4C22124  14.520  17.120  21.600
  922BOLB   C1D22125  13.350  16.960  20.790
  922BOLB   C2D22126  13.690  16.750  21.060
  922BOLB   C3D22127  14.160  16.620  20.960
  922BOLB   C4D22128  14.160  16.480  20.560
  923BOLB   NC122129  28.915   9.240  34.550
  923BOLB   PO122130  28.965   9.040  34.210
  923BOLB   GL122131  29.285   8.870  34.290
  923BOLB   GL222132  29.445   9.050  34.360
  923BOLB   C1A22133  29.515   8.580  34.430
  923BOLB   C2A22134  29.765   8.190  34.780
  923BOLB   C3A22135  29.865   8.130  35.160
  923BOLB   C4A22136  29.855   8.020  35.640
  923BOLB   C1B22137  29.815   9.050  34.490
  923BOLB   C2B22138  30.315   9.020  34.560
  923BOLB   C3B22139  30.715   8.840  34.370
  923BOLB   C4B22140  31.165   8.660  34.390
  923BOLB   NC222141  31.155   6.080  36.960
  923BOLB   PO222142  31.085   6.510  36.760
  923BOLB   GL322143  30.875   6.790  36.610
  923BOLB   GL422144  30.945   7.210  36.460
  923BOLB   C1C22145  30.645   6.690  36.240
  923BOLB   C2C22146  30.445   6.920  35.790
  923BOLB   C3C22147  30.165   7.220  35.830
  923BOLB   C4C22148  30.175   7.720  35.890
  923BOLB   C1D22149  30.465   7.140  36.330
  923BOLB   C2D22150  30.005   7.010  36.320
  923BOLB   C3D22151  29.805   6.910  36.050
  923BOLB   C4D22152  29.485   7.010  35.790
  924BOLB   NC122153  26.360  15.600  40.760
  924BOLB   PO122154  26.835  15.500  40.730
  924BOLB   GL122155  27.215  15.590  40.980
  924BOLB   GL222156  27.255  15.700  41.350
  924BOLB   C1A22157  27.605  15.490  41.130
  924BOLB   C2A22158  28.075  15.500  41.310
  924BOLB   C3A22159  28.405  15.650  41.510
  924BOLB   C4A22160  28.735  15.990  41.460
  924BOLB   C1B22161  27.585  15.510  41.650
  924BOLB   C2B22162  27.725  15.510  42.040
  924BOLB   C3B22163  27.455  15.650  42.360
  924BOLB   C4B22164  27.095  15.780  42.420
  924BOLB   NC222165  31.085  16.890  42.220
  924BOLB   PO222166  30.875  16.710  41.890
  924BOLB   GL322167  30.485  16.540  41.710
  924BOLB   GL422168  30.365  16.840  41.810
  924BOLB   C1C22169  30.085  16.430  41.490
  924BOLB   C2C22170  29.685  16.270  41.320
  924BOLB   C3C22171  29.345  16.430  41.200
  924BOLB   C4C22172  28.955  16.140  41.150
  924BOLB   C1D22173  29.895  16.790  41.780
  924BOLB   C2D22174  29.545  16.670  41.650
  924BOLB   C3D22175  29.055  16.900  41.740
  924BOLB   C4D22176  28.705  16.920  41.690
  925BOLB   NC122177  23.100  21.670  30.060
  925BOLB   PO122178  22.910  22.090  30.240
  925BOLB   GL122179  23.390  22.130  30.160
  925BOLB   GL222180  23.680  21.840  30.190
  925BOLB   C1A22181  23.750  22.240  29.920
  925BOLB   C2A22182  24.080  22.370  29.600
  925BOLB   C3A22183  24.490  22.520  29.390
  925BOLB   C4A22184  24.580  22.900  29.170
  925BOLB   C1B22185  24.010  21.540  30.250
  925BOLB   C2B22186  24.210  21.290  30.510
  925BOLB   C3B22187  24.540  21.010  30.420
  925BOLB   C4B22188  24.880  20.830  30.450
  925BOLB   NC222189  25.600  24.760  29.470
  925BOLB   PO222190  25.360  25.100  29.560
  925BOLB   GL322191  25.070  24.800  29.510
  925BOLB   GL422192  24.800  24.810  29.340
  925BOLB   C1C22193  25.060  24.390  29.390
  925BOLB   C2C22194  25.130  23.890  29.450
  925BOLB   C3C22195  24.980  23.520  29.240
  925BOLB   C4C22196  24.830  23.120  29.250
  925BOLB   C1D22197  24.250  24.750  29.410
  925BOLB   C2D22198  23.810  24.540  29.620
  925BOLB   C3D22199  23.350  24.430  29.700
  925BOLB   C4D22200  22.970  24.290  29.610
  926BOLB   NC122201  19.850   5.090  29.250
  926BOLB   PO122202  19.380   5.070  29.210
  926BOLB   GL122203  19.320   5.470  29.090
  926BOLB   GL222204  19.230   5.800  29.240
  926BOLB   C1A22205  19.520   5.790  28.850
  926BOLB   C2A22206  19.570   6.230  28.890
  926BOLB   C3A22207  19.840   6.540  28.690
  926BOLB   C4A22208  20.040   6.880  28.570
  926BOLB   C1B22209  19.400   6.140  29.390
  926BOLB   C2B22210  19.550   6.720  29.190
  926BOLB   C3B22211  19.430   7.080  28.990
  926BOLB   C4B22212  19.120   7.350  29.230
  926BOLB   NC222213  21.670   8.980  28.730
  926BOLB   PO222214  21.210   9.170  28.920
  926BOLB   GL322215  20.970   8.850  29.030
  926BOLB   GL422216  20.730   8.890  29.200
  926BOLB   C1C22217  20.740   8.370  29.010
  926BOLB   C2C22218  20.740   7.870  29.020
  926BOLB   C3C22219  20.520   7.650  28.790
  926BOLB   C4C22220  20.280   7.250  28.700
  926BOLB   C1D22221  20.300   8.610  29.100
  926BOLB   C2D22222  20.210   8.160  29.020
  926BOLB   C3D22223  19.860   7.960  29.300
  926BOLB   C4D22224  19.560   7.630  29.100
  927BOLB   NC122225  32.555   8.710  28.250
  927BOLB   PO122226  32.355   8.350  28.040
  927BOLB   GL122227  32.045   8.340  28.360
  927BOLB   GL222228  32.035   8.780  28.540
  927BOLB   C1A22229  31.735   8.210  28.650
  927BOLB   C2A22230  31.445   8.210  28.600
  927BOLB   C3A22231  31.175   8.040  28.480
  927BOLB   C4A22232  30.985   8.000  28.020
  927BOLB   C1B22233  31.715   8.800  28.790
  927BOLB   C2B22234  31.315   8.780  28.970
  927BOLB   C3B22235  31.055   9.080  29.260
  927BOLB   C4B22236  30.725   9.480  29.200
  927BOLB   NC222237  32.675   9.040  26.630
  927BOLB   PO222238  32.745   9.100  27.100
  927BOLB   GL322239  32.255   9.160  27.130
  927BOLB   GL422240  32.095   9.120  27.500
  927BOLB   C1C22241  31.935   8.860  27.000
  927BOLB   C2C22242  31.665   8.540  27.190
  927BOLB   C3C22243  31.195   8.210  27.280
  927BOLB   C4C22244  31.065   8.130  27.670
  927BOLB   C1D22245  31.695   9.330  27.800
  927BOLB   C2D22246  31.505   9.480  28.140
  927BOLB   C3D22247  31.065   9.510  28.380
  927BOLB   C4D22248  30.705   9.620  28.680
  928BOLB   NC122249  17.540  21.590  22.730
  928BOLB   PO122250  17.680  21.760  23.060
  928BOLB   GL122251  17.580  22.100  22.810
  928BOLB   GL222252  17.770  22.420  22.830
  928BOLB   C1A22253  17.180  22.230  22.560
  928BOLB   C2A22254  17.080  22.250  22.180
  928BOLB   C3A22255  16.850  22.370  21.830
  928BOLB   C4A22256  16.550  22.490  21.460
  928BOLB   C1B22257  17.680  22.670  22.400
  928BOLB   C2B22258  17.890  22.660  21.880
  928BOLB   C3B22259  18.110  22.860  21.540
  928BOLB   C4B22260  18.090  22.970  21.140
  928BOLB   NC222261  16.310  23.290  19.120
  928BOLB   PO222262  16.710  22.980  19.170
  928BOLB   GL322263  16.800  23.000  19.590
  928BOLB   GL422264  16.790  22.700  19.580
  928BOLB   C1C22265  16.490  22.970  19.980
  928BOLB   C2C22266  16.290  22.780  20.290
  928BOLB   C3C22267  16.180  22.570  20.730
  928BOLB   C4C22268  16.250  22.600  21.150
  928BOLB   C1D22269  16.380  22.460  19.800
  928BOLB   C2D22270  16.290  22.300  20.230
  928BOLB   C3D22271  16.320  22.060  20.590
  928BOLB   C4D22272  16.320  22.080  21.010
  929BOLB   NC122273  27.935  16.490  39.010
  929BOLB   PO122274  27.775  16.970  39.150
  929BOLB   GL122275  27.985  17.300  39.000
  929BOLB   GL222276  28.075  17.280  38.700
  929BOLB   C1A22277  28.365  17.520  39.280
  929BOLB   C2A22278  28.785  17.410  39.270
  929BOLB   C3A22279  29.235  17.270  39.170
  929BOLB   C4A22280  29.535  17.290  39.350
  929BOLB   C1B22281  28.455  17.280  38.810
  929BOLB   C2B22282  28.855  17.410  38.810
  929BOLB   C3B22283  29.155  17.770  38.790
  929BOLB   C4B22284  29.195  18.240  38.670
  929BOLB   NC222285  31.205  19.170  39.090
  929BOLB   PO222286  31.135  18.920  39.400
  929BOLB   GL322287  30.855  18.780  39.160
  929BOLB   GL422288  30.695  19.050  39.050
  929BOLB   C1C22289  30.535  18.510  39.070
  929BOLB   C2C22290  30.225  18.180  39.020
  929BOLB   C3C22291  29.975  17.870  38.990
  929BOLB   C4C22292  29.885  17.520  39.280
  929BOLB   C1D22293  30.235  18.940  38.970
  929BOLB   C2D22294  29.945  18.990  38.670
  929BOLB   C3D22295  29.705  18.640  38.510
  929BOLB   C4D22296  29.775  18.320  38.350
  930BOLB   NC122297  14.140  23.930  41.700
  930BOLB   PO122298  13.990  23.580  41.420
  930BOLB   GL122299  13.870  23.290  41.060
  930BOLB   GL222300  13.640  23.190  41.110
  930BOLB   C1A22301  14.180  23.260  40.730
  930BOLB   C2A22302  14.310  22.850  40.580
  930BOLB   C3A22303  14.120  22.530  40.290
  930BOLB   C4A22304  14.000  22.430  39.910
  930BOLB   C1B22305  13.700  23.040  40.640
  930BOLB   C2B22306  13.840  23.070  40.290
  930BOLB   C3B22307  14.180  22.960  40.060
  930BOLB   C4B22308  14.350  22.830  39.640
  930BOLB   NC222309  11.690  22.410  39.590
  930BOLB   PO222310  11.920  22.420  39.990
  930BOLB   GL322311  12.250  22.440  39.710
  930BOLB   GL422312  12.190  22.780  39.700
  930BOLB   C1C22313  12.720  22.360  39.730
  930BOLB   C2C22314  13.030  22.290  39.400
  930BOLB   C3C22315  13.440  22.420  39.290
  930BOLB   C4C22316  13.740  22.600  39.640
  930BOLB   C1D22317  12.560  22.850  39.790
  930BOLB   C2D22318  13.020  22.740  39.570
  930BOLB   C3D22319  13.390  22.940  39.480
  930BOLB   C4D22320  13.460  23.380  39.570
  931BOLB   NC122321  26.565  18.790  34.580
  931BOLB   PO122322  26.280  18.950  34.470
  931BOLB   GL122323  26.410  19.150  34.160
  931BOLB   GL222324  26.625  18.910  34.110
  931BOLB   C1A22325  26.350  19.390  33.930
  931BOLB   C2A22326  26.200  19.900  33.850
  931BOLB   C3A22327  26.260  20.180  34.180
  931BOLB   C4A22328  26.645  20.420  34.150
  931BOLB   C1B22329  26.835  19.240  33.930
  931BOLB   C2B22330  26.895  19.660  33.840
  931BOLB   C3B22331  26.965  19.760  33.360
  931BOLB   C4B22332  26.955  20.100  33.120
  931BOLB   NC222333  26.090  19.880  36.380
  931BOLB   PO222334  25.900  19.820  35.970
  931BOLB   GL322335  26.140  20.010  35.560
  931BOLB   GL422336  26.250  20.310  35.370
  931BOLB   C1C22337  26.625  19.950  35.430
  931BOLB   C2C22338  26.885  20.160  35.070
  931BOLB   C3C22339  26.865  20.560  34.930
  931BOLB   C4C22340  26.905  20.500  34.490
  931BOLB   C1D22341  26.665  20.490  35.410
  931BOLB   C2D22342  26.825  20.870  35.330
  931BOLB   C3D22343  26.925  21.280  35.340
  931BOLB   C4D22344  26.895  21.740  35.290
  932BOLB   NC122345  23.520   9.420  39.160
  932BOLB   PO122346  23.810   9.580  39.470
  932BOLB   GL122347  24.130   9.510  39.820
  932BOLB   GL222348  23.780   9.420  40.030
  932BOLB   C1A22349  24.260   9.190  40.080
  932BOLB   C2A22350  24.400   8.750  40.050
  932BOLB   C3A22351  24.450   8.360  40.130
  932BOLB   C4A22352  24.470   7.930  40.210
  932BOLB   C1B22353  23.790   9.020  39.980
  932BOLB   C2B22354  23.600   8.610  39.970
  932BOLB   C3B22355  23.470   8.180  40.080
  932BOLB   C4B22356  23.430   7.870  40.380
  932BOLB   NC222357  25.280   6.630  41.790
  932BOLB   PO222358  24.880   6.640  41.600
  932BOLB   GL322359  25.010   7.060  41.660
  932BOLB   GL422360  25.350   7.150  41.770
  932BOLB   C1C22361  24.610   7.210  41.560
  932BOLB   C2C22362  24.270   7.210  41.230
  932BOLB   C3C22363  24.210   7.360  40.820
  932BOLB   C4C22364  24.440   7.570  40.460
  932BOLB   C1D22365  25.430   7.530  41.560
  932BOLB   C2D22366  25.490   7.880  41.280
  932BOLB   C3D22367  25.360   8.320  41.200
  932BOLB   C4D22368  25.280   8.710  41.220
  933BOLB   NC122369  18.530  16.230  41.220
  933BOLB   PO122370  18.320  15.830  41.460
  933BOLB   GL122371  18.220  15.690  41.870
  933BOLB   GL222372  17.970  15.430  41.830
  933BOLB   C1A22373  18.080  15.550  42.300
  933BOLB   C2A22374  17.800  15.400  42.570
  933BOLB   C3A22375  17.500  15.440  42.750
  933BOLB   C4A22376  17.300  15.430  43.120
  933BOLB   C1B22377  17.690  15.680  42.080
  933BOLB   C2B22378  17.330  15.760  42.350
  933BOLB   C3B22379  17.080  15.630  42.650
  933BOLB   C4B22380  16.880  15.780  43.040
  933BOLB   NC222381  16.390  14.550  45.300
  933BOLB   PO222382  16.020  14.540  44.940
  933BOLB   GL322383  16.300  14.510  44.620
  933BOLB   GL422384  16.030  14.480  44.430
  933BOLB   C1C22385  16.560  14.780  44.250
  933BOLB   C2C22386  16.690  15.170  44.060
  933BOLB   C3C22387  16.880  15.530  43.770
  933BOLB   C4C22388  17.020  15.530  43.490
  933BOLB   C1D22389  16.110  14.820  44.070
  933BOLB   C2D22390  16.410  14.800  43.800
  933BOLB   C3D22391  16.620  14.890  43.440
  933BOLB   C4D22392  16.860  15.210  43.120
  934BOLB   NC122393  23.140  22.540  36.390
  934BOLB   PO122394  23.450  22.410  36.040
  934BOLB   GL122395  23.740  22.610  35.720
  934BOLB   GL222396  23.950  22.610  36.010
  934BOLB   C1A22397  23.730  23.040  35.700
  934BOLB   C2A22398  23.940  23.380  35.520
  934BOLB   C3A22399  24.280  23.650  35.290
  934BOLB   C4A22400  24.520  24.040  35.060
  934BOLB   C1B22401  24.380  22.740  36.190
  934BOLB   C2B22402  24.650  23.090  36.360
  934BOLB   C3B22403  25.130  23.300  36.430
  934BOLB   C4B22404  25.400  23.620  36.260
  934BOLB   NC222405  26.080  25.360  34.090
  934BOLB   PO222406  25.800  25.300  33.740
  934BOLB   GL322407  25.620  25.020  33.810
  934BOLB   GL422408  25.910  24.810  34.020
  934BOLB   C1C22409  25.310  24.720  33.940
  934BOLB   C2C22410  25.270  24.370  34.190
  934BOLB   C3C22411  25.120  24.130  34.410
  934BOLB   C4C22412  24.660  24.240  34.600
  934BOLB   C1D22413  25.800  24.370  34.170
  934BOLB   C2D22414  25.570  23.990  34.120
  934BOLB   C3D22415  25.220  23.610  34.100
  934BOLB   C4D22416  24.880  23.380  33.850
  935BOLB   NC122417  21.460  23.090  27.930
  935BOLB   PO122418  21.850  23.350  27.920
  935BOLB   GL122419  21.950  23.590  27.560
  935BOLB   GL222420  22.120  23.530  27.300
  935BOLB   C1A22421  21.770  24.000  27.470
  935BOLB   C2A22422  22.030  24.330  27.380
  935BOLB   C3A22423  22.030  24.800  27.550
  935BOLB   C4A22424  21.720  25.180  27.430
  935BOLB   C1B22425  22.250  23.930  27.170
  935BOLB   C2B22426  22.510  24.240  27.130
  935BOLB   C3B22427  22.930  24.270  27.000
  935BOLB   C4B22428  23.190  24.390  26.730
  935BOLB   NC222429  22.150   1.180  26.970
  935BOLB   PO222430  22.360   0.940  27.260
  935BOLB   GL322431  22.310   0.600  27.580
  935BOLB   GL422432  22.590   0.500  27.620
  935BOLB   C1C22433  22.140   0.270  27.740
  935BOLB   C2C22434  21.940  26.250  27.950
  935BOLB   C3C22435  21.820  25.770  27.950
  935BOLB   C4C22436  21.660  25.490  27.800
  935BOLB   C1D22437  22.560   0.110  27.460
  935BOLB   C2D22438  22.780  26.240  27.520
  935BOLB   C3D22439  23.200  26.110  27.550
  935BOLB   C4D22440  23.180  25.600  27.750
  936BOLB   NC122441  14.810  15.310  34.090
  936BOLB   PO122442  14.960  14.880  34.100
  936BOLB   GL122443  14.720  14.520  34.090
  936BOLB   GL222444  14.600  14.370  33.810
  936BOLB   C1A22445  14.290  14.290  34.250
  936BOLB   C2A22446  14.020  14.470  34.100
  936BOLB   C3A22447  13.620  14.530  34.190
  936BOLB   C4A22448  13.350  14.880  34.130
  936BOLB   C1B22449  14.240  14.230  33.730
  936BOLB   C2B22450  13.830  14.130  33.700
  936BOLB   C3B22451  13.680  13.760  33.470
  936BOLB   C4B22452  13.300  13.680  33.320
  936BOLB   NC222453  14.410  17.120  33.340
  936BOLB   PO222454  13.970  16.960  33.480
  936BOLB   GL322455  13.900  16.550  33.630
  936BOLB   GL422456  14.040  16.270  33.460
  936BOLB   C1C22457  13.660  16.390  33.860
  936BOLB   C2C22458  13.290  16.110  33.790
  936BOLB   C3C22459  13.220  15.730  33.840
  936BOLB   C4C22460  13.190  15.320  34.090
  936BOLB   C1D22461  13.650  16.230  33.340
  936BOLB   C2D22462  13.260  16.090  33.320
  936BOLB   C3D22463  12.830  15.940  33.500
  936BOLB   C4D22464  12.540  15.540  33.560
  937BOLB   NC122465  17.570  18.690  41.400
  937BOLB   PO122466  17.460  19.000  41.230
  937BOLB   GL122467  17.110  19.000  41.330
  937BOLB   GL222468  16.830  19.150  41.160
  937BOLB   C1A22469  16.880  18.980  41.710
  937BOLB   C2A22470  16.530  19.150  41.910
  937BOLB   C3A22471  16.120  19.300  42.090
  937BOLB   C4A22472  15.840  19.330  42.420
  937BOLB   C1B22473  16.450  19.310  41.340
  937BOLB   C2B22474  16.040  19.240  41.390
  937BOLB   C3B22475  15.640  19.310  41.410
  937BOLB   C4B22476  15.330  19.510  41.560
  937BOLB   NC222477  13.440  20.120  43.780
  937BOLB   PO222478  13.600  19.720  43.680
  937BOLB   GL322479  14.000  19.610  43.450
  937BOLB   GL422480  13.750  19.400  43.270
  937BOLB   C1C22481  14.460  19.800  43.330
  937BOLB   C2C22482  14.890  19.680  43.230
  937BOLB   C3C22483  15.210  19.550  43.010
  937BOLB   C4C22484  15.560  19.600  42.730
  937BOLB   C1D22485  14.080  19.530  42.910
  937BOLB   C2D22486  14.590  19.570  42.900
  937BOLB   C3D22487  14.760  19.910  42.730
  937BOLB   C4D22488  14.820  20.380  42.770
  938BOLB   NC122489  15.430  19.440  23.440
  938BOLB   PO122490  15.690  19.650  23.140
  938BOLB   GL122491  15.290  19.830  22.880
  938BOLB   GL222492  15.220  20.100  23.010
  938BOLB   C1A22493  14.870  19.650  22.740
  938BOLB   C2A22494  14.660  19.510  22.420
  938BOLB   C3A22495  14.740  19.500  21.940
  938BOLB   C4A22496  14.670  19.350  21.580
  938BOLB   C1B22497  14.760  20.150  22.840
  938BOLB   C2B22498  14.390  20.380  22.730
  938BOLB   C3B22499  14.200  20.840  22.630
  938BOLB   C4B22500  14.230  21.250  22.640
  938BOLB   NC222501  13.510  18.090  19.570
  938BOLB   PO222502  13.710  18.500  19.500
  938BOLB   GL322503  13.830  18.530  19.900
  938BOLB   GL422504  14.150  18.240  19.920
  938BOLB   C1C22505  13.890  18.600  20.330
  938BOLB   C2C22506  14.080  18.910  20.610
  938BOLB   C3C22507  14.390  18.990  20.810
  938BOLB   C4C22508  14.710  19.100  21.180
  938BOLB   C1D22509  14.220  18.220  20.450
  938BOLB   C2D22510  14.290  18.480  20.700
  938BOLB   C3D22511  14.570  18.560  20.990
  938BOLB   C4D22512  14.940  18.620  21.160
  939BOLB   NC122513  14.480  18.050  28.320
  939BOLB   PO122514  14.360  17.780  28.020
  939BOLB   GL122515  13.880  17.520  28.030
  939BOLB   GL222516  13.540  17.620  28.030
  939BOLB   C1A22517  13.730  17.120  27.780
  939BOLB   C2A22518  13.500  16.730  27.650
  939BOLB   C3A22519  13.150  16.680  27.290
  939BOLB   C4A22520  12.850  16.740  27.010
  939BOLB   C1B22521  13.060  17.440  28.150
  939BOLB   C2B22522  12.700  17.170  27.990
  939BOLB   C3B22523  12.360  16.890  27.890
  939BOLB   C4B22524  12.070  16.610  27.590
  939BOLB   NC222525  14.940  17.060  27.110
  939BOLB   PO222526  14.930  16.610  26.940
  939BOLB   GL322527  14.630  16.340  26.950
  939BOLB   GL422528  14.470  16.040  26.710
  939BOLB   C1C22529  14.060  16.390  26.940
  939BOLB   C2C22530  13.610  16.340  26.800
  939BOLB   C3C22531  13.230  16.220  26.530
  939BOLB   C4C22532  12.870  16.330  26.710
  939BOLB   C1D22533  14.260  15.740  26.810
  939BOLB   C2D22534  13.960  15.400  26.610
  939BOLB   C3D22535  13.600  15.260  26.560
  939BOLB   C4D22536  13.220  14.890  26.550
  940BOLB   NC122537  25.920  23.500  30.180
  940BOLB   PO122538  25.910  23.890  30.600
  940BOLB   GL122539  25.490  23.810  30.640
  940BOLB   GL222540  25.300  23.930  30.780
  940BOLB   C1A22541  24.980  23.560  30.540
  940BOLB   C2A22542  24.450  23.370  30.440
  940BOLB   C3A22543  24.210  23.250  30.040
  940BOLB   C4A22544  24.210  23.400  29.610
  940BOLB   C1B22545  24.970  23.760  31.000
  940BOLB   C2B22546  24.630  23.400  30.970
  940BOLB   C3B22547  24.320  23.330  31.380
  940BOLB   C4B22548  24.010  23.130  31.420
  940BOLB   NC222549  26.485  24.340  28.390
  940BOLB   PO222550  26.310  24.120  28.040
  940BOLB   GL322551  25.870  23.950  28.270
  940BOLB   GL422552  25.750  23.700  28.190
  940BOLB   C1C22553  25.480  23.890  28.580
  940BOLB   C2C22554  25.080  23.750  28.780
  940BOLB   C3C22555  24.670  23.570  28.860
  940BOLB   C4C22556  24.390  23.430  29.210
  940BOLB   C1D22557  25.950  23.490  28.450
  940BOLB   C2D22558  25.860  23.250  28.830
  940BOLB   C3D22559  26.010  22.930  29.160
  940BOLB   C4D22560  25.920  22.580  29.380
  941BOLB   NC122561  18.530  23.920  28.140
  941BOLB   PO122562  18.470  24.180  27.760
  941BOLB   GL122563  18.330  24.570  27.600
  941BOLB   GL222564  18.070  24.610  27.730
  941BOLB   C1A22565  18.350  24.970  27.480
  941BOLB   C2A22566  18.490  25.430  27.440
  941BOLB   C3A22567  18.630  25.670  27.280
  941BOLB   C4A22568  18.530  26.030  27.120
  941BOLB   C1B22569  17.870  25.000  27.590
  941BOLB   C2B22570  17.990  25.430  27.620
  941BOLB   C3B22571  17.760  25.950  27.750
  941BOLB   C4B22572  18.020  26.240  27.820
  941BOLB   NC222573  16.700   1.590  26.690
  941BOLB   PO222574  16.970   1.500  27.040
  941BOLB   GL322575  17.090   1.220  27.240
  941BOLB   GL422576  17.210   1.050  26.930
  941BOLB   C1C22577  17.560   1.060  27.340
  941BOLB   C2C22578  18.030   0.910  27.320
  941BOLB   C3C22579  18.360   0.550  27.270
  941BOLB   C4C22580  18.470   0.030  27.270
  941BOLB   C1D22581  17.250   0.630  26.860
  941BOLB   C2D22582  17.080   0.330  27.010
  941BOLB   C3D22583  17.150  26.420  26.810
  941BOLB   C4D22584  17.430  26.090  26.780
  942BOLB   NC122585  28.215  13.690  39.280
  942BOLB   PO122586  28.285  14.080  39.500
  942BOLB   GL122587  28.385  14.250  39.840
  942BOLB   GL222588  28.435  14.560  39.890
  942BOLB   C1A22589  28.565  14.230  40.280
  942BOLB   C2A22590  28.595  14.370  40.740
  942BOLB   C3A22591  28.605  14.140  41.070
  942BOLB   C4A22592  28.575  14.030  41.450
  942BOLB   C1B22593  28.505  14.710  40.300
  942BOLB   C2B22594  28.675  14.920  40.590
  942BOLB   C3B22595  28.865  15.120  40.980
  942BOLB   C4B22596  28.725  15.220  41.320
  942BOLB   NC222597  30.335  14.380  42.770
  942BOLB   PO222598  30.365  13.830  42.740
  942BOLB   GL322599  30.165  13.880  42.460
  942BOLB   GL422600  30.015  14.280  42.420
  942BOLB   C1C22601  29.865  13.830  42.200
  942BOLB   C2C22602  29.395  13.850  42.060
  942BOLB   C3C22603  29.105  14.060  42.050
  942BOLB   C4C22604  28.725  14.070  41.800
  942BOLB   C1D22605  29.935  14.570  42.090
  942BOLB   C2D22606  29.765  14.620  41.610
  942BOLB   C3D22607  29.575  14.970  41.410
  942BOLB   C4D22608  29.225  15.050  41.290
  943BOLB   NC122609  15.310  21.410  18.860
  943BOLB   PO122610  15.410  21.780  18.800
  943BOLB   GL122611  15.470  21.870  19.250
  943BOLB   GL222612  15.360  21.560  19.380
  943BOLB   C1A22613  15.830  21.920  19.470
  943BOLB   C2A22614  16.190  22.040  19.650
  943BOLB   C3A22615  16.530  21.900  19.910
  943BOLB   C4A22616  16.830  21.580  19.970
  943BOLB   C1B22617  15.540  21.300  19.540
  943BOLB   C2B22618  15.460  20.830  19.610
  943BOLB   C3B22619  15.320  20.620  20.000
  943BOLB   C4B22620  15.670  20.320  20.150
  943BOLB   NC222621  17.860  20.430  22.390
  943BOLB   PO222622  18.100  20.350  21.950
  943BOLB   GL322623  17.790  20.360  21.600
  943BOLB   GL422624  17.550  20.150  21.480
  943BOLB   C1C22625  17.610  20.530  21.140
  943BOLB   C2C22626  17.310  20.730  20.850
  943BOLB   C3C22627  17.010  20.880  20.420
  943BOLB   C4C22628  17.020  21.280  20.190
  943BOLB   C1D22629  17.230  20.140  21.170
  943BOLB   C2D22630  16.990  20.320  20.790
  943BOLB   C3D22631  17.020  20.370  20.400
  943BOLB   C4D22632  16.560  20.520  20.420
  944BOLB   NC122633  28.335  14.860  27.320
  944BOLB   PO122634  28.505  14.600  27.040
  944BOLB   GL122635  28.825  14.750  26.930
  944BOLB   GL222636  28.985  14.670  26.710
  944BOLB   C1A22637  29.085  15.070  27.070
  944BOLB   C2A22638  29.415  15.340  27.050
  944BOLB   C3A22639  29.775  15.290  26.820
  944BOLB   C4A22640  30.095  15.140  26.520
  944BOLB   C1B22641  29.355  14.540  26.780
  944BOLB   C2B22642  29.565  14.100  26.750
  944BOLB   C3B22643  29.985  13.950  26.780
  944BOLB   C4B22644  30.335  13.750  26.770
  944BOLB   NC222645  32.415  16.020  25.760
  944BOLB   PO222646  32.155  15.880  25.500
  944BOLB   GL322647  31.875  15.880  25.930
  944BOLB   GL422648  31.845  15.610  26.180
  944BOLB   C1C22649  31.555  16.080  26.150
  944BOLB   C2C22650  31.195  15.960  26.330
  944BOLB   C3C22651  30.955  15.660  26.450
  944BOLB   C4C22652  30.505  15.420  26.390
  944BOLB   C1D22653  31.465  15.550  26.060
  944BOLB   C2D22654  31.155  15.330  26.110
  944BOLB   C3D22655  30.925  15.180  25.950
  944BOLB   C4D22656  30.525  15.000  26.000
  945BOLB   NC122657  24.690  18.570  26.080
  945BOLB   PO122658  25.020  18.670  26.160
  945BOLB   GL122659  25.320  19.090  26.130
  945BOLB   GL222660  25.470  19.120  25.760
  945BOLB   C1A22661  25.670  19.410  26.090
  945BOLB   C2A22662  25.670  19.810  26.060
  945BOLB   C3A22663  25.820  20.210  26.370
  945BOLB   C4A22664  26.210  20.370  26.250
  945BOLB   C1B22665  25.790  19.580  25.640
  945BOLB   C2B22666  26.080  19.870  25.550
  945BOLB   C3B22667  26.360  20.000  25.240
  945BOLB   C4B22668  26.465  19.990  24.870
  945BOLB   NC222669  28.265  21.930  26.310
  945BOLB   PO222670  28.045  22.190  26.130
  945BOLB   GL322671  27.885  21.830  25.890
  945BOLB   GL422672  27.595  21.730  25.590
  945BOLB   C1C22673  27.545  21.560  26.070
  945BOLB   C2C22674  27.275  21.180  26.090
  945BOLB   C3C22675  26.875  21.080  26.050
  945BOLB   C4C22676  26.535  20.670  26.100
  945BOLB   C1D22677  27.235  21.520  25.710
  945BOLB   C2D22678  26.815  21.440  25.740
  945BOLB   C3D22679  26.330  21.520  25.690
  945BOLB   C4D22680  25.850  21.690  25.580
  946BOLB   NC122681  27.085  16.110  25.430
  946BOLB   PO122682  27.275  16.420  25.750
  946BOLB   GL122683  27.595  16.390  26.030
  946BOLB   GL222684  27.605  16.420  26.330
  946BOLB   C1A22685  28.045  16.400  25.850
  946BOLB   C2A22686  28.385  16.270  25.620
  946BOLB   C3A22687  28.735  16.460  25.250
  946BOLB   C4A22688  29.155  16.570  25.080
  946BOLB   C1B22689  28.075  16.530  26.310
  946BOLB   C2B22690  28.285  16.750  26.110
  946BOLB   C3B22691  28.525  16.870  25.830
  946BOLB   C4B22692  28.955  16.870  25.460
  946BOLB   NC222693  30.435  17.210  23.290
  946BOLB   PO222694  30.705  17.250  23.750
  946BOLB   GL322695  30.305  17.160  23.850
  946BOLB   GL422696  30.055  17.140  23.630
  946BOLB   C1C22697  30.045  16.770  23.990
  946BOLB   C2C22698  29.945  16.460  24.240
  946BOLB   C3C22699  29.515  16.430  24.340
  946BOLB   C4C22700  29.265  16.410  24.720
  946BOLB   C1D22701  29.745  17.000  23.600
  946BOLB   C2D22702  29.425  16.800  23.910
  946BOLB   C3D22703  29.075  16.550  24.140
  946BOLB   C4D22704  29.065  16.130  24.380
  947BOLB   NC122705  17.250  23.770  25.400
  947BOLB   PO122706  16.930  23.470  25.480
  947BOLB   GL122707  16.860  23.880  25.170
  947BOLB   GL222708  16.700  24.100  25.360
  947BOLB   C1A22709  17.030  24.190  24.910
  947BOLB   C2A22710  17.040  24.500  24.590
  947BOLB   C3A22711  16.810  24.850  24.500
  947BOLB   C4A22712  16.470  25.100  24.500
  947BOLB   C1B22713  16.580  24.280  24.940
  947BOLB   C2B22714  16.350  24.430  24.700
  947BOLB   C3B22715  16.000  24.640  24.650
  947BOLB   C4B22716  15.810  25.030  24.490
  947BOLB   NC222717  16.530  26.300  22.820
  947BOLB   PO222718  16.240  26.170  22.590
  947BOLB   GL322719  16.120  25.900  22.880
  947BOLB   GL422720  16.370  25.780  23.120
  947BOLB   C1C22721  15.900  25.680  23.210
  947BOLB   C2C22722  15.810  25.290  23.510
  947BOLB   C3C22723  15.890  25.270  23.960
  947BOLB   C4C22724  16.260  25.230  24.190
  947BOLB   C1D22725  16.450  25.590  23.450
  947BOLB   C2D22726  16.340  25.260  23.690
  947BOLB   C3D22727  16.610  24.830  23.760
  947BOLB   C4D22728  16.860  24.540  23.990
  948BOLB   NC122729  25.340  15.670  42.540
  948BOLB   PO122730  25.170  15.330  42.800
  948BOLB   GL122731  25.360  15.470  43.150
  948BOLB   GL222732  25.470  15.820  43.220
  948BOLB   C1A22733  25.630  15.460  43.500
  948BOLB   C2A22734  25.780  15.660  43.870
  948BOLB   C3A22735  25.850  15.650  44.370
  948BOLB   C4A22736  26.170  15.870  44.570
  948BOLB   C1B22737  25.540  16.040  43.690
  948BOLB   C2B22738  25.780  16.120  44.170
  948BOLB   C3B22739  26.080  16.310  44.450
  948BOLB   C4B22740  26.210  16.610  44.680
  948BOLB   NC222741  27.055  17.270  46.130
  948BOLB   PO222742  26.875  16.930  46.380
  948BOLB   GL322743  26.875  16.670  45.970
  948BOLB   GL422744  27.135  16.480  45.870
  948BOLB   C1C22745  26.695  16.510  45.600
  948BOLB   C2C22746  26.815  16.080  45.420
  948BOLB   C3C22747  26.695  15.920  45.020
  948BOLB   C4C22748  26.545  15.910  44.750
  948BOLB   C1D22749  27.155  16.800  45.550
  948BOLB   C2D22750  26.985  17.060  45.230
  948BOLB   C3D22751  26.705  17.300  45.190
  948BOLB   C4D22752  26.455  17.100  44.810
  949BOLB   NC122753  16.900  11.990  36.490
  949BOLB   PO122754  16.600  12.320  36.300
  949BOLB   GL122755  16.190  12.250  36.220
  949BOLB   GL222756  16.110  11.950  36.080
  949BOLB   C1A22757  15.870  12.000  36.450
  949BOLB   C2A22758  15.720  11.660  36.760
  949BOLB   C3A22759  15.680  11.250  36.870
  949BOLB   C4A22760  15.380  10.950  37.070
  949BOLB   C1B22761  16.220  11.610  36.350
  949BOLB   C2B22762  16.030  11.300  36.500
  949BOLB   C3B22763  15.750  10.890  36.400
  949BOLB   C4B22764  15.460  10.770  36.590
  949BOLB   NC222765  13.640   9.110  37.470
  949BOLB   PO222766  13.810   9.470  37.690
  949BOLB   GL322767  14.070   9.800  37.770
  949BOLB   GL422768  14.140   9.990  37.470
  949BOLB   C1C22769  14.310  10.240  37.930
  949BOLB   C2C22770  14.660  10.340  37.840
  949BOLB   C3C22771  14.890  10.590  37.660
  949BOLB   C4C22772  14.990  10.910  37.380
  949BOLB   C1D22773  14.350  10.350  37.250
  949BOLB   C2D22774  14.640  10.680  37.120
  949BOLB   C3D22775  14.890  10.710  36.790
  949BOLB   C4D22776  14.980  11.080  36.550
  950BOLB   NC122777  15.550  22.260  25.180
  950BOLB   PO122778  15.640  22.470  24.700
  950BOLB   GL122779  15.340  22.850  24.490
  950BOLB   GL222780  15.160  22.630  24.330
  950BOLB   C1A22781  15.100  23.200  24.420
  950BOLB   C2A22782  14.810  23.300  24.140
  950BOLB   C3A22783  14.320  23.150  24.070
  950BOLB   C4A22784  14.110  22.840  23.680
  950BOLB   C1B22785  14.660  22.760  24.250
  950BOLB   C2B22786  14.170  22.540  24.130
  950BOLB   C3B22787  13.720  22.560  24.050
  950BOLB   C4B22788  13.410  22.870  23.970
  950BOLB   NC222789  12.600  23.500  22.220
  950BOLB   PO222790  12.850  23.640  21.950
  950BOLB   GL322791  13.020  23.850  22.260
  950BOLB   GL422792  13.260  24.160  22.190
  950BOLB   C1C22793  13.410  23.680  22.460
  950BOLB   C2C22794  13.570  23.470  22.810
  950BOLB   C3C22795  13.800  23.290  23.110
  950BOLB   C4C22796  13.860  22.970  23.310
  950BOLB   C1D22797  13.730  24.190  22.370
  950BOLB   C2D22798  14.140  24.030  22.490
  950BOLB   C3D22799  14.450  23.920  22.640
  950BOLB   C4D22800  14.890  24.090  22.500
  951BOLB   NC122801  27.155  17.900  34.390
  951BOLB   PO122802  27.045  18.030  34.810
  951BOLB   GL122803  27.365  18.290  34.790
  951BOLB   GL222804  27.645  18.090  34.550
  951BOLB   C1A22805  27.795  18.330  35.030
  951BOLB   C2A22806  28.005  18.710  35.080
  951BOLB   C3A22807  28.495  19.010  35.120
  951BOLB   C4A22808  28.625  19.320  35.440
  951BOLB   C1B22809  27.585  18.530  34.450
  951BOLB   C2B22810  27.575  18.960  34.460
  951BOLB   C3B22811  27.825  19.420  34.500
  951BOLB   C4B22812  28.155  19.760  34.520
  951BOLB   NC222813  30.095  21.000  35.830
  951BOLB   PO222814  30.265  20.670  36.000
  951BOLB   GL322815  29.905  20.610  36.110
  951BOLB   GL422816  29.895  20.350  36.410
  951BOLB   C1C22817  29.625  20.500  35.930
  951BOLB   C2C22818  29.185  20.370  35.910
  951BOLB   C3C22819  29.145  19.860  35.850
  951BOLB   C4C22820  28.915  19.510  35.870
  951BOLB   C1D22821  29.565  20.290  36.740
  951BOLB   C2D22822  29.545  19.840  36.950
  951BOLB   C3D22823  29.305  19.510  36.780
  951BOLB   C4D22824  28.935  19.310  36.840
  952BOLB   NC122825  19.000   2.200  29.890
  952BOLB   PO122826  18.660   2.000  29.810
  952BOLB   GL122827  18.800   1.780  30.210
  952BOLB   GL222828  18.470   1.610  30.260
  952BOLB   C1A22829  18.900   1.530  30.540
  952BOLB   C2A22830  18.880   1.100  30.850
  952BOLB   C3A22831  18.560   0.730  30.700
  952BOLB   C4A22832  18.210   0.410  30.650
  952BOLB   C1B22833  18.500   1.310  29.900
  952BOLB   C2B22834  18.500   1.120  29.430
  952BOLB   C3B22835  18.410   1.290  29.010
  952BOLB   C4B22836  18.590   1.210  28.640
  952BOLB   NC222837  17.660   2.550  28.870
  952BOLB   PO222838  17.780   2.380  29.230
  952BOLB   GL322839  17.770   1.840  29.190
  952BOLB   GL422840  18.040   1.680  29.130
  952BOLB   C1C22841  17.610   1.530  29.580
  952BOLB   C2C22842  17.610   1.240  29.920
  952BOLB   C3C22843  17.590   0.880  30.260
  952BOLB   C4C22844  17.790   0.530  30.550
  952BOLB   C1D22845  17.920   1.250  29.150
  952BOLB   C2D22846  18.090   0.870  29.050
  952BOLB   C3D22847  18.520   0.610  29.150
  952BOLB   C4D22848  18.740   0.290  29.010
  953BOLB   NC122849   9.650  19.760  26.490
  953BOLB   PO122850   9.880  19.630  26.160
  953BOLB   GL122851  10.180  19.820  26.540
  953BOLB   GL222852  10.210  19.990  26.750
  953BOLB   C1A22853  10.490  19.610  26.710
  953BOLB   C2A22854  10.510  19.300  26.960
  953BOLB   C3A22855  10.900  18.930  27.140
  953BOLB   C4A22856  11.270  18.690  27.110
  953BOLB   C1B22857  10.650  20.200  26.770
  953BOLB   C2B22858  11.040  20.420  26.800
  953BOLB   C3B22859  11.370  20.630  26.570
  953BOLB   C4B22860  11.790  20.660  26.640
  953BOLB   NC222861   9.890  17.980  26.700
  953BOLB   PO222862  10.120  17.800  27.000
  953BOLB   GL322863  10.550  17.870  27.120
  953BOLB   GL422864  10.690  18.040  26.900
  953BOLB   C1C22865  10.860  17.770  27.390
  953BOLB   C2C22866  11.200  17.770  27.690
  953BOLB   C3C22867  11.300  18.220  27.630
  953BOLB   C4C22868  11.470  18.470  27.260
  953BOLB   C1D22869  10.880  17.860  26.490
  953BOLB   C2D22870  11.250  17.890  26.170
  953BOLB   C3D22871  11.630  17.850  26.110
  953BOLB   C4D22872  11.960  17.580  26.040
  954BOLB   NC122873  28.905  14.840  35.930
  954BOLB   PO122874  29.365  14.870  35.740
  954BOLB   GL122875  29.625  15.030  36.050
  954BOLB   GL222876  29.885  14.710  36.130
  954BOLB   C1A22877  29.865  15.350  36.190
  954BOLB   C2A22878  30.135  15.700  36.220
  954BOLB   C3A22879  30.505  15.920  36.160
  954BOLB   C4A22880  30.645  16.290  36.400
  954BOLB   C1B22881  30.265  14.960  36.160
  954BOLB   C2B22882  30.585  15.330  36.290
  954BOLB   C3B22883  30.885  15.580  36.370
  954BOLB   C4B22884  31.055  15.910  36.560
  954BOLB   NC222885  29.395  14.540  36.220
  954BOLB   PO222886  29.055  14.920  36.420
  954BOLB   GL322887  29.455  15.210  36.480
  954BOLB   GL422888  29.365  15.320  36.820
  954BOLB   C1C22889  29.635  15.680  36.430
  954BOLB   C2C22890  29.685  16.020  36.600
  954BOLB   C3C22891  29.975  16.230  36.850
  954BOLB   C4C22892  30.325  16.330  36.660
  954BOLB   C1D22893  29.825  15.310  36.730
  954BOLB   C2D22894  30.235  15.310  36.670
  954BOLB   C3D22895  30.585  15.350  36.930
  954BOLB   C4D22896  30.975  15.600  36.850
  955BOLB   NC122897  28.915  15.470  34.700
  955BOLB   PO122898  29.055  15.120  34.910
  955BOLB   GL122899  29.415  15.310  34.990
  955BOLB   GL222900  29.455  15.390  34.640
  955BOLB   C1A22901  29.755  15.640  34.960
  955BOLB   C2A22902  30.045  15.960  34.820
  955BOLB   C3A22903  30.445  16.160  34.590
  955BOLB   C4A22904  30.715  16.410  34.740
  955BOLB   C1B22905  29.875  15.520  34.510
  955BOLB   C2B22906  30.375  15.660  34.410
  955BOLB   C3B22907  30.815  15.700  34.320
  955BOLB   C4B22908  31.325  15.740  34.290
  955BOLB   NC222909  33.155  16.470  35.140
  955BOLB   PO222910  33.155  16.350  34.620
  955BOLB   GL322911  32.775  16.420  34.600
  955BOLB   GL422912  32.775  16.660  34.780
  955BOLB   C1C22913  32.495  16.170  34.570
  955BOLB   C2C22914  32.085  16.200  34.690
  955BOLB   C3C22915  31.625  16.370  34.680
  955BOLB   C4C22916  31.195  16.560  34.750
  955BOLB   C1D22917  32.365  16.590  34.890
  955BOLB   C2D22918  31.975  16.790  34.900
  955BOLB   C3D22919  31.925  17.200  34.740
  955BOLB   C4D22920  31.815  17.550  34.850
  956BOLB   NC122921  16.760  17.570  22.580
  956BOLB   PO122922  16.470  17.700  22.930
  956BOLB   GL122923  16.040  17.860  22.650
  956BOLB   GL222924  16.140  17.660  22.390
  956BOLB   C1A22925  15.780  18.000  22.360
  956BOLB   C2A22926  15.630  17.930  21.930
  956BOLB   C3A22927  15.380  17.980  21.640
  956BOLB   C4A22928  15.330  17.890  21.210
  956BOLB   C1B22929  15.770  17.550  22.180
  956BOLB   C2B22930  15.360  17.640  22.140
  956BOLB   C3B22931  15.040  17.720  22.000
  956BOLB   C4B22932  14.660  17.430  22.020
  956BOLB   NC222933  14.160  18.290  19.300
  956BOLB   PO222934  14.060  17.820  19.040
  956BOLB   GL322935  14.030  17.860  19.500
  956BOLB   GL422936  14.300  17.700  19.620
  956BOLB   C1C22937  14.100  17.780  20.030
  956BOLB   C2C22938  14.440  17.770  20.460
  956BOLB   C3C22939  14.840  17.700  20.680
  956BOLB   C4C22940  15.200  17.660  20.920
  956BOLB   C1D22941  14.610  17.940  19.890
  956BOLB   C2D22942  14.660  18.190  20.270
  956BOLB   C3D22943  14.930  18.360  20.480
  956BOLB   C4D22944  14.950  18.260  20.920
  957BOLB   NC122945  23.130  18.820  18.150
  957BOLB   PO122946  23.220  18.330  18.130
  957BOLB   GL122947  23.270  17.890  18.220
  957BOLB   GL222948  22.940  17.720  18.310
  957BOLB   C1A22949  23.330  17.520  18.510
  957BOLB   C2A22950  23.560  17.460  18.950
  957BOLB   C3A22951  23.640  17.210  19.360
  957BOLB   C4A22952  23.790  16.880  19.580
  957BOLB   C1B22953  22.940  17.250  18.550
  957BOLB   C2B22954  22.630  17.050  18.800
  957BOLB   C3B22955  22.260  16.880  19.030
  957BOLB   C4B22956  22.100  16.600  19.370
  957BOLB   NC222957  25.730  15.780  18.740
  957BOLB   PO222958  25.830  16.170  18.750
  957BOLB   GL322959  25.580  16.360  19.020
  957BOLB   GL422960  25.780  16.600  19.110
  957BOLB   C1C22961  25.190  16.210  19.330
  957BOLB   C2C22962  24.770  16.400  19.430
  957BOLB   C3C22963  24.350  16.510  19.440
  957BOLB   C4C22964  23.970  16.620  19.420
  957BOLB   C1D22965  25.940  16.240  19.530
  957BOLB   C2D22966  25.920  15.920  19.940
  957BOLB   C3D22967  25.770  15.590  20.170
  957BOLB   C4D22968  25.310  15.410  19.980
  958BOLB   NC122969  19.890  19.170  42.410
  958BOLB   PO122970  19.570  19.500  42.500
  958BOLB   GL122971  19.310  19.490  42.890
  958BOLB   GL222972  18.850  19.470  42.890
  958BOLB   C1A22973  19.000  19.600  43.350
  958BOLB   C2A22974  18.800  19.660  43.750
  958BOLB   C3A22975  18.950  19.660  44.220
  958BOLB   C4A22976  18.990  19.460  44.670
  958BOLB   C1B22977  18.480  19.580  43.290
  958BOLB   C2B22978  18.290  19.600  43.650
  958BOLB   C3B22979  18.190  19.810  43.890
  958BOLB   C4B22980  18.120  20.110  44.140
  958BOLB   NC222981  17.370  19.490  46.430
  958BOLB   PO222982  17.690  19.800  46.620
  958BOLB   GL322983  17.950  19.950  46.250
  958BOLB   GL422984  17.770  20.140  46.000
  958BOLB   C1C22985  17.930  19.700  45.820
  958BOLB   C2C22986  18.280  19.640  45.510
  958BOLB   C3C22987  18.590  19.410  45.320
  958BOLB   C4C22988  18.900  19.420  45.100
  958BOLB   C1D22989  18.090  20.160  45.660
  958BOLB   C2D22990  18.020  20.050  45.190
  958BOLB   C3D22991  17.620  19.960  44.900
  958BOLB   C4D22992  17.240  19.880  44.640
  959BOLB   NC122993  14.560  17.970  26.320
  959BOLB   PO122994  14.120  18.180  26.280
  959BOLB   GL122995  13.880  18.260  25.900
  959BOLB   GL222996  13.740  18.010  25.960
  959BOLB   C1A22997  13.650  18.480  25.710
  959BOLB   C2A22998  13.220  18.520  25.480
  959BOLB   C3A22999  13.140  18.550  25.060
  959BOLB   C4A23000  13.150  18.360  24.580
  959BOLB   C1B23001  13.370  18.280  26.080
  959BOLB   C2B23002  13.070  18.550  25.930
  959BOLB   C3B23003  12.600  18.470  25.890
  959BOLB   C4B23004  12.260  18.820  25.900
  959BOLB   NC223005  10.440  17.880  23.720
  959BOLB   PO223006  10.890  17.680  23.660
  959BOLB   GL323007  11.310  17.800  23.840
  959BOLB   GL423008  11.450  17.500  23.610
  959BOLB   C1C23009  11.640  18.140  23.840
  959BOLB   C2C23010  11.890  18.230  24.080
  959BOLB   C3C23011  12.350  18.340  24.160
  959BOLB   C4C23012  12.780  18.320  24.340
  959BOLB   C1D23013  11.830  17.650  23.460
  959BOLB   C2D23014  12.300  17.580  23.600
  959BOLB   C3D23015  12.730  17.590  23.860
  959BOLB   C4D23016  13.140  17.430  24.150
  960BOLB   NC123017  25.730  17.880  32.890
  960BOLB   PO123018  26.070  18.060  32.690
  960BOLB   GL123019  26.120  18.420  32.440
  960BOLB   GL223020  26.390  18.640  32.650
  960BOLB   C1A23021  25.890  18.790  32.220
  960BOLB   C2A23022  25.930  19.060  31.910
  960BOLB   C3A23023  25.870  19.160  31.470
  960BOLB   C4A23024  25.840  19.590  31.320
  960BOLB   C1B23025  26.495  18.990  32.480
  960BOLB   C2B23026  26.715  19.400  32.340
  960BOLB   C3B23027  26.430  19.790  32.160
  960BOLB   C4B23028  26.360  20.100  31.870
  960BOLB   NC223029  27.465  20.980  31.390
  960BOLB   PO223030  27.185  21.160  31.230
  960BOLB   GL323031  26.915  21.030  30.850
  960BOLB   GL423032  27.065  21.170  30.580
  960BOLB   C1C23033  26.665  20.790  30.970
  960BOLB   C2C23034  26.180  20.720  31.070
  960BOLB   C3C23035  25.800  20.410  30.940
  960BOLB   C4C23036  25.940  19.960  31.040
  960BOLB   C1D23037  26.615  20.920  30.440
  960BOLB   C2D23038  26.390  20.540  30.530
  960BOLB   C3D23039  26.070  20.580  30.220
  960BOLB   C4D23040  25.690  20.430  30.120
  961BOLB   NC123041  29.385  17.140  22.140
  961BOLB   PO123042  29.745  16.940  22.190
  961BOLB   GL123043  29.565  16.720  22.470
  961BOLB   GL223044  29.755  16.650  22.920
  961BOLB   C1A23045  29.235  16.520  22.750
  961BOLB   C2A23046  28.975  16.540  23.120
  961BOLB   C3A23047  28.875  16.360  23.500
  961BOLB   C4A23048  28.665  16.300  23.990
  961BOLB   C1B23049  29.575  16.640  23.330
  961BOLB   C2B23050  29.255  16.750  23.430
  961BOLB   C3B23051  28.975  16.830  23.700
  961BOLB   C4B23052  28.565  16.770  23.780
  961BOLB   NC223053  30.555  17.520  24.160
  961BOLB   PO223054  30.545  17.230  24.260
  961BOLB   GL323055  30.185  17.140  24.360
  961BOLB   GL423056  30.055  17.430  24.420
  961BOLB   C1C23057  29.665  17.040  24.430
  961BOLB   C2C23058  29.295  16.930  24.580
  961BOLB   C3C23059  28.845  16.900  24.390
  961BOLB   C4C23060  28.595  16.620  24.250
  961BOLB   C1D23061  29.965  17.420  24.740
  961BOLB   C2D23062  29.495  17.260  24.870
  961BOLB   C3D23063  29.215  17.570  24.970
  961BOLB   C4D23064  28.735  17.580  25.110
  962BOLB   NC123065  24.730  19.630  26.000
  962BOLB   PO123066  24.400  19.830  26.270
  962BOLB   GL123067  24.580  20.160  26.500
  962BOLB   GL223068  24.290  20.420  26.530
  962BOLB   C1A23069  24.970  20.340  26.520
  962BOLB   C2A23070  25.300  20.570  26.510
  962BOLB   C3A23071  25.760  20.650  26.620
  962BOLB   C4A23072  26.200  20.860  26.430
  962BOLB   C1B23073  24.410  20.620  26.240
  962BOLB   C2B23074  24.840  20.750  26.220
  962BOLB   C3B23075  25.220  20.800  26.050
  962BOLB   C4B23076  25.450  21.050  25.960
  962BOLB   NC223077  27.465  22.690  25.000
  962BOLB   PO223078  27.455  22.720  25.480
  962BOLB   GL323079  27.015  22.590  25.510
  962BOLB   GL423080  26.745  22.880  25.500
  962BOLB   C1C23081  26.665  22.420  25.700
  962BOLB   C2C23082  26.575  22.000  25.770
  962BOLB   C3C23083  26.485  21.730  26.140
  962BOLB   C4C23084  26.380  21.240  26.220
  962BOLB   C1D23085  26.350  22.870  25.760
  962BOLB   C2D23086  26.090  23.120  25.990
  962BOLB   C3D23087  25.830  23.440  26.310
  962BOLB   C4D23088  25.600  23.430  26.570
  963BOLB   NC123089  27.675   9.810  36.610
  963BOLB   PO123090  27.655   9.580  37.190
  963BOLB   GL123091  27.945   9.370  37.560
  963BOLB   GL223092  28.215   9.460  37.500
  963BOLB   C1A23093  28.055   9.090  37.920
  963BOLB   C2A23094  28.005   8.790  38.310
  963BOLB   C3A23095  27.815   8.390  38.400
  963BOLB   C4A23096  28.105   7.960  38.480
  963BOLB   C1B23097  28.535   9.080  37.700
  963BOLB   C2B23098  28.715   8.740  37.670
  963BOLB   C3B23099  28.875   8.410  37.970
  963BOLB   C4B23100  29.045   8.120  38.240
  963BOLB   NC223101  30.215   6.840  39.650
  963BOLB   PO223102  29.935   6.570  39.900
  963BOLB   GL323103  29.675   7.010  39.740
  963BOLB   GL423104  29.605   7.240  39.920
  963BOLB   C1C23105  29.475   7.300  39.420
  963BOLB   C2C23106  29.245   7.640  39.230
  963BOLB   C3C23107  28.855   7.590  38.940
  963BOLB   C4C23108  28.495   7.740  38.610
  963BOLB   C1D23109  29.445   7.700  39.810
  963BOLB   C2D23110  29.075   7.780  39.800
  963BOLB   C3D23111  28.775   7.860  39.370
  963BOLB   C4D23112  28.465   7.890  39.080
  964BOLB   NC123113  27.775   9.120  28.580
  964BOLB   PO123114  27.885   8.810  28.920
  964BOLB   GL123115  28.275   8.580  29.100
  964BOLB   GL223116  28.655   8.650  29.240
  964BOLB   C1A23117  28.435   8.150  29.200
  964BOLB   C2A23118  28.675   7.900  29.110
  964BOLB   C3A23119  28.725   7.460  28.970
  964BOLB   C4A23120  28.965   7.310  28.780
  964BOLB   C1B23121  28.945   8.380  29.000
  964BOLB   C2B23122  29.175   8.070  28.750
  964BOLB   C3B23123  29.585   8.040  28.930
  964BOLB   C4B23124  29.945   7.810  28.900
  964BOLB   NC223125  30.745   7.030  26.840
  964BOLB   PO223126  30.655   6.620  27.060
  964BOLB   GL323127  30.295   6.860  27.160
  964BOLB   GL423128  30.285   7.240  27.110
  964BOLB   C1C23129  29.895   6.760  27.350
  964BOLB   C2C23130  29.725   6.860  27.790
  964BOLB   C3C23131  29.445   6.900  28.150
  964BOLB   C4C23132  29.225   7.100  28.430
  964BOLB   C1D23133  29.955   7.540  26.940
  964BOLB   C2D23134  29.675   7.820  27.030
  964BOLB   C3D23135  29.525   8.080  27.290
  964BOLB   C4D23136  29.135   8.040  27.540
  965BOLB   NC123137  15.630  16.690  18.840
  965BOLB   PO123138  15.690  16.290  18.720
  965BOLB   GL123139  15.930  16.190  19.030
  965BOLB   GL223140  16.180  15.930  18.990
  965BOLB   C1A23141  15.970  16.290  19.480
  965BOLB   C2A23142  16.200  16.320  19.840
  965BOLB   C3A23143  16.390  16.650  20.090
  965BOLB   C4A23144  16.390  17.130  20.160
  965BOLB   C1B23145  16.500  15.640  19.180
  965BOLB   C2B23146  16.770  15.550  19.440
  965BOLB   C3B23147  16.920  15.630  19.880
  965BOLB   C4B23148  17.170  15.900  20.120
  965BOLB   NC223149  15.410  17.350  18.380
  965BOLB   PO223150  15.240  17.490  18.740
  965BOLB   GL323151  15.430  17.910  18.960
  965BOLB   GL423152  15.220  18.070  19.170
  965BOLB   C1C23153  15.700  18.110  19.240
  965BOLB   C2C23154  15.960  17.840  19.430
  965BOLB   C3C23155  16.290  17.780  19.770
  965BOLB   C4C23156  16.530  17.460  19.930
  965BOLB   C1D23157  15.380  17.930  19.570
  965BOLB   C2D23158  15.060  17.950  19.930
  965BOLB   C3D23159  15.090  17.920  20.290
  965BOLB   C4D23160  15.370  18.040  20.560
  966BOLB   NC123161  13.390  21.700  31.550
  966BOLB   PO123162  13.410  21.730  31.180
  966BOLB   GL123163  13.050  22.070  31.100
  966BOLB   GL223164  12.870  21.960  31.330
  966BOLB   C1A23165  12.680  22.470  31.070
  966BOLB   C2A23166  12.270  22.660  31.080
  966BOLB   C3A23167  11.930  22.960  31.310
  966BOLB   C4A23168  11.900  23.320  31.420
  966BOLB   C1B23169  12.460  22.020  31.400
  966BOLB   C2B23170  12.030  21.870  31.460
  966BOLB   C3B23171  11.680  21.930  31.180
  966BOLB   C4B23172  11.370  21.770  31.000
  966BOLB   NC223173  10.030  24.870  30.930
  966BOLB   PO223174  10.190  24.750  31.360
  966BOLB   GL323175  10.460  24.370  31.360
  966BOLB   GL423176  10.860  24.480  31.340
  966BOLB   C1C23177  10.680  24.060  31.120
  966BOLB   C2C23178  11.100  23.890  31.290
  966BOLB   C3C23179  11.350  23.800  31.640
  966BOLB   C4C23180  11.730  23.590  31.680
  966BOLB   C1D23181  11.170  24.330  31.540
  966BOLB   C2D23182  11.280  24.200  31.940
  966BOLB   C3D23183  11.600  24.100  32.220
  966BOLB   C4D23184  12.050  23.880  32.440
  967BOLB   NC123185  27.385   8.580  31.550
  967BOLB   PO123186  27.425   8.150  31.610
  967BOLB   GL123187  27.485   7.640  31.740
  967BOLB   GL223188  27.295   7.360  31.680
  967BOLB   C1A23189  27.675   7.460  32.020
  967BOLB   C2A23190  27.945   7.200  32.320
  967BOLB   C3A23191  28.435   7.150  32.210
  967BOLB   C4A23192  28.725   6.800  32.110
  967BOLB   C1B23193  27.615   7.000  31.770
  967BOLB   C2B23194  27.955   7.060  31.610
  967BOLB   C3B23195  28.185   6.880  31.340
  967BOLB   C4B23196  28.685   6.800  31.250
  967BOLB   NC223197  29.915   4.730  31.640
  967BOLB   PO223198  29.765   4.750  31.210
  967BOLB   GL323199  29.595   5.160  31.510
  967BOLB   GL423200  29.705   5.320  31.290
  967BOLB   C1C23201  29.705   5.440  31.810
  967BOLB   C2C23202  29.495   5.790  32.040
  967BOLB   C3C23203  29.365   6.180  32.020
  967BOLB   C4C23204  28.985   6.470  32.090
  967BOLB   C1D23205  29.365   5.730  31.570
  967BOLB   C2D23206  28.875   5.840  31.650
  967BOLB   C3D23207  28.665   6.210  31.800
  967BOLB   C4D23208  28.445   6.230  32.270
  968BOLB   NC123209  19.780  23.700  26.600
  968BOLB   PO123210  20.150  23.590  26.230
  968BOLB   GL123211  20.160  23.940  26.360
  968BOLB   GL223212  19.790  24.180  26.280
  968BOLB   C1A23213  20.330  24.180  26.600
  968BOLB   C2A23214  20.590  24.600  26.720
  968BOLB   C3A23215  20.720  24.870  26.370
  968BOLB   C4A23216  20.610  25.170  26.150
  968BOLB   C1B23217  20.040  24.320  26.130
  968BOLB   C2B23218  20.290  24.670  26.280
  968BOLB   C3B23219  20.260  25.160  26.540
  968BOLB   C4B23220  20.090  25.540  26.570
  968BOLB   NC223221  22.130   0.580  26.270
  968BOLB   PO223222  22.090   0.650  25.810
  968BOLB   GL323223  21.820   0.270  26.020
  968BOLB   GL423224  21.620   0.410  26.230
  968BOLB   C1C23225  21.440  26.430  26.100
  968BOLB   C2C23226  20.990  26.230  25.930
  968BOLB   C3C23227  20.610  25.850  25.980
  968BOLB   C4C23228  20.360  25.530  26.180
  968BOLB   C1D23229  21.630   0.360  26.610
  968BOLB   C2D23230  21.660  26.420  26.890
  968BOLB   C3D23231  21.650  26.050  27.110
  968BOLB   C4D23232  21.730  25.560  27.020
  969BOLB   NC123233  16.680  14.370  39.170
  969BOLB   PO123234  16.600  13.840  39.230
  969BOLB   GL123235  16.250  13.890  39.280
  969BOLB   GL223236  16.120  13.830  38.890
  969BOLB   C1A23237  15.980  13.680  39.380
  969BOLB   C2A23238  15.620  13.420  39.220
  969BOLB   C3A23239  15.360  13.220  39.080
  969BOLB   C4A23240  14.970  13.230  39.360
  969BOLB   C1B23241  15.690  13.800  38.850
  969BOLB   C2B23242  15.220  13.690  38.910
  969BOLB   C3B23243  14.770  13.620  39.050
  969BOLB   C4B23244  14.600  13.590  39.310
  969BOLB   NC223245  12.840  12.720  40.550
  969BOLB   PO223246  13.260  12.600  40.910
  969BOLB   GL323247  13.630  12.710  40.640
  969BOLB   GL423248  13.490  12.950  40.330
  969BOLB   C1C23249  14.070  12.670  40.540
  969BOLB   C2C23250  14.380  12.870  40.460
  969BOLB   C3C23251  14.460  13.110  40.130
  969BOLB   C4C23252  14.740  13.100  39.780
  969BOLB   C1D23253  13.810  12.850  40.160
  969BOLB   C2D23254  14.090  12.700  39.990
  969BOLB   C3D23255  14.440  12.630  39.810
  969BOLB   C4D23256  14.830  12.620  39.660
  970BOLB   NC123257  33.525  14.580  33.980
  970BOLB   PO123258  33.375  14.830  34.270
  970BOLB   GL123259  32.945  14.950  34.350
  970BOLB   GL223260  32.785  14.630  34.140
  970BOLB   C1A23261  32.495  15.010  34.310
  970BOLB   C2A23262  32.175  15.100  34.120
  970BOLB   C3A23263  31.885  15.380  34.080
  970BOLB   C4A23264  31.625  15.730  33.830
  970BOLB   C1B23265  32.435  14.490  34.250
  970BOLB   C2B23266  32.045  14.430  34.440
  970BOLB   C3B23267  31.805  14.420  34.770
  970BOLB   C4B23268  31.895  14.470  35.190
  970BOLB   NC223269  33.365  16.320  33.690
  970BOLB   PO223270  33.195  16.340  33.290
  970BOLB   GL323271  32.875  16.160  33.550
  970BOLB   GL423272  33.045  15.840  33.580
  970BOLB   C1C23273  32.425  16.300  33.530
  970BOLB   C2C23274  32.095  16.240  33.230
  970BOLB   C3C23275  31.685  16.150  33.180
  970BOLB   C4C23276  31.425  15.900  33.470
  970BOLB   C1D23277  32.645  15.590  33.640
  970BOLB   C2D23278  32.245  15.350  33.700
  970BOLB   C3D23279  31.835  15.340  33.630
  970BOLB   C4D23280  31.375  15.360  33.420
  971BOLB   NC123281  25.760  25.800  36.040
  971BOLB   PO123282  25.380  25.850  35.750
  971BOLB   GL123283  25.260  25.520  35.650
  971BOLB   GL223284  25.240  25.510  35.340
  971BOLB   C1A23285  25.060  25.060  35.710
  971BOLB   C2A23286  24.940  24.640  35.960
  971BOLB   C3A23287  24.650  24.420  36.150
  971BOLB   C4A23288  24.320  24.600  36.170
  971BOLB   C1B23289  25.520  25.190  35.310
  971BOLB   C2B23290  25.750  24.810  35.480
  971BOLB   C3B23291  25.870  24.460  35.640
  971BOLB   C4B23292  26.020  23.970  35.550
  971BOLB   NC223293  26.320  25.220  36.300
  971BOLB   PO223294  26.060  25.430  36.010
  971BOLB   GL323295  25.580  25.360  36.040
  971BOLB   GL423296  25.570  25.170  35.800
  971BOLB   C1C23297  25.090  25.470  36.120
  971BOLB   C2C23298  24.690  25.620  35.910
  971BOLB   C3C23299  24.340  25.330  35.860
  971BOLB   C4C23300  24.070  24.930  36.060
  971BOLB   C1D23301  25.420  24.720  35.910
  971BOLB   C2D23302  25.390  24.380  35.820
  971BOLB   C3D23303  25.670  24.100  36.000
  971BOLB   C4D23304  26.050  23.990  36.210
  972BOLB   NC123305  10.750  14.050  33.120
  972BOLB   PO123306  11.010  13.710  33.190
  972BOLB   GL123307  11.410  13.670  33.190
  972BOLB   GL223308  11.330  13.280  33.220
  972BOLB   C1A23309  11.770  13.850  33.060
  972BOLB   C2A23310  12.140  13.970  32.900
  972BOLB   C3A23311  12.560  14.040  32.830
  972BOLB   C4A23312  12.910  14.200  33.150
  972BOLB   C1B23313  11.710  13.180  33.120
  972BOLB   C2B23314  12.020  13.330  33.030
  972BOLB   C3B23315  12.360  13.480  33.000
  972BOLB   C4B23316  12.730  13.740  33.140
  972BOLB   NC223317  11.570  12.520  34.820
  972BOLB   PO223318  11.490  12.720  34.510
  972BOLB   GL323319  11.850  12.950  34.460
  972BOLB   GL423320  11.740  13.250  34.420
  972BOLB   C1C23321  12.170  13.060  34.310
  972BOLB   C2C23322  12.410  13.340  34.140
  972BOLB   C3C23323  12.600  13.620  33.840
  972BOLB   C4C23324  12.860  13.920  33.590
  972BOLB   C1D23325  12.050  13.290  34.760
  972BOLB   C2D23326  12.580  13.190  34.580
  972BOLB   C3D23327  12.940  13.450  34.300
  972BOLB   C4D23328  13.340  13.750  34.460
  973BOLB   NC123329  24.100  17.830  43.030
  973BOLB   PO123330  23.780  18.200  43.080
  973BOLB   GL123331  23.960  18.170  43.460
  973BOLB   GL223332  24.070  17.960  43.600
  973BOLB   C1A23333  24.320  18.400  43.660
  973BOLB   C2A23334  24.620  18.360  43.800
  973BOLB   C3A23335  24.730  18.650  44.330
  973BOLB   C4A23336  24.730  18.750  44.760
  973BOLB   C1B23337  24.380  17.890  43.790
  973BOLB   C2B23338  24.650  17.940  44.070
  973BOLB   C3B23339  24.850  18.120  44.450
  973BOLB   C4B23340  25.140  18.460  44.660
  973BOLB   NC223341  25.520  18.470  47.290
  973BOLB   PO223342  25.330  18.870  46.990
  973BOLB   GL323343  25.140  18.560  46.690
  973BOLB   GL423344  25.400  18.520  46.600
  973BOLB   C1C23345  25.120  18.690  46.250
  973BOLB   C2C23346  25.330  18.800  45.850
  973BOLB   C3C23347  25.220  18.970  45.460
  973BOLB   C4C23348  24.970  19.040  45.090
  973BOLB   C1D23349  25.580  18.440  46.270
  973BOLB   C2D23350  25.540  18.310  45.940
  973BOLB   C3D23351  25.410  18.480  45.480
  973BOLB   C4D23352  25.320  18.670  45.130
  974BOLB   NC123353  28.855   9.530  30.340
  974BOLB   PO123354  28.755   9.850  30.180
  974BOLB   GL123355  29.055   9.800  29.940
  974BOLB   GL223356  29.075   9.480  29.790
  974BOLB   C1A23357  29.535   9.700  29.680
  974BOLB   C2A23358  29.945   9.900  29.820
  974BOLB   C3A23359  30.455   9.950  29.840
  974BOLB   C4A23360  30.805   9.720  29.650
  974BOLB   C1B23361  29.395   9.180  29.760
  974BOLB   C2B23362  29.495   8.810  29.610
  974BOLB   C3B23363  29.465   8.350  29.720
  974BOLB   C4B23364  29.675   7.930  29.570
  974BOLB   NC223365  32.885   8.080  28.890
  974BOLB   PO223366  32.375   8.100  28.940
  974BOLB   GL323367  32.095   8.480  29.040
  974BOLB   GL423368  32.175   8.850  29.250
  974BOLB   C1C23369  31.815   8.510  29.270
  974BOLB   C2C23370  31.525   8.830  29.400
  974BOLB   C3C23371  31.455   9.180  29.570
  974BOLB   C4C23372  31.205   9.550  29.500
  974BOLB   C1D23373  31.975   9.190  29.420
  974BOLB   C2D23374  31.925   9.250  29.880
  974BOLB   C3D23375  31.645   9.290  30.260
  974BOLB   C4D23376  31.635   9.010  30.650
  975BOLB   NC123377  24.270  16.040  43.060
  975BOLB   PO123378  24.580  16.100  42.720
  975BOLB   GL123379  24.720  16.140  43.140
  975BOLB   GL223380  25.090  16.230  43.280
  975BOLB   C1A23381  24.720  16.150  43.610
  975BOLB   C2A23382  25.060  16.040  43.890
  975BOLB   C3A23383  25.210  15.780  44.200
  975BOLB   C4A23384  25.280  15.340  44.440
  975BOLB   C1B23385  24.830  16.600  43.410
  975BOLB   C2B23386  24.750  16.630  43.800
  975BOLB   C3B23387  24.780  16.330  44.140
  975BOLB   C4B23388  24.930  16.170  44.470
  975BOLB   NC223389  25.430  14.710  42.500
  975BOLB   PO223390  25.240  14.410  42.700
  975BOLB   GL323391  25.490  14.490  43.010
  975BOLB   GL423392  25.500  14.970  42.940
  975BOLB   C1C23393  25.850  14.320  43.310
  975BOLB   C2C23394  25.940  14.550  43.640
  975BOLB   C3C23395  25.660  14.770  44.040
  975BOLB   C4C23396  25.420  15.000  44.370
  975BOLB   C1D23397  25.600  14.920  43.390
  975BOLB   C2D23398  26.030  15.050  43.660
  975BOLB   C3D23399  26.400  15.130  43.890
  975BOLB   C4D23400  26.655  14.980  44.140
  976BOLB   NC123401  29.265  12.020  34.580
  976BOLB   PO123402  29.525  12.180  34.320
  976BOLB   GL123403  29.945  12.220  34.150
  976BOLB   GL223404  30.165  12.540  34.110
  976BOLB   C1A23405  30.375  11.990  34.160
  976BOLB   C2A23406  30.655  11.760  34.060
  976BOLB   C3A23407  30.715  11.370  34.090
  976BOLB   C4A23408  31.085  11.180  34.120
  976BOLB   C1B23409  30.545  12.410  34.300
  976BOLB   C2B23410  30.875  12.190  34.470
  976BOLB   C3B23411  31.035  12.060  34.860
  976BOLB   C4B23412  30.995  11.610  35.030
  976BOLB   NC223413  33.645  10.860  34.260
  976BOLB   PO223414  33.625  10.910  34.690
  976BOLB   GL323415  33.155  10.750  34.560
  976BOLB   GL423416  32.965  10.420  34.350
  976BOLB   C1C23417  32.675  10.790  34.500
  976BOLB   C2C23418  32.295  10.780  34.640
  976BOLB   C3C23419  31.955  10.960  34.680
  976BOLB   C4C23420  31.495  11.050  34.310
  976BOLB   C1D23421  32.515  10.400  34.340
  976BOLB   C2D23422  32.125  10.240  34.180
  976BOLB   C3D23423  31.645  10.070  34.340
  976BOLB   C4D23424  31.385  10.170  34.640
  977BOLB   NC123425  18.060  21.220  46.140
  977BOLB   PO123426  18.410  21.500  45.960
  977BOLB   GL123427  18.640  21.460  45.440
  977BOLB   GL223428  18.560  21.650  45.470
  977BOLB   C1A23429  18.900  21.240  45.160
  977BOLB   C2A23430  19.080  21.110  44.980
  977BOLB   C3A23431  19.320  20.920  44.720
  977BOLB   C4A23432  19.670  20.750  44.690
  977BOLB   C1B23433  18.610  21.620  44.940
  977BOLB   C2B23434  18.920  21.440  44.650
  977BOLB   C3B23435  19.230  21.310  44.360
  977BOLB   C4B23436  19.500  21.160  44.070
  977BOLB   NC223437  20.630  18.620  43.520
  977BOLB   PO223438  20.790  19.060  43.460
  977BOLB   GL323439  20.450  19.030  43.730
  977BOLB   GL423440  20.400  18.770  43.910
  977BOLB   C1C23441  20.320  19.260  43.970
  977BOLB   C2C23442  20.330  19.710  44.060
  977BOLB   C3C23443  20.070  20.060  44.240
  977BOLB   C4C23444  19.810  20.350  44.370
  977BOLB   C1D23445  20.480  18.960  44.280
  977BOLB   C2D23446  20.450  19.010  44.640
  977BOLB   C3D23447  20.250  18.740  44.950
  977BOLB   C4D23448  19.950  18.440  45.250
  978BOLB   NC123449  15.190  17.130  25.670
  978BOLB   PO123450  14.960  17.460  25.630
  978BOLB   GL123451  14.600  17.300  25.290
  978BOLB   GL223452  14.340  17.460  25.370
  978BOLB   C1A23453  14.320  17.120  25.030
  978BOLB   C2A23454  14.010  16.930  24.780
  978BOLB   C3A23455  13.680  16.700  24.460
  978BOLB   C4A23456  13.560  16.360  24.130
  978BOLB   C1B23457  14.030  17.670  25.210
  978BOLB   C2B23458  13.540  17.680  25.100
  978BOLB   C3B23459  13.240  17.560  25.330
  978BOLB   C4B23460  13.090  17.260  25.130
  978BOLB   NC223461  12.230  14.520  22.230
  978BOLB   PO223462  12.600  14.920  22.110
  978BOLB   GL323463  12.880  15.200  22.330
  978BOLB   GL423464  13.160  15.160  22.370
  978BOLB   C1C23465  13.020  15.620  22.680
  978BOLB   C2C23466  13.140  15.770  23.080
  978BOLB   C3C23467  13.330  16.010  23.390
  978BOLB   C4C23468  13.230  16.220  23.790
  978BOLB   C1D23469  13.500  15.120  22.610
  978BOLB   C2D23470  13.930  15.020  22.790
  978BOLB   C3D23471  14.240  15.210  22.920
  978BOLB   C4D23472  14.430  15.390  23.330
  979BOLB   NC123473  21.770  23.090  28.350
  979BOLB   PO123474  22.220  22.970  28.110
  979BOLB   GL123475  22.370  23.360  27.990
  979BOLB   GL223476  22.640  23.590  28.220
  979BOLB   C1A23477  22.390  23.780  27.740
  979BOLB   C2A23478  22.450  24.260  27.600
  979BOLB   C3A23479  22.620  24.760  27.560
  979BOLB   C4A23480  22.670  25.210  27.630
  979BOLB   C1B23481  22.850  23.890  27.860
  979BOLB   C2B23482  22.930  24.240  27.630
  979BOLB   C3B23483  23.230  24.410  27.340
  979BOLB   C4B23484  23.440  24.660  27.160
  979BOLB   NC223485  22.750   1.030  27.620
  979BOLB   PO223486  23.030   0.910  27.980
  979BOLB   GL323487  22.910   0.470  28.040
  979BOLB   GL423488  23.060   0.140  27.950
  979BOLB   C1C23489  22.540   0.190  28.010
  979BOLB   C2C23490  22.400  26.230  27.930
  979BOLB   C3C23491  22.440  25.920  27.720
  979BOLB   C4C23492  22.690  25.550  27.730
  979BOLB   C1D23493  22.910  26.440  28.280
  979BOLB   C2D23494  22.580  26.130  28.430
  979BOLB   C3D23495  22.180  25.850  28.410
  979BOLB   C4D23496  21.960  25.500  28.770
  980BOLB   NC123497  29.505  12.580  31.530
  980BOLB   PO123498  29.785  12.970  31.510
  980BOLB   GL123499  30.185  12.980  31.390
  980BOLB   GL223500  30.345  13.270  31.310
  980BOLB   C1A23501  30.385  12.730  31.170
  980BOLB   C2A23502  30.815  12.700  30.980
  980BOLB   C3A23503  31.015  12.380  30.730
  980BOLB   C4A23504  31.415  12.310  30.530
  980BOLB   C1B23505  30.605  13.530  31.490
  980BOLB   C2B23506  30.965  13.650  31.770
  980BOLB   C3B23507  31.015  13.770  32.110
  980BOLB   C4B23508  31.075  13.950  32.380
  980BOLB   NC223509  33.235  11.170  29.720
  980BOLB   PO223510  33.005  11.500  29.790
  980BOLB   GL323511  32.835  11.570  29.980
  980BOLB   GL423512  32.655  11.930  29.810
  980BOLB   C1C23513  32.455  11.430  30.160
  980BOLB   C2C23514  31.985  11.530  30.170
  980BOLB   C3C23515  31.905  11.910  30.240
  980BOLB   C4C23516  31.705  12.200  30.320
  980BOLB   C1D23517  32.245  12.190  29.810
  980BOLB   C2D23518  31.805  12.200  29.770
  980BOLB   C3D23519  31.365  12.370  29.920
  980BOLB   C4D23520  31.045  12.470  30.200
  981BOLB   NC123521  27.255  21.880  22.820
  981BOLB   PO123522  27.135  21.570  22.440
  981BOLB   GL123523  26.945  21.430  22.800
  981BOLB   GL223524  27.205  21.340  23.030
  981BOLB   C1A23525  26.555  21.200  23.040
  981BOLB   C2A23526  26.260  20.960  23.220
  981BOLB   C3A23527  25.990  20.660  23.400
  981BOLB   C4A23528  26.160  20.430  23.840
  981BOLB   C1B23529  27.025  20.980  23.200
  981BOLB   C2B23530  26.685  20.690  23.190
  981BOLB   C3B23531  26.485  20.680  23.610
  981BOLB   C4B23532  26.695  20.930  23.960
  981BOLB   NC223533  27.695  22.420  24.400
  981BOLB   PO223534  27.725  22.060  24.100
  981BOLB   GL323535  27.335  21.940  24.120
  981BOLB   GL423536  27.025  22.100  24.130
  981BOLB   C1C23537  27.135  21.590  24.410
  981BOLB   C2C23538  26.815  21.230  24.410
  981BOLB   C3C23539  26.635  20.840  24.450
  981BOLB   C4C23540  26.400  20.610  24.190
  981BOLB   C1D23541  26.725  21.850  24.220
  981BOLB   C2D23542  26.370  21.640  24.380
  981BOLB   C3D23543  26.000  21.570  24.540
  981BOLB   C4D23544  25.860  21.190  24.800
  982BOLB   NC123545  16.920  13.260  19.050
  982BOLB   PO123546  16.690  13.200  19.450
  982BOLB   GL123547  16.800  13.350  19.880
  982BOLB   GL223548  16.680  13.190  20.130
  982BOLB   C1A23549  16.990  13.620  20.290
  982BOLB   C2A23550  17.050  14.050  20.410
  982BOLB   C3A23551  17.300  14.270  20.760
  982BOLB   C4A23552  17.260  14.760  20.780
  982BOLB   C1B23553  16.750  13.080  20.550
  982BOLB   C2B23554  16.920  13.060  20.940
  982BOLB   C3B23555  16.960  12.690  21.220
  982BOLB   C4B23556  17.050  12.840  21.650
  982BOLB   NC223557  16.060  14.570  19.360
  982BOLB   PO223558  16.270  14.810  19.080
  982BOLB   GL323559  16.380  15.170  19.220
  982BOLB   GL423560  16.660  15.080  19.250
  982BOLB   C1C23561  16.410  15.260  19.640
  982BOLB   C2C23562  16.630  15.290  20.000
  982BOLB   C3C23563  16.740  15.240  20.370
  982BOLB   C4C23564  16.900  15.120  20.810
  982BOLB   C1D23565  16.900  14.860  19.430
  982BOLB   C2D23566  17.050  14.420  19.410
  982BOLB   C3D23567  17.200  14.310  19.840
  982BOLB   C4D23568  17.320  14.470  20.230
  983BOLB   NC123569  14.050  18.340  36.830
  983BOLB   PO123570  14.060  18.770  36.860
  983BOLB   GL123571  13.650  18.640  36.860
  983BOLB   GL223572  13.360  18.920  36.700
  983BOLB   C1A23573  13.200  18.540  37.020
  983BOLB   C2A23574  12.710  18.490  36.880
  983BOLB   C3A23575  12.390  18.380  36.800
  983BOLB   C4A23576  12.000  18.390  36.470
  983BOLB   C1B23577  12.950  18.940  36.760
  983BOLB   C2B23578  12.540  18.960  36.800
  983BOLB   C3B23579  12.160  18.920  36.780
  983BOLB   C4B23580  11.970  18.500  36.960
  983BOLB   NC223581   9.620  17.700  36.280
  983BOLB   PO223582   9.890  17.430  35.980
  983BOLB   GL323583  10.280  17.220  36.180
  983BOLB   GL423584  10.480  17.180  35.980
  983BOLB   C1C23585  10.570  17.430  36.480
  983BOLB   C2C23586  10.860  17.820  36.450
  983BOLB   C3C23587  11.190  18.140  36.360
  983BOLB   C4C23588  11.600  18.390  36.310
  983BOLB   C1D23589  10.760  17.310  35.730
  983BOLB   C2D23590  10.930  17.650  35.520
  983BOLB   C3D23591  11.160  17.530  35.080
  983BOLB   C4D23592  11.450  17.280  34.870
  984BOLB   NC123593  17.530  21.540  17.450
  984BOLB   PO123594  17.570  21.280  17.870
  984BOLB   GL123595  17.650  21.100  18.320
  984BOLB   GL223596  17.980  21.040  18.300
  984BOLB   C1A23597  17.580  21.180  18.710
  984BOLB   C2A23598  17.700  20.880  19.060
  984BOLB   C3A23599  17.810  20.440  19.020
  984BOLB   C4A23600  18.200  20.220  19.010
  984BOLB   C1B23601  18.140  20.740  18.490
  984BOLB   C2B23602  18.240  20.710  18.950
  984BOLB   C3B23603  18.320  20.770  19.400
  984BOLB   C4B23604  18.510  20.610  19.840
  984BOLB   NC223605  19.520  20.290  17.280
  984BOLB   PO223606  19.510  19.940  17.130
  984BOLB   GL323607  19.400  19.980  17.650
  984BOLB   GL423608  19.610  20.150  17.760
  984BOLB   C1C23609  19.270  19.980  18.030
  984BOLB   C2C23610  19.060  20.240  18.430
  984BOLB   C3C23611  19.020  20.280  18.810
  984BOLB   C4C23612  18.560  20.320  18.910
  984BOLB   C1D23613  19.570  20.330  18.180
  984BOLB   C2D23614  19.510  20.340  18.720
  984BOLB   C3D23615  19.710  20.490  19.060
  984BOLB   C4D23616  19.700  20.740  19.440
  985BOLB   NC123617  17.650  18.970  21.690
  985BOLB   PO123618  18.030  19.090  21.300
  985BOLB   GL123619  18.220  19.010  20.980
  985BOLB   GL223620  18.110  19.310  20.800
  985BOLB   C1A23621  18.270  18.710  20.600
  985BOLB   C2A23622  18.110  18.600  20.220
  985BOLB   C3A23623  18.160  18.740  19.850
  985BOLB   C4A23624  18.320  19.040  19.680
  985BOLB   C1B23625  17.850  19.410  20.360
  985BOLB   C2B23626  17.960  19.730  20.050
  985BOLB   C3B23627  17.930  20.110  19.690
  985BOLB   C4B23628  17.890  20.600  19.470
  985BOLB   NC223629  19.850  19.850  21.670
  985BOLB   PO223630  19.410  19.600  21.470
  985BOLB   GL323631  19.310  19.820  21.120
  985BOLB   GL423632  18.980  19.950  20.900
  985BOLB   C1C23633  19.420  19.610  20.670
  985BOLB   C2C23634  19.200  19.630  20.350
  985BOLB   C3C23635  18.820  19.570  20.070
  985BOLB   C4C23636  18.600  19.320  19.780
  985BOLB   C1D23637  19.190  20.100  20.560
  985BOLB   C2D23638  19.520  19.960  20.230
  985BOLB   C3D23639  19.770  20.170  20.230
  985BOLB   C4D23640  20.000  20.540  20.320
  986BOLB   NC123641  16.680  13.730  37.010
  986BOLB   PO123642  16.660  13.300  37.200
  986BOLB   GL123643  16.300  13.040  37.290
  986BOLB   GL223644  16.260  13.000  37.690
  986BOLB   C1A23645  15.940  12.690  37.240
  986BOLB   C2A23646  15.640  12.430  37.360
  986BOLB   C3A23647  15.590  11.990  37.560
  986BOLB   C4A23648  15.310  11.650  37.840
  986BOLB   C1B23649  16.010  12.560  37.710
  986BOLB   C2B23650  15.700  12.340  37.830
  986BOLB   C3B23651  15.690  11.960  38.050
  986BOLB   C4B23652  15.280  11.940  38.220
  986BOLB   NC223653  13.950  10.080  39.330
  986BOLB   PO223654  13.580  10.300  39.610
  986BOLB   GL323655  13.780  10.550  39.220
  986BOLB   GL423656  13.690  10.810  39.120
  986BOLB   C1C23657  14.070  10.580  38.830
  986BOLB   C2C23658  14.260  10.960  38.700
  986BOLB   C3C23659  14.630  11.250  38.390
  986BOLB   C4C23660  15.020  11.390  38.160
  986BOLB   C1D23661  14.070  11.000  39.200
  986BOLB   C2D23662  14.420  10.960  39.180
  986BOLB   C3D23663  14.740  11.080  38.840
  986BOLB   C4D23664  15.050  11.350  38.660
  987BOLB   NC123665  17.410  23.640  26.800
  987BOLB   PO123666  17.620  24.070  26.830
  987BOLB   GL123667  17.660  24.630  26.740
  987BOLB   GL223668  18.000  24.690  26.600
  987BOLB   C1A23669  17.540  25.090  26.800
  987BOLB   C2A23670  17.790  25.420  26.710
  987BOLB   C3A23671  17.780  25.840  26.610
  987BOLB   C4A23672  17.850  26.130  26.990
  987BOLB   C1B23673  17.770  25.080  26.300
  987BOLB   C2B23674  17.730  25.120  25.840
  987BOLB   C3B23675  18.060  25.290  25.630
  987BOLB   C4B23676  18.340  25.640  25.430
  987BOLB   NC223677  18.020   1.810  27.030
  987BOLB   PO223678  17.750   1.760  27.420
  987BOLB   GL323679  18.090   1.520  27.560
  987BOLB   GL423680  18.440   1.450  27.710
  987BOLB   C1C23681  18.050   1.100  27.790
  987BOLB   C2C23682  18.050   0.670  27.740
  987BOLB   C3C23683  17.950   0.260  27.560
  987BOLB   C4C23684  17.870  26.260  27.360
  987BOLB   C1D23685  18.660   0.980  27.690
  987BOLB   C2D23686  18.560   0.490  27.740
  987BOLB   C3D23687  18.580   0.060  27.790
  987BOLB   C4D23688  18.530  26.290  28.120
  988BOLB   NC123689  14.400  15.270  43.510
  988BOLB   PO123690  14.370  14.990  43.180
  988BOLB   GL123691  14.570  15.150  42.870
  988BOLB   GL223692  14.640  15.400  42.980
  988BOLB   C1A23693  14.800  15.380  42.450
  988BOLB   C2A23694  14.940  15.580  42.070
  988BOLB   C3A23695  15.030  15.780  41.690
  988BOLB   C4A23696  14.740  15.950  41.350
  988BOLB   C1B23697  15.080  15.600  43.160
  988BOLB   C2B23698  15.490  15.560  42.890
  988BOLB   C3B23699  15.730  15.320  42.680
  988BOLB   C4B23700  15.970  14.950  42.780
  988BOLB   NC223701  12.730  16.530  42.220
  988BOLB   PO223702  12.710  16.180  41.890
  988BOLB   GL323703  13.120  15.980  41.700
  988BOLB   GL423704  13.300  15.820  41.990
  988BOLB   C1C23705  13.480  15.920  41.460
  988BOLB   C2C23706  13.850  16.060  41.180
  988BOLB   C3C23707  14.220  16.230  41.180
  988BOLB   C4C23708  14.410  16.080  41.510
  988BOLB   C1D23709  13.740  15.950  41.950
  988BOLB   C2D23710  14.200  16.010  41.980
  988BOLB   C3D23711  14.350  16.250  42.350
  988BOLB   C4D23712  14.020  16.450  42.650
  989BOLB   NC123713  26.845   7.910  34.880
  989BOLB   PO123714  27.235   7.850  34.700
  989BOLB   GL123715  27.265   7.410  34.680
  989BOLB   GL223716  27.085   7.530  34.360
  989BOLB   C1A23717  27.155   6.930  34.710
  989BOLB   C2A23718  27.065   6.620  35.010
  989BOLB   C3A23719  27.335   6.270  35.000
  989BOLB   C4A23720  27.525   5.830  34.880
  989BOLB   C1B23721  27.535   7.380  34.260
  989BOLB   C2B23722  27.685   7.100  33.950
  989BOLB   C3B23723  27.335   6.830  33.740
  989BOLB   C4B23724  26.885   6.750  33.750
  989BOLB   NC223725  28.645   4.360  36.360
  989BOLB   PO223726  28.315   4.060  36.220
  989BOLB   GL323727  28.115   4.280  35.980
  989BOLB   GL423728  28.315   4.510  35.660
  989BOLB   C1C23729  27.835   4.500  35.670
  989BOLB   C2C23730  27.725   4.880  35.560
  989BOLB   C3C23731  27.725   5.310  35.470
  989BOLB   C4C23732  27.655   5.720  35.320
  989BOLB   C1D23733  28.095   4.820  35.900
  989BOLB   C2D23734  27.955   5.280  35.890
  989BOLB   C3D23735  27.865   5.680  35.830
  989BOLB   C4D23736  27.855   6.030  35.660
  990BOLB   NC123737  13.490  20.280  33.880
  990BOLB   PO123738  13.330  20.140  33.570
  990BOLB   GL123739  12.960  20.250  33.780
  990BOLB   GL223740  12.940  20.620  33.760
  990BOLB   C1A23741  12.500  20.380  33.760
  990BOLB   C2A23742  12.210  20.230  33.970
  990BOLB   C3A23743  11.930  20.240  34.180
  990BOLB   C4A23744  11.560  20.510  34.170
  990BOLB   C1B23745  12.690  20.790  34.020
  990BOLB   C2B23746  12.450  21.060  34.240
  990BOLB   C3B23747  12.620  21.240  34.600
  990BOLB   C4B23748  12.480  21.490  34.960
  990BOLB   NC223749   8.830  21.050  34.650
  990BOLB   PO223750   9.160  20.820  34.620
  990BOLB   GL323751   9.560  20.820  34.340
  990BOLB   GL423752   9.730  20.730  34.600
  990BOLB   C1C23753   9.980  20.980  34.230
  990BOLB   C2C23754  10.420  20.940  34.180
  990BOLB   C3C23755  10.890  20.910  34.200
  990BOLB   C4C23756  11.220  20.600  34.040
  990BOLB   C1D23757  10.240  20.820  34.650
  990BOLB   C2D23758  10.540  20.710  34.770
  990BOLB   C3D23759  10.960  20.830  34.800
  990BOLB   C4D23760  11.290  20.880  34.500
  991BOLB   NC123761  20.410  23.040  38.950
  991BOLB   PO123762  20.790  23.150  38.660
  991BOLB   GL123763  21.020  23.470  38.860
  991BOLB   GL223764  20.810  23.300  39.170
  991BOLB   C1A23765  20.860  23.880  39.110
  991BOLB   C2A23766  20.680  24.270  39.050
  991BOLB   C3A23767  20.510  24.560  39.280
  991BOLB   C4A23768  20.520  24.990  39.290
  991BOLB   C1B23769  20.830  23.470  39.540
  991BOLB   C2B23770  20.900  23.820  39.620
  991BOLB   C3B23771  21.040  24.230  39.390
  991BOLB   C4B23772  21.440  24.450  39.240
  991BOLB   NC223773  20.180   0.560  40.400
  991BOLB   PO223774  19.980   0.770  40.020
  991BOLB   GL323775  19.980   0.340  40.010
  991BOLB   GL423776  19.800   0.340  39.650
  991BOLB   C1C23777  20.070  26.400  39.920
  991BOLB   C2C23778  20.200  26.200  39.580
  991BOLB   C3C23779  20.250  25.850  39.190
  991BOLB   C4C23780  20.370  25.390  39.260
  991BOLB   C1D23781  19.710  26.440  39.430
  991BOLB   C2D23782  19.930  26.280  39.150
  991BOLB   C3D23783  20.370  26.240  38.880
  991BOLB   C4D23784  20.710  26.440  38.990
  992BOLB   NC123785  26.330  23.080  23.910
  992BOLB   PO123786  26.485  23.130  24.270
  992BOLB   GL123787  26.270  22.930  24.570
  992BOLB   GL223788  26.040  22.750  24.360
  992BOLB   C1A23789  25.890  22.770  24.900
  992BOLB   C2A23790  25.690  22.570  25.180
  992BOLB   C3A23791  25.330  22.380  25.380
  992BOLB   C4A23792  25.310  22.410  25.790
  992BOLB   C1B23793  26.200  22.370  24.690
  992BOLB   C2B23794  26.240  22.220  25.110
  992BOLB   C3B23795  26.220  21.980  25.420
  992BOLB   C4B23796  26.060  22.000  25.830
  992BOLB   NC223797  27.795  22.890  26.200
  992BOLB   PO223798  27.455  22.800  26.570
  992BOLB   GL323799  27.045  22.610  26.840
  992BOLB   GL423800  27.005  22.250  26.830
  992BOLB   C1C23801  26.655  22.480  26.570
  992BOLB   C2C23802  26.445  22.740  26.320
  992BOLB   C3C23803  25.990  22.620  26.150
  992BOLB   C4C23804  25.640  22.340  26.050
  992BOLB   C1D23805  26.575  22.020  26.610
  992BOLB   C2D23806  26.180  21.670  26.550
  992BOLB   C3D23807  26.080  21.270  26.730
  992BOLB   C4D23808  25.770  21.130  26.460
  993BOLB   NC123809  16.060   2.010  28.810
  993BOLB   PO123810  15.680   1.880  29.070
  993BOLB   GL123811  15.600   1.460  28.950
  993BOLB   GL223812  15.420   1.270  29.260
  993BOLB   C1A23813  15.820   1.060  29.030
  993BOLB   C2A23814  15.820   0.660  29.080
  993BOLB   C3A23815  16.150   0.420  29.080
  993BOLB   C4A23816  16.430   0.090  29.250
  993BOLB   C1B23817  15.480   0.730  29.460
  993BOLB   C2B23818  15.540   0.280  29.410
  993BOLB   C3B23819  15.730  26.410  29.600
  993BOLB   C4B23820  16.050  26.250  29.770
  993BOLB   NC223821  16.420  24.120  30.140
  993BOLB   PO223822  16.750  24.050  30.020
  993BOLB   GL323823  16.690  24.510  30.020
  993BOLB   GL423824  16.650  24.670  30.300
  993BOLB   C1C23825  16.580  24.910  29.860
  993BOLB   C2C23826  16.560  25.400  29.850
  993BOLB   C3C23827  16.560  25.850  29.920
  993BOLB   C4C23828  16.530  26.230  29.590
  993BOLB   C1D23829  16.220  24.840  30.290
  993BOLB   C2D23830  15.920  25.290  30.300
  993BOLB   C3D23831  15.810  25.550  30.710
  993BOLB   C4D23832  16.030  25.380  31.070
  994BOLB   NC123833  19.090  17.120  21.960
  994BOLB   PO123834  18.830  16.820  22.210
  994BOLB   GL123835  18.640  16.850  21.870
  994BOLB   GL223836  18.400  16.670  21.720
  994BOLB   C1A23837  18.810  16.710  21.400
  994BOLB   C2A23838  18.660  16.720  20.940
  994BOLB   C3A23839  18.460  16.500  20.650
  994BOLB   C4A23840  18.330  16.190  20.360
  994BOLB   C1B23841  18.270  16.610  21.360
  994BOLB   C2B23842  18.010  16.570  20.950
  994BOLB   C3B23843  17.880  16.490  20.620
  994BOLB   C4B23844  17.980  16.550  20.230
  994BOLB   NC223845  18.230  15.370  17.800
  994BOLB   PO223846  18.340  15.080  18.110
  994BOLB   GL323847  18.510  15.240  18.440
  994BOLB   GL423848  18.910  15.230  18.370
  994BOLB   C1C23849  18.400  15.310  18.880
  994BOLB   C2C23850  18.210  15.400  19.340
  994BOLB   C3C23851  18.280  15.800  19.610
  994BOLB   C4C23852  18.290  15.960  19.950
  994BOLB   C1D23853  18.840  15.190  18.880
  994BOLB   C2D23854  18.950  15.180  19.280
  994BOLB   C3D23855  18.820  15.220  19.690
  994BOLB   C4D23856  18.630  15.500  19.940
  995BOLB   NC123857  18.370   5.420  29.940
  995BOLB   PO123858  18.820   5.420  30.150
  995BOLB   GL123859  19.010   5.780  30.170
  995BOLB   GL223860  19.010   5.990  30.520
  995BOLB   C1A23861  18.960   6.210  30.010
  995BOLB   C2A23862  19.120   6.490  29.680
  995BOLB   C3A23863  19.260   6.920  29.670
  995BOLB   C4A23864  19.320   7.390  29.690
  995BOLB   C1B23865  19.220   6.420  30.430
  995BOLB   C2B23866  19.470   6.340  30.040
  995BOLB   C3B23867  19.650   6.600  29.670
  995BOLB   C4B23868  19.680   7.160  29.490
  995BOLB   NC223869  19.870   9.840  29.590
  995BOLB   PO223870  20.120   9.480  29.680
  995BOLB   GL323871  19.890   9.130  29.740
  995BOLB   GL423872  20.010   8.820  29.570
  995BOLB   C1C23873  19.560   8.900  29.710
  995BOLB   C2C23874  19.600   8.510  29.650
  995BOLB   C3C23875  19.590   8.140  29.680
  995BOLB   C4C23876  19.370   7.810  29.760
  995BOLB   C1D23877  20.090   8.350  29.520
  995BOLB   C2D23878  20.050   7.920  29.730
  995BOLB   C3D23879  19.820   7.630  29.660
  995BOLB   C4D23880  19.730   7.480  30.010
  996BOLB   NC123881  15.680  14.460  32.880
  996BOLB   PO123882  15.460  14.440  32.530
  996BOLB   GL123883  15.060  14.290  32.430
  996BOLB   GL223884  14.740  14.540  32.390
  996BOLB   C1A23885  14.850  14.010  32.240
  996BOLB   C2A23886  14.510  13.730  32.190
  996BOLB   C3A23887  14.230  13.380  32.150
  996BOLB   C4A23888  13.910  13.170  32.250
  996BOLB   C1B23889  14.350  14.220  32.390
  996BOLB   C2B23890  14.070  14.010  32.330
  996BOLB   C3B23891  13.900  13.680  31.970
  996BOLB   C4B23892  13.630  13.280  31.930
  996BOLB   NC223893  11.090  12.490  32.820
  996BOLB   PO223894  11.490  12.400  32.460
  996BOLB   GL323895  11.910  12.410  32.560
  996BOLB   GL423896  11.890  12.090  32.470
  996BOLB   C1C23897  12.230  12.580  32.430
  996BOLB   C2C23898  12.630  12.770  32.520
  996BOLB   C3C23899  13.000  12.980  32.500
  996BOLB   C4C23900  13.430  13.110  32.400
  996BOLB   C1D23901  12.300  12.070  32.470
  996BOLB   C2D23902  12.630  12.190  32.540
  996BOLB   C3D23903  13.100  12.450  32.510
  996BOLB   C4D23904  13.450  12.610  32.300
  997BOLB   NC123905  30.505  21.840  37.690
  997BOLB   PO123906  30.025  21.710  37.720
  997BOLB   GL123907  29.735  21.430  37.450
  997BOLB   GL223908  29.705  21.120  37.620
  997BOLB   C1A23909  29.305  21.170  37.500
  997BOLB   C2A23910  28.965  20.920  37.430
  997BOLB   C3A23911  28.745  20.910  37.060
  997BOLB   C4A23912  28.315  21.040  37.050
  997BOLB   C1B23913  29.385  21.030  37.960
  997BOLB   C2B23914  29.085  20.710  37.870
  997BOLB   C3B23915  28.945  20.420  37.530
  997BOLB   C4B23916  28.745  20.430  37.180
  997BOLB   NC223917  28.905  23.100  38.010
  997BOLB   PO223918  28.535  23.110  37.820
  997BOLB   GL323919  28.425  22.720  37.650
  997BOLB   GL423920  28.115  22.690  37.450
  997BOLB   C1C23921  28.245  22.380  37.820
  997BOLB   C2C23922  28.155  22.030  37.740
  997BOLB   C3C23923  28.065  21.740  37.420
  997BOLB   C4C23924  28.155  21.400  37.160
  997BOLB   C1D23925  27.755  22.430  37.670
  997BOLB   C2D23926  27.495  22.100  37.870
  997BOLB   C3D23927  27.335  22.220  38.300
  997BOLB   C4D23928  27.195  22.300  38.650
  998BOLB   NC123929  20.220  24.120  29.970
  998BOLB   PO123930  19.880  24.160  29.650
  998BOLB   GL123931  19.840  24.690  29.770
  998BOLB   GL223932  19.940  24.680  30.030
  998BOLB   C1A23933  19.950  25.000  29.550
  998BOLB   C2A23934  19.940  25.310  29.270
  998BOLB   C3A23935  20.050  25.710  29.230
  998BOLB   C4A23936  19.920  26.090  29.350
  998BOLB   C1B23937  20.290  24.900  29.860
  998BOLB   C2B23938  20.670  25.230  29.940
  998BOLB   C3B23939  20.720  25.670  29.930
  998BOLB   C4B23940  20.460  25.970  30.170
  998BOLB   NC223941  21.010   1.210  27.780
  998BOLB   PO223942  21.410   1.150  28.030
  998BOLB   GL323943  21.060   0.880  28.150
  998BOLB   GL423944  21.240   0.680  28.110
  998BOLB   C1C23945  20.680   0.720  28.330
  998BOLB   C2C23946  20.530   0.550  28.740
  998BOLB   C3C23947  20.240   0.270  29.020
  998BOLB   C4C23948  19.890   0.080  29.170
  998BOLB   C1D23949  21.120   0.510  28.540
  998BOLB   C2D23950  21.010   0.550  28.870
  998BOLB   C3D23951  20.760   0.440  29.140
  998BOLB   C4D23952  20.740   0.380  29.650
  999BOLB   NC123953  14.340   1.430  34.040
  999BOLB   PO123954  13.930   1.180  34.110
  999BOLB   GL123955  14.260   0.950  34.180
  999BOLB   GL223956  14.540   0.930  33.950
  999BOLB   C1A23957  14.560   0.470  34.300
  999BOLB   C2A23958  14.990   0.580  34.410
  999BOLB   C3A23959  15.340   0.920  34.540
  999BOLB   C4A23960  15.760   1.010  34.640
  999BOLB   C1B23961  14.760   0.950  33.570
  999BOLB   C2B23962  15.140   0.760  33.430
  999BOLB   C3B23963  15.590   0.740  33.580
  999BOLB   C4B23964  15.940   0.580  33.810
  999BOLB   NC223965  15.610   2.760  33.190
  999BOLB   PO223966  15.970   2.660  33.400
  999BOLB   GL323967  16.210   2.220  33.460
  999BOLB   GL423968  16.480   2.200  33.250
  999BOLB   C1C23969  16.560   1.800  33.530
  999BOLB   C2C23970  16.530   1.430  33.770
  999BOLB   C3C23971  16.240   1.330  34.070
  999BOLB   C4C23972  16.100   0.990  34.300
  999BOLB   C1D23973  16.760   1.870  33.100
  999BOLB   C2D23974  16.810   1.440  32.930
  999BOLB   C3D23975  16.950   1.250  32.580
  999BOLB   C4D23976  17.180   0.880  32.360
 1000BOLB   NC123977  29.965  12.300  32.090
 1000BOLB   PO123978  29.985  12.510  31.730
 1000BOLB   GL123979  30.335  12.730  31.950
 1000BOLB   GL223980  30.485  12.840  31.730
 1000BOLB   C1A23981  30.665  12.830  32.250
 1000BOLB   C2A23982  31.075  12.930  32.360
 1000BOLB   C3A23983  31.555  12.910  32.350
 1000BOLB   C4A23984  31.845  12.960  32.080
 1000BOLB   C1B23985  30.975  12.960  31.750
 1000BOLB   C2B23986  31.415  13.030  31.730
 1000BOLB   C3B23987  31.805  13.030  31.450
 1000BOLB   C4B23988  31.895  13.100  31.010
 1000BOLB   NC223989  34.145  12.240  30.930
 1000BOLB   PO223990  33.835  12.400  31.170
 1000BOLB   GL323991  33.495  12.620  31.330
 1000BOLB   GL423992  33.385  12.640  31.620
 1000BOLB   C1C23993  33.015  12.630  31.180
 1000BOLB   C2C23994  32.575  12.510  31.210
 1000BOLB   C3C23995  32.145  12.510  31.440
 1000BOLB   C4C23996  32.125  12.790  31.840
 1000BOLB   C1D23997  32.965  12.550  31.810
 1000BOLB   C2D23998  32.675  12.490  32.070
 1000BOLB   C3D23999  32.295  12.430  32.370
 1000BOLB   C4D24000  32.025  12.720  32.470
 1001BOLB   NC124001  19.790  23.980  27.080
 1001BOLB   PO124002  19.990  23.650  27.040
 1001BOLB   GL124003  20.290  23.960  27.050
 1001BOLB   GL224004  20.360  24.060  27.350
 1001BOLB   C1A24005  20.710  24.030  26.900
 1001BOLB   C2A24006  20.950  24.280  26.600
 1001BOLB   C3A24007  21.020  24.470  26.230
 1001BOLB   C4A24008  21.390  24.430  25.940
 1001BOLB   C1B24009  20.320  24.440  27.130
 1001BOLB   C2B24010  20.190  24.800  26.970
 1001BOLB   C3B24011  19.860  24.630  26.640
 1001BOLB   C4B24012  19.700  24.770  26.280
 1001BOLB   NC224013  22.810  26.100  25.670
 1001BOLB   PO224014  23.120  25.670  25.660
 1001BOLB   GL324015  23.090  25.260  25.430
 1001BOLB   GL424016  22.880  25.340  25.300
 1001BOLB   C1C24017  22.980  24.850  25.490
 1001BOLB   C2C24018  22.630  24.660  25.750
 1001BOLB   C3C24019  22.230  24.550  25.700
 1001BOLB   C4C24020  21.740  24.500  25.670
 1001BOLB   C1D24021  22.530  25.030  25.310
 1001BOLB   C2D24022  22.210  24.890  25.350
 1001BOLB   C3D24023  22.080  24.500  25.250
 1001BOLB   C4D24024  21.880  24.320  24.900
 1002BOLB   NC124025  17.860   1.530  38.140
 1002BOLB   PO124026  17.540   1.290  38.260
 1002BOLB   GL124027  17.770   1.050  38.180
 1002BOLB   GL224028  18.110   1.080  38.150
 1002BOLB   C1A24029  17.630   0.800  37.850
 1002BOLB   C2A24030  17.740   0.500  37.500
 1002BOLB   C3A24031  17.860  26.445  37.370
 1002BOLB   C4A24032  18.010  26.170  37.010
 1002BOLB   C1B24033  18.260   0.780  37.820
 1002BOLB   C2B24034  18.410   0.500  37.540
 1002BOLB   C3B24035  18.490   0.300  37.280
 1002BOLB   C4B24036  18.740   0.280  36.990
 1002BOLB   NC224037  17.290  24.740  35.350
 1002BOLB   PO224038  17.210  24.460  35.680
 1002BOLB   GL324039  17.120  24.860  35.790
 1002BOLB   GL424040  16.820  24.850  35.860
 1002BOLB   C1C24041  17.470  25.180  35.870
 1002BOLB   C2C24042  17.510  25.460  36.130
 1002BOLB   C3C24043  17.640  25.670  36.500
 1002BOLB   C4C24044  17.790  25.930  36.830
 1002BOLB   C1D24045  16.990  25.350  35.850
 1002BOLB   C2D24046  17.020  25.700  36.010
 1002BOLB   C3D24047  16.860  26.110  35.890
 1002BOLB   C4D24048  16.420  26.290  35.870
 1003BOLB   NC124049  14.730  17.060  29.930
 1003BOLB   PO124050  14.580  16.690  29.620
 1003BOLB   GL124051  14.110  16.560  29.670
 1003BOLB   GL224052  14.030  16.250  29.640
 1003BOLB   C1A24053  13.710  16.660  29.560
 1003BOLB   C2A24054  13.380  16.920  29.630
 1003BOLB   C3A24055  12.980  16.780  29.720
 1003BOLB   C4A24056  12.590  16.730  29.810
 1003BOLB   C1B24057  13.600  16.160  29.440
 1003BOLB   C2B24058  13.500  15.740  29.400
 1003BOLB   C3B24059  13.190  15.590  29.120
 1003BOLB   C4B24060  12.830  15.390  28.980
 1003BOLB   NC224061  10.100  16.060  29.640
 1003BOLB   PO224062  10.290  15.820  29.290
 1003BOLB   GL324063  10.610  16.040  29.520
 1003BOLB   GL424064  10.800  16.290  29.200
 1003BOLB   C1C24065  11.050  16.030  29.560
 1003BOLB   C2C24066  11.490  16.080  29.600
 1003BOLB   C3C24067  11.910  16.300  29.560
 1003BOLB   C4C24068  12.140  16.710  29.640
 1003BOLB   C1D24069  11.120  16.050  29.010
 1003BOLB   C2D24070  11.590  15.960  29.060
 1003BOLB   C3D24071  12.030  16.000  29.180
 1003BOLB   C4D24072  12.390  15.910  29.440
 1004BOLB   NC124073  25.050  15.830  42.900
 1004BOLB   PO124074  25.180  16.180  42.720
 1004BOLB   GL124075  25.580  16.220  42.850
 1004BOLB   GL224076  25.850  16.420  42.790
 1004BOLB   C1A24077  25.670  16.360  43.280
 1004BOLB   C2A24078  25.860  16.470  43.720
 1004BOLB   C3A24079  25.630  16.750  44.070
 1004BOLB   C4A24080  25.400  16.860  44.510
 1004BOLB   C1B24081  26.010  16.080  43.090
 1004BOLB   C2B24082  26.040  16.040  43.460
 1004BOLB   C3B24083  26.190  16.050  43.900
 1004BOLB   C4B24084  26.410  16.050  44.120
 1004BOLB   NC224085  23.760  17.360  42.420
 1004BOLB   PO224086  23.980  17.350  42.920
 1004BOLB   GL324087  24.070  17.390  43.370
 1004BOLB   GL424088  24.010  17.430  43.660
 1004BOLB   C1C24089  24.470  17.410  43.650
 1004BOLB   C2C24090  24.700  17.460  44.080
 1004BOLB   C3C24091  24.980  17.470  44.360
 1004BOLB   C4C24092  25.220  17.220  44.540
 1004BOLB   C1D24093  24.160  17.500  44.030
 1004BOLB   C2D24094  24.280  17.670  44.480
 1004BOLB   C3D24095  24.400  17.340  44.710
 1004BOLB   C4D24096  24.320  17.000  45.020
 1005BOLB   NC124097  15.080  14.790  35.400
 1005BOLB   PO124098  14.900  15.020  35.070
 1005BOLB   GL124099  14.620  14.680  35.110
 1005BOLB   GL224100  14.640  14.580  35.410
 1005BOLB   C1A24101  14.320  14.280  35.220
 1005BOLB   C2A24102  13.880  14.140  35.410
 1005BOLB   C3A24103  13.620  14.360  35.710
 1005BOLB   C4A24104  13.240  14.470  35.780
 1005BOLB   C1B24105  14.300  14.370  35.670
 1005BOLB   C2B24106  13.960  14.090  35.940
 1005BOLB   C3B24107  13.650  13.800  35.920
 1005BOLB   C4B24108  13.190  13.880  35.950
 1005BOLB   NC224109  11.170  13.310  36.310
 1005BOLB   PO224110  11.080  13.570  35.870
 1005BOLB   GL324111  11.530  13.640  35.840
 1005BOLB   GL424112  11.550  13.820  36.140
 1005BOLB   C1C24113  11.760  14.010  35.730
 1005BOLB   C2C24114  11.990  14.420  35.800
 1005BOLB   C3C24115  12.520  14.530  35.680
 1005BOLB   C4C24116  12.850  14.390  35.560
 1005BOLB   C1D24117  12.070  13.940  36.120
 1005BOLB   C2D24118  12.290  14.220  36.310
 1005BOLB   C3D24119  12.600  14.470  36.180
 1005BOLB   C4D24120  13.050  14.680  36.240
 1006BOLB   NC124121  27.665  16.070  26.710
 1006BOLB   PO124122  27.485  15.960  26.310
 1006BOLB   GL124123  27.875  15.940  26.210
 1006BOLB   GL224124  28.025  16.100  26.390
 1006BOLB   C1A24125  28.085  15.870  25.840
 1006BOLB   C2A24126  28.585  15.820  25.870
 1006BOLB   C3A24127  28.865  15.890  26.100
 1006BOLB   C4A24128  29.235  16.070  26.310
 1006BOLB   C1B24129  28.405  16.110  26.170
 1006BOLB   C2B24130  28.715  16.370  26.030
 1006BOLB   C3B24131  29.075  16.380  25.950
 1006BOLB   C4B24132  29.385  16.530  25.610
 1006BOLB   NC224133  31.615  17.380  25.720
 1006BOLB   PO224134  31.315  17.150  25.950
 1006BOLB   GL324135  30.985  16.940  26.120
 1006BOLB   GL424136  31.025  16.850  26.430
 1006BOLB   C1C24137  30.585  16.830  26.170
 1006BOLB   C2C24138  30.245  16.830  26.310
 1006BOLB   C3C24139  29.965  16.550  26.340
 1006BOLB   C4C24140  29.745  16.160  26.350
 1006BOLB   C1D24141  31.025  16.530  26.770
 1006BOLB   C2D24142  30.695  16.250  27.030
 1006BOLB   C3D24143  30.455  16.010  27.290
 1006BOLB   C4D24144  30.395  15.500  27.380
 1007BOLB   NC124145  23.340  23.150  20.610
 1007BOLB   PO124146  23.490  22.900  20.280
 1007BOLB   GL124147  23.100  22.650  20.410
 1007BOLB   GL224148  22.970  22.340  20.190
 1007BOLB   C1A24149  22.850  22.380  20.730
 1007BOLB   C2A24150  22.570  22.100  20.890
 1007BOLB   C3A24151  22.610  21.640  21.020
 1007BOLB   C4A24152  22.780  21.390  21.420
 1007BOLB   C1B24153  22.840  21.950  19.970
 1007BOLB   C2B24154  22.510  21.710  19.940
 1007BOLB   C3B24155  22.440  21.360  20.060
 1007BOLB   C4B24156  22.660  20.980  20.150
 1007BOLB   NC224157  24.230  23.140  21.020
 1007BOLB   PO224158  24.080  23.060  20.680
 1007BOLB   GL324159  23.900  22.730  20.950
 1007BOLB   GL424160  23.590  22.900  20.990
 1007BOLB   C1C24161  23.740  22.410  21.190
 1007BOLB   C2C24162  23.770  22.030  21.340
 1007BOLB   C3C24163  23.570  21.720  21.500
 1007BOLB   C4C24164  23.230  21.480  21.590
 1007BOLB   C1D24165  23.420  22.460  20.810
 1007BOLB   C2D24166  23.280  22.180  20.530
 1007BOLB   C3D24167  22.880  21.960  20.450
 1007BOLB   C4D24168  22.520  21.770  20.430
 1008BOLB   NC124169  24.300  16.990  42.970
 1008BOLB   PO124170  24.730  17.020  42.720
 1008BOLB   GL124171  24.920  16.950  43.090
 1008BOLB   GL224172  24.670  17.130  43.290
 1008BOLB   C1A24173  25.240  16.740  43.260
 1008BOLB   C2A24174  25.380  16.540  43.620
 1008BOLB   C3A24175  25.220  16.480  44.070
 1008BOLB   C4A24176  25.360  16.370  44.480
 1008BOLB   C1B24177  24.940  17.070  43.640
 1008BOLB   C2B24178  25.070  16.950  44.070
 1008BOLB   C3B24179  24.940  16.640  44.480
 1008BOLB   C4B24180  25.000  16.600  44.860
 1008BOLB   NC224181  26.735  16.420  46.390
 1008BOLB   PO224182  26.745  16.050  46.450
 1008BOLB   GL324183  26.685  16.160  45.960
 1008BOLB   GL424184  26.370  16.380  46.030
 1008BOLB   C1C24185  26.445  15.870  45.610
 1008BOLB   C2C24186  26.190  16.040  45.250
 1008BOLB   C3C24187  26.110  16.260  45.000
 1008BOLB   C4C24188  25.690  16.540  44.840
 1008BOLB   C1D24189  26.200  16.450  45.540
 1008BOLB   C2D24190  25.760  16.400  45.440
 1008BOLB   C3D24191  25.450  16.640  45.300
 1008BOLB   C4D24192  25.280  16.990  45.000
 1009BOLB   NC124193  28.595  10.890  20.760
 1009BOLB   PO124194  28.285  10.530  20.750
 1009BOLB   GL124195  27.895  10.410  21.000
 1009BOLB   GL224196  27.995  10.190  21.220
 1009BOLB   C1A24197  27.575  10.620  21.180
 1009BOLB   C2A24198  27.265  10.870  21.280
 1009BOLB   C3A24199  26.985  11.160  21.420
 1009BOLB   C4A24200  26.775  11.510  21.250
 1009BOLB   C1B24201  27.985  10.290  21.700
 1009BOLB   C2B24202  27.825  10.490  22.040
 1009BOLB   C3B24203  28.015  10.670  22.280
 1009BOLB   C4B24204  28.115  10.690  22.740
 1009BOLB   NC224205  26.685  10.960  19.040
 1009BOLB   PO224206  26.875  11.170  19.390
 1009BOLB   GL324207  26.715  11.660  19.540
 1009BOLB   GL424208  26.735  11.600  19.990
 1009BOLB   C1C24209  26.410  11.800  19.730
 1009BOLB   C2C24210  26.475  12.060  20.100
 1009BOLB   C3C24211  26.360  11.950  20.580
 1009BOLB   C4C24212  26.475  11.640  20.890
 1009BOLB   C1D24213  26.635  11.550  20.430
 1009BOLB   C2D24214  26.965  11.590  20.760
 1009BOLB   C3D24215  27.285  11.500  21.110
 1009BOLB   C4D24216  27.655  11.240  20.990
 1010BOLB   NC124217  19.010  10.180  34.540
 1010BOLB   PO124218  19.280   9.830  34.750
 1010BOLB   GL124219  18.920   9.630  34.740
 1010BOLB   GL224220  18.670   9.770  34.880
 1010BOLB   C1A24221  18.650   9.260  35.000
 1010BOLB   C2A24222  18.350   9.120  35.310
 1010BOLB   C3A24223  17.900   9.040  35.190
 1010BOLB   C4A24224  17.460   8.910  35.290
 1010BOLB   C1B24225  18.300   9.570  34.820
 1010BOLB   C2B24226  18.100   9.400  34.430
 1010BOLB   C3B24227  17.770   9.170  34.270
 1010BOLB   C4B24228  17.560   8.760  34.130
 1010BOLB   NC224229  15.140   7.300  35.420
 1010BOLB   PO224230  15.460   7.770  35.430
 1010BOLB   GL324231  15.690   8.070  35.570
 1010BOLB   GL424232  15.750   8.250  35.350
 1010BOLB   C1C24233  16.020   8.260  35.840
 1010BOLB   C2C24234  16.460   8.460  35.760
 1010BOLB   C3C24235  16.670   8.550  35.370
 1010BOLB   C4C24236  17.020   8.720  35.280
 1010BOLB   C1D24237  16.110   8.390  35.380
 1010BOLB   C2D24238  16.300   8.850  35.490
 1010BOLB   C3D24239  16.150   9.210  35.520
 1010BOLB   C4D24240  15.950   9.600  35.370
 1011BOLB   NC124241  24.760  20.380  35.020
 1011BOLB   PO124242  24.950  20.740  35.350
 1011BOLB   GL124243  25.250  20.760  35.060
 1011BOLB   GL224244  25.140  20.620  34.760
 1011BOLB   C1A24245  25.630  20.870  34.850
 1011BOLB   C2A24246  26.060  20.960  34.780
 1011BOLB   C3A24247  26.330  21.250  34.680
 1011BOLB   C4A24248  26.675  21.540  34.760
 1011BOLB   C1B24249  25.180  21.050  34.510
 1011BOLB   C2B24250  25.550  21.140  34.440
 1011BOLB   C3B24251  25.850  21.380  34.580
 1011BOLB   C4B24252  25.780  21.320  35.000
 1011BOLB   NC224253  29.175  23.400  34.590
 1011BOLB   PO224254  28.705  23.220  34.560
 1011BOLB   GL324255  28.425  22.910  34.550
 1011BOLB   GL424256  28.115  22.880  34.390
 1011BOLB   C1C24257  28.205  22.580  34.760
 1011BOLB   C2C24258  27.875  22.250  34.850
 1011BOLB   C3C24259  27.515  21.980  34.850
 1011BOLB   C4C24260  27.195  21.670  34.890
 1011BOLB   C1D24261  27.705  22.620  34.570
 1011BOLB   C2D24262  27.285  22.430  34.490
 1011BOLB   C3D24263  26.975  22.090  34.700
 1011BOLB   C4D24264  26.615  22.010  35.060
 1012BOLB   NC124265  14.150  20.480  26.970
 1012BOLB   PO124266  13.760  20.330  26.810
 1012BOLB   GL124267  13.380  20.510  26.620
 1012BOLB   GL224268  13.080  20.650  26.890
 1012BOLB   C1A24269  13.190  20.330  26.410
 1012BOLB   C2A24270  12.690  20.380  26.280
 1012BOLB   C3A24271  12.540  20.250  25.950
 1012BOLB   C4A24272  12.090  20.160  25.950
 1012BOLB   C1B24273  12.860  20.840  26.550
 1012BOLB   C2B24274  12.520  20.810  26.300
 1012BOLB   C3B24275  12.210  20.630  26.020
 1012BOLB   C4B24276  11.950  20.530  25.610
 1012BOLB   NC224277  10.050  21.260  25.160
 1012BOLB   PO224278  10.260  21.420  24.790
 1012BOLB   GL324279  10.610  21.410  25.030
 1012BOLB   GL424280  10.570  21.200  25.200
 1012BOLB   C1C24281  10.970  21.060  24.980
 1012BOLB   C2C24282  11.280  20.680  25.090
 1012BOLB   C3C24283  11.360  20.360  25.480
 1012BOLB   C4C24284  11.640  20.130  25.740
 1012BOLB   C1D24285  10.890  21.170  25.440
 1012BOLB   C2D24286  11.190  20.980  25.580
 1012BOLB   C3D24287  11.520  21.230  25.700
 1012BOLB   C4D24288  11.930  21.550  25.840
 1013BOLB   NC124289  21.840   9.460  37.980
 1013BOLB   PO124290  22.150   9.280  37.640
 1013BOLB   GL124291  21.900   9.010  37.750
 1013BOLB   GL224292  21.640   8.920  37.720
 1013BOLB   C1A24293  21.760   8.810  38.200
 1013BOLB   C2A24294  21.540   8.810  38.640
 1013BOLB   C3A24295  21.240   8.800  39.080
 1013BOLB   C4A24296  20.930   8.490  39.230
 1013BOLB   C1B24297  21.630   8.460  37.810
 1013BOLB   C2B24298  21.360   8.200  37.790
 1013BOLB   C3B24299  21.480   7.880  37.600
 1013BOLB   C4B24300  21.640   7.900  37.220
 1013BOLB   NC224301  19.760   6.350  40.550
 1013BOLB   PO224302  19.950   6.630  40.300
 1013BOLB   GL324303  20.000   6.830  39.980
 1013BOLB   GL424304  20.310   6.810  39.870
 1013BOLB   C1C24305  20.190   7.310  39.860
 1013BOLB   C2C24306  20.290   7.700  39.890
 1013BOLB   C3C24307  20.430   7.900  39.570
 1013BOLB   C4C24308  20.690   8.240  39.460
 1013BOLB   C1D24309  20.220   6.870  39.500
 1013BOLB   C2D24310  19.900   6.880  39.100
 1013BOLB   C3D24311  19.990   7.210  38.720
 1013BOLB   C4D24312  20.210   7.460  38.500
 1014BOLB   NC124313  17.310  21.820  39.100
 1014BOLB   PO124314  17.440  22.200  39.090
 1014BOLB   GL124315  17.360  22.580  39.280
 1014BOLB   GL224316  17.450  22.540  39.590
 1014BOLB   C1A24317  17.070  22.760  39.610
 1014BOLB   C2A24318  17.050  23.110  39.830
 1014BOLB   C3A24319  17.000  23.410  40.110
 1014BOLB   C4A24320  16.920  23.680  40.400
 1014BOLB   C1B24321  17.530  22.660  39.960
 1014BOLB   C2B24322  17.630  22.850  40.380
 1014BOLB   C3B24323  17.560  22.980  40.860
 1014BOLB   C4B24324  17.490  23.280  41.180
 1014BOLB   NC224325  15.950  25.900  41.830
 1014BOLB   PO224326  15.890  25.500  41.670
 1014BOLB   GL324327  16.160  25.220  41.350
 1014BOLB   GL424328  16.440  25.360  41.230
 1014BOLB   C1C24329  16.430  24.800  41.270
 1014BOLB   C2C24330  16.700  24.670  41.040
 1014BOLB   C3C24331  16.860  24.310  40.840
 1014BOLB   C4C24332  16.710  24.070  40.580
 1014BOLB   C1D24333  16.800  25.200  41.120
 1014BOLB   C2D24334  17.100  24.940  40.910
 1014BOLB   C3D24335  17.220  24.610  40.620
 1014BOLB   C4D24336  17.490  24.640  40.240
 1015BOLB   NC124337  25.460  11.810  45.780
 1015BOLB   PO124338  25.280  11.400  45.710
 1015BOLB   GL124339  25.230  11.530  45.310
 1015BOLB   GL224340  25.220  11.430  44.920
 1015BOLB   C1A24341  25.270  11.860  45.100
 1015BOLB   C2A24342  25.300  12.300  45.160
 1015BOLB   C3A24343  25.480  12.660  44.970
 1015BOLB   C4A24344  25.470  12.970  45.020
 1015BOLB   C1B24345  24.950  11.790  44.630
 1015BOLB   C2B24346  24.630  11.980  44.560
 1015BOLB   C3B24347  24.410  12.050  44.210
 1015BOLB   C4B24348  24.280  11.870  43.840
 1015BOLB   NC224349  25.240  13.460  46.930
 1015BOLB   PO224350  24.930  13.750  47.030
 1015BOLB   GL324351  25.150  13.840  46.600
 1015BOLB   GL424352  24.910  13.840  46.320
 1015BOLB   C1C24353  25.520  13.850  46.340
 1015BOLB   C2C24354  25.750  13.650  45.990
 1015BOLB   C3C24355  25.550  13.630  45.520
 1015BOLB   C4C24356  25.510  13.420  45.160
 1015BOLB   C1D24357  24.760  13.890  46.030
 1015BOLB   C2D24358  24.800  14.160  45.780
 1015BOLB   C3D24359  24.690  14.350  45.450
 1015BOLB   C4D24360  24.370  14.630  45.170
 1016BOLB   NC124361  21.450  20.570  47.120
 1016BOLB   PO124362  21.210  20.290  46.930
 1016BOLB   GL124363  21.450  20.030  46.650
 1016BOLB   GL224364  21.750  19.850  46.730
 1016BOLB   C1A24365  21.400  19.770  46.370
 1016BOLB   C2A24366  21.180  19.840  45.940
 1016BOLB   C3A24367  21.140  19.810  45.420
 1016BOLB   C4A24368  20.980  19.510  45.250
 1016BOLB   C1B24369  21.910  19.770  46.300
 1016BOLB   C2B24370  21.750  19.650  45.900
 1016BOLB   C3B24371  21.880  19.370  45.430
 1016BOLB   C4B24372  21.660  19.430  44.980
 1016BOLB   NC224373  20.390  19.880  47.900
 1016BOLB   PO224374  20.180  19.720  47.540
 1016BOLB   GL324375  20.210  19.710  47.090
 1016BOLB   GL424376  20.490  19.860  46.990
 1016BOLB   C1C24377  19.950  19.660  46.740
 1016BOLB   C2C24378  20.210  19.500  46.380
 1016BOLB   C3C24379  20.340  19.420  45.870
 1016BOLB   C4C24380  20.640  19.430  45.440
 1016BOLB   C1D24381  20.430  20.050  46.690
 1016BOLB   C2D24382  20.420  19.910  46.340
 1016BOLB   C3D24383  20.680  19.760  45.950
 1016BOLB   C4D24384  20.670  19.910  45.580
 1017BOLB   NC124385  23.450  12.660  42.020
 1017BOLB   PO124386  23.570  13.010  42.350
 1017BOLB   GL124387  23.440  12.970  42.790
 1017BOLB   GL224388  23.030  12.940  42.770
 1017BOLB   C1A24389  23.450  12.940  43.250
 1017BOLB   C2A24390  23.240  12.940  43.700
 1017BOLB   C3A24391  22.910  12.780  44.020
 1017BOLB   C4A24392  22.640  12.520  44.130
 1017BOLB   C1B24393  22.980  12.810  43.160
 1017BOLB   C2B24394  22.860  12.620  43.550
 1017BOLB   C3B24395  22.520  12.460  43.640
 1017BOLB   C4B24396  22.150  12.480  43.770
 1017BOLB   NC224397  21.430  10.260  45.820
 1017BOLB   PO224398  21.790  10.550  45.560
 1017BOLB   GL324399  21.910  10.970  45.350
 1017BOLB   GL424400  22.070  11.120  45.570
 1017BOLB   C1C24401  21.930  11.050  44.870
 1017BOLB   C2C24402  22.030  11.530  44.710
 1017BOLB   C3C24403  22.110  11.960  44.610
 1017BOLB   C4C24404  22.310  12.400  44.280
 1017BOLB   C1D24405  22.200  11.430  45.170
 1017BOLB   C2D24406  22.170  11.820  45.110
 1017BOLB   C3D24407  22.140  12.230  44.990
 1017BOLB   C4D24408  21.950  12.410  44.650
 1018BOLB   NC124409   8.670  21.030  32.130
 1018BOLB   PO124410   9.070  20.800  31.860
 1018BOLB   GL124411   9.490  20.720  31.760
 1018BOLB   GL224412   9.480  20.650  31.390
 1018BOLB   C1A24413   9.930  20.730  31.730
 1018BOLB   C2A24414  10.220  20.380  31.560
 1018BOLB   C3A24415  10.470  20.130  31.780
 1018BOLB   C4A24416  10.700  19.870  31.550
 1018BOLB   C1B24417   9.620  20.320  31.460
 1018BOLB   C2B24418   9.860  19.890  31.700
 1018BOLB   C3B24419  10.020  19.460  31.500
 1018BOLB   C4B24420   9.780  19.130  31.200
 1018BOLB   NC224421   9.130  19.440  32.800
 1018BOLB   PO224422   9.100  19.160  32.360
 1018BOLB   GL324423   9.360  19.300  32.050
 1018BOLB   GL424424   9.380  19.540  31.950
 1018BOLB   C1C24425   9.670  19.120  31.750
 1018BOLB   C2C24426   9.990  18.830  31.530
 1018BOLB   C3C24427  10.410  19.060  31.380
 1018BOLB   C4C24428  10.590  19.440  31.330
 1018BOLB   C1D24429   9.850  19.570  32.030
 1018BOLB   C2D24430  10.300  19.570  31.930
 1018BOLB   C3D24431  10.730  19.450  31.810
 1018BOLB   C4D24432  11.090  19.480  31.510
 1019BOLB   NC124433  28.425  13.220  37.700
 1019BOLB   PO124434  28.805  13.410  37.580
 1019BOLB   GL124435  29.275  13.180  37.700
 1019BOLB   GL224436  29.485  13.100  37.410
 1019BOLB   C1A24437  29.665  13.300  37.990
 1019BOLB   C2A24438  29.895  13.160  38.330
 1019BOLB   C3A24439  30.315  13.200  38.580
 1019BOLB   C4A24440  30.825  13.060  38.450
 1019BOLB   C1B24441  29.825  13.030  37.640
 1019BOLB   C2B24442  30.165  13.200  37.870
 1019BOLB   C3B24443  30.525  13.460  38.000
 1019BOLB   C4B24444  30.965  13.440  38.030
 1019BOLB   NC224445  32.775  13.060  40.010
 1019BOLB   PO224446  32.745  13.140  39.600
 1019BOLB   GL324447  32.375  13.230  39.320
 1019BOLB   GL424448  32.175  13.080  39.440
 1019BOLB   C1C24449  31.955  13.210  39.040
 1019BOLB   C2C24450  31.745  13.140  38.670
 1019BOLB   C3C24451  31.575  13.020  38.310
 1019BOLB   C4C24452  31.215  13.000  38.330
 1019BOLB   C1D24453  31.905  13.120  39.850
 1019BOLB   C2D24454  31.625  13.240  39.600
 1019BOLB   C3D24455  31.675  13.450  39.330
 1019BOLB   C4D24456  32.055  13.660  39.140
 1020BOLB   NC124457  19.320  23.850  36.240
 1020BOLB   PO124458  19.270  24.320  36.210
 1020BOLB   GL124459  19.210  24.700  36.150
 1020BOLB   GL224460  18.920  24.740  36.120
 1020BOLB   C1A24461  19.010  25.160  36.340
 1020BOLB   C2A24462  19.210  25.540  36.490
 1020BOLB   C3A24463  19.310  26.010  36.480
 1020BOLB   C4A24464  19.620  26.370  36.550
 1020BOLB   C1B24465  18.870  25.120  35.860
 1020BOLB   C2B24466  18.980  25.560  35.900
 1020BOLB   C3B24467  19.090  25.980  36.010
 1020BOLB   C4B24468  19.150  26.300  35.790
 1020BOLB   NC224469  20.780   1.750  37.550
 1020BOLB   PO224470  20.500   1.850  37.320
 1020BOLB   GL324471  20.320   1.550  36.980
 1020BOLB   GL424472  20.300   1.640  36.620
 1020BOLB   C1C24473  20.310   1.090  36.760
 1020BOLB   C2C24474  20.280   0.700  36.720
 1020BOLB   C3C24475  20.230   0.350  36.810
 1020BOLB   C4C24476  20.120   0.040  36.600
 1020BOLB   C1D24477  20.710   1.350  36.720
 1020BOLB   C2D24478  21.080   1.180  36.980
 1020BOLB   C3D24479  21.200   0.740  37.170
 1020BOLB   C4D24480  21.110   0.440  37.440
 1021BOLB   NC124481  14.120  17.630  29.200
 1021BOLB   PO124482  13.870  17.920  29.500
 1021BOLB   GL124483  13.520  17.570  29.430
 1021BOLB   GL224484  13.320  17.740  29.610
 1021BOLB   C1A24485  13.150  17.350  29.310
 1021BOLB   C2A24486  12.700  17.310  29.250
 1021BOLB   C3A24487  12.340  17.470  29.100
 1021BOLB   C4A24488  11.980  17.570  29.110
 1021BOLB   C1B24489  12.920  17.780  29.380
 1021BOLB   C2B24490  12.460  17.840  29.390
 1021BOLB   C3B24491  12.050  18.040  29.110
 1021BOLB   C4B24492  11.610  18.220  29.080
 1021BOLB   NC224493   9.300  17.460  28.770
 1021BOLB   PO224494   9.650  17.080  28.900
 1021BOLB   GL324495  10.100  17.140  28.890
 1021BOLB   GL424496  10.150  17.370  28.920
 1021BOLB   C1C24497  10.600  17.230  28.890
 1021BOLB   C2C24498  10.750  17.570  29.070
 1021BOLB   C3C24499  11.170  17.370  29.080
 1021BOLB   C4C24500  11.570  17.450  28.920
 1021BOLB   C1D24501  10.310  17.880  28.900
 1021BOLB   C2D24502  10.730  18.140  28.880
 1021BOLB   C3D24503  11.140  18.210  28.850
 1021BOLB   C4D24504  11.440  18.400  28.590
 1022BOLB   NC124505  17.690  19.580  41.680
 1022BOLB   PO124506  17.710  19.130  41.810
 1022BOLB   GL124507  17.620  19.240  42.160
 1022BOLB   GL224508  17.920  19.140  42.420
 1022BOLB   C1A24509  17.410  19.580  42.280
 1022BOLB   C2A24510  17.300  19.780  42.680
 1022BOLB   C3A24511  17.070  19.830  43.000
 1022BOLB   C4A24512  16.970  19.630  43.380
 1022BOLB   C1B24513  17.690  19.470  42.680
 1022BOLB   C2B24514  17.480  19.490  43.070
 1022BOLB   C3B24515  17.320  19.260  43.490
 1022BOLB   C4B24516  17.430  19.090  43.870
 1022BOLB   NC224517  14.780  20.050  45.250
 1022BOLB   PO224518  14.970  19.730  44.930
 1022BOLB   GL324519  15.220  19.560  44.580
 1022BOLB   GL424520  15.500  19.720  44.490
 1022BOLB   C1C24521  15.340  19.380  44.110
 1022BOLB   C2C24522  15.670  19.520  43.780
 1022BOLB   C3C24523  16.070  19.450  43.540
 1022BOLB   C4C24524  16.530  19.440  43.510
 1022BOLB   C1D24525  15.860  19.820  44.250
 1022BOLB   C2D24526  16.150  19.600  44.080
 1022BOLB   C3D24527  16.560  19.520  44.030
 1022BOLB   C4D24528  16.890  19.360  43.840
 1023BOLB   NC124529  20.410   1.890  30.570
 1023BOLB   PO124530  20.280   1.920  30.330
 1023BOLB   GL124531  20.050   1.470  30.370
 1023BOLB   GL224532  20.230   1.400  30.660
 1023BOLB   C1A24533  19.710   1.200  30.120
 1023BOLB   C2A24534  19.580   0.840  30.050
 1023BOLB   C3A24535  19.350   0.690  30.420
 1023BOLB   C4A24536  19.080   0.600  30.750
 1023BOLB   C1B24537  20.220   0.930  30.750
 1023BOLB   C2B24538  20.230   0.580  30.550
 1023BOLB   C3B24539  20.260   0.180  30.520
 1023BOLB   C4B24540  20.210  26.270  30.560
 1023BOLB   NC224541  18.630   2.180  31.810
 1023BOLB   PO224542  18.280   2.110  31.670
 1023BOLB   GL324543  18.270   1.700  31.750
 1023BOLB   GL424544  18.020   1.700  31.920
 1023BOLB   C1C24545  18.090   1.300  31.700
 1023BOLB   C2C24546  18.270   0.940  31.660
 1023BOLB   C3C24547  18.520   0.740  31.400
 1023BOLB   C4C24548  18.910   0.570  31.180
 1023BOLB   C1D24549  17.770   1.500  32.200
 1023BOLB   C2D24550  17.530   1.170  32.420
 1023BOLB   C3D24551  17.370   1.020  32.800
 1023BOLB   C4D24552  17.480   0.780  33.150
 1024BOLB   NC124553  25.060  10.270  39.950
 1024BOLB   PO124554  24.600  10.390  40.130
 1024BOLB   GL124555  24.880  10.250  40.450
 1024BOLB   GL224556  25.120  10.150  40.450
 1024BOLB   C1A24557  24.890   9.980  40.860
 1024BOLB   C2A24558  24.680   9.680  41.180
 1024BOLB   C3A24559  24.440   9.370  41.500
 1024BOLB   C4A24560  24.490   9.070  41.750
 1024BOLB   C1B24561  25.480  10.150  40.750
 1024BOLB   C2B24562  25.620  10.000  41.120
 1024BOLB   C3B24563  25.860   9.970  41.460
 1024BOLB   C4B24564  25.960   9.670  41.780
 1024BOLB   NC224565  24.870   7.390  42.880
 1024BOLB   PO224566  25.050   7.710  43.130
 1024BOLB   GL324567  25.180   8.180  43.150
 1024BOLB   GL424568  24.940   8.300  43.360
 1024BOLB   C1C24569  25.230   8.580  42.950
 1024BOLB   C2C24570  25.090   8.800  42.590
 1024BOLB   C3C24571  24.720   8.890  42.420
 1024BOLB   C4C24572  24.720   8.770  42.040
 1024BOLB   C1D24573  24.740   8.530  42.890
 1024BOLB   C2D24574  24.500   8.440  42.550
 1024BOLB   C3D24575  24.350   8.410  42.080
 1024BOLB   C4D24576  24.460   8.570  41.640
 1025BOLB   NC124577  21.320  18.940  43.510
 1025BOLB   PO124578  21.170  18.600  43.600
 1025BOLB   GL124579  20.970  18.890  43.850
 1025BOLB   GL224580  21.320  18.960  44.000
 1025BOLB   C1A24581  20.950  18.960  44.300
 1025BOLB   C2A24582  20.950  19.000  44.770
 1025BOLB   C3A24583  21.240  19.060  45.080
 1025BOLB   C4A24584  21.060  19.000  45.440
 1025BOLB   C1B24585  21.700  18.870  44.250
 1025BOLB   C2B24586  21.720  18.990  44.700
 1025BOLB   C3B24587  21.750  18.590  45.060
 1025BOLB   C4B24588  22.160  18.320  45.100
 1025BOLB   NC224589  20.470  18.850  48.040
 1025BOLB   PO224590  20.790  18.550  47.760
 1025BOLB   GL324591  20.900  18.670  47.340
 1025BOLB   GL424592  20.630  18.890  47.180
 1025BOLB   C1C24593  21.180  18.630  46.900
 1025BOLB   C2C24594  21.080  18.570  46.450
 1025BOLB   C3C24595  21.030  18.450  46.010
 1025BOLB   C4C24596  21.170  18.680  45.680
 1025BOLB   C1D24597  20.700  19.350  47.130
 1025BOLB   C2D24598  20.650  19.400  46.700
 1025BOLB   C3D24599  20.920  19.450  46.280
 1025BOLB   C4D24600  20.960  19.380  45.780
 1026BOLB   NC124601  28.225   6.290  24.480
 1026BOLB   PO124602  28.405   6.160  24.070
 1026BOLB   GL124603  28.265   6.580  24.080
 1026BOLB   GL224604  28.015   6.800  24.360
 1026BOLB   C1A24605  28.175   6.970  23.900
 1026BOLB   C2A24606  28.265   7.360  23.870
 1026BOLB   C3A24607  27.975   7.730  24.000
 1026BOLB   C4A24608  27.635   7.960  24.030
 1026BOLB   C1B24609  27.915   7.160  24.260
 1026BOLB   C2B24610  27.885   7.660  24.520
 1026BOLB   C3B24611  28.115   7.920  24.780
 1026BOLB   C4B24612  28.275   8.230  24.930
 1026BOLB   NC224613  26.805   6.350  23.110
 1026BOLB   PO224614  26.955   6.770  22.890
 1026BOLB   GL324615  26.685   6.930  23.170
 1026BOLB   GL424616  26.430   6.680  23.200
 1026BOLB   C1C24617  26.635   7.190  23.550
 1026BOLB   C2C24618  26.515   7.530  23.830
 1026BOLB   C3C24619  26.795   7.730  23.920
 1026BOLB   C4C24620  27.255   7.900  23.950
 1026BOLB   C1D24621  26.230   7.060  23.160
 1026BOLB   C2D24622  26.240   7.500  23.410
 1026BOLB   C3D24623  26.210   7.920  23.570
 1026BOLB   C4D24624  25.870   8.200  23.850
 1027BOLB   NC124625  14.280  17.220  35.660
 1027BOLB   PO124626  14.160  16.880  35.320
 1027BOLB   GL124627  13.910  16.910  35.690
 1027BOLB   GL224628  13.890  16.600  35.900
 1027BOLB   C1A24629  13.520  16.920  35.800
 1027BOLB   C2A24630  13.300  16.530  35.640
 1027BOLB   C3A24631  13.000  16.390  35.460
 1027BOLB   C4A24632  12.590  16.350  35.310
 1027BOLB   C1B24633  13.440  16.500  36.100
 1027BOLB   C2B24634  13.130  16.410  36.310
 1027BOLB   C3B24635  12.770  16.340  36.490
 1027BOLB   C4B24636  12.370  16.420  36.640
 1027BOLB   NC224637  10.720  14.670  35.870
 1027BOLB   PO224638  10.700  15.050  36.090
 1027BOLB   GL324639  11.040  15.160  35.790
 1027BOLB   GL424640  11.220  14.870  35.770
 1027BOLB   C1C24641  11.230  15.390  35.470
 1027BOLB   C2C24642  11.450  15.820  35.470
 1027BOLB   C3C24643  11.650  16.230  35.500
 1027BOLB   C4C24644  12.100  16.430  35.330
 1027BOLB   C1D24645  11.490  14.500  35.860
 1027BOLB   C2D24646  11.540  14.290  36.250
 1027BOLB   C3D24647  11.750  14.020  36.600
 1027BOLB   C4D24648  12.090  13.950  36.690
 1028BOLB   NC124649  30.895  15.080  22.690
 1028BOLB   PO124650  31.315  14.860  22.690
 1028BOLB   GL124651  31.065  14.790  23.080
 1028BOLB   GL224652  31.095  15.030  23.420
 1028BOLB   C1A24653  30.735  14.660  23.380
 1028BOLB   C2A24654  30.575  14.390  23.810
 1028BOLB   C3A24655  30.255  14.210  24.120
 1028BOLB   C4A24656  30.195  13.940  24.570
 1028BOLB   C1B24657  30.735  15.140  23.600
 1028BOLB   C2B24658  30.385  14.850  23.820
 1028BOLB   C3B24659  30.155  14.840  23.920
 1028BOLB   C4B24660  29.985  15.070  24.210
 1028BOLB   NC224661  31.925  14.050  23.980
 1028BOLB   PO224662  31.985  13.660  24.030
 1028BOLB   GL324663  31.625  13.570  24.220
 1028BOLB   GL424664  31.445  13.830  24.180
 1028BOLB   C1C24665  31.455  13.660  24.670
 1028BOLB   C2C24666  31.115  13.720  24.980
 1028BOLB   C3C24667  30.815  13.880  25.140
 1028BOLB   C4C24668  30.355  13.860  24.990
 1028BOLB   C1D24669  31.225  14.070  24.420
 1028BOLB   C2D24670  30.965  14.120  24.730
 1028BOLB   C3D24671  30.555  14.230  24.760
 1028BOLB   C4D24672  30.175  14.370  24.850
 1029BOLB   NC124673  20.640  19.710  21.720
 1029BOLB   PO124674  20.270  19.510  21.700
 1029BOLB   GL124675  20.510  19.520  21.220
 1029BOLB   GL224676  20.940  19.640  21.260
 1029BOLB   C1A24677  20.560  19.710  20.780
 1029BOLB   C2A24678  20.440  19.580  20.340
 1029BOLB   C3A24679  20.420  19.450  19.820
 1029BOLB   C4A24680  20.060  19.510  19.600
 1029BOLB   C1B24681  21.150  19.480  20.860
 1029BOLB   C2B24682  21.410  19.520  20.440
 1029BOLB   C3B24683  21.570  19.740  20.080
 1029BOLB   C4B24684  21.470  20.010  19.660
 1029BOLB   NC224685  20.690  19.450  17.390
 1029BOLB   PO224686  20.250  19.500  17.410
 1029BOLB   GL324687  20.090  19.480  17.860
 1029BOLB   GL424688  19.980  19.720  17.820
 1029BOLB   C1C24689  19.880  19.410  18.200
 1029BOLB   C2C24690  19.900  19.490  18.540
 1029BOLB   C3C24691  19.570  19.380  18.800
 1029BOLB   C4C24692  19.750  19.520  19.260
 1029BOLB   C1D24693  19.690  19.830  18.100
 1029BOLB   C2D24694  19.550  19.870  18.480
 1029BOLB   C3D24695  19.350  19.910  18.910
 1029BOLB   C4D24696  19.330  19.820  19.280
 1030BOLB   NC124697  28.265  11.240  37.570
 1030BOLB   PO124698  28.675  11.440  37.620
 1030BOLB   GL124699  29.035  11.490  37.730
 1030BOLB   GL224700  29.265  11.060  37.900
 1030BOLB   C1A24701  29.405  11.520  38.010
 1030BOLB   C2A24702  29.665  11.280  38.180
 1030BOLB   C3A24703  29.735  10.860  38.490
 1030BOLB   C4A24704  29.655  10.390  38.670
 1030BOLB   C1B24705  29.415  10.710  38.140
 1030BOLB   C2B24706  29.655  10.360  38.120
 1030BOLB   C3B24707  29.655   9.950  38.130
 1030BOLB   C4B24708  29.615   9.590  38.300
 1030BOLB   NC224709  30.605   8.300  39.940
 1030BOLB   PO224710  30.885   8.610  39.890
 1030BOLB   GL324711  30.465   8.780  39.750
 1030BOLB   GL424712  30.135   8.700  40.020
 1030BOLB   C1C24713  30.195   8.890  39.390
 1030BOLB   C2C24714  30.065   9.340  39.230
 1030BOLB   C3C24715  29.945   9.800  39.240
 1030BOLB   C4C24716  29.755  10.080  38.930
 1030BOLB   C1D24717  30.135   8.990  40.180
 1030BOLB   C2D24718  30.125   9.330  40.450
 1030BOLB   C3D24719  30.005   9.750  40.490
 1030BOLB   C4D24720  30.095  10.190  40.290
 1031BOLB   NC124721  26.475  23.480  24.740
 1031BOLB   PO124722  26.545  23.700  25.200
 1031BOLB   GL124723  26.455  23.230  25.270
 1031BOLB   GL224724  26.180  23.130  25.110
 1031BOLB   C1A24725  26.350  22.710  25.220
 1031BOLB   C2A24726  26.080  22.430  25.600
 1031BOLB   C3A24727  25.730  22.190  25.550
 1031BOLB   C4A24728  25.510  21.890  25.280
 1031BOLB   C1B24729  25.960  22.890  25.420
 1031BOLB   C2B24730  25.630  22.760  25.640
 1031BOLB   C3B24731  25.560  22.910  26.070
 1031BOLB   C4B24732  25.310  23.230  26.250
 1031BOLB   NC224733  23.190  20.630  25.580
 1031BOLB   PO224734  23.590  20.470  25.780
 1031BOLB   GL324735  24.030  20.630  25.600
 1031BOLB   GL424736  24.350  20.540  25.580
 1031BOLB   C1C24737  24.210  21.040  25.500
 1031BOLB   C2C24738  24.520  21.100  25.200
 1031BOLB   C3C24739  24.870  21.290  25.150
 1031BOLB   C4C24740  25.300  21.460  25.220
 1031BOLB   C1D24741  24.740  20.490  25.390
 1031BOLB   C2D24742  25.040  20.700  25.220
 1031BOLB   C3D24743  25.420  20.990  25.110
 1031BOLB   C4D24744  25.690  20.720  24.890
 1032BOLB   NC124745  16.930  18.890  40.320
 1032BOLB   PO124746  16.480  19.050  40.260
 1032BOLB   GL124747  16.200  19.180  40.540
 1032BOLB   GL224748  15.930  18.940  40.460
 1032BOLB   C1A24749  16.290  19.470  40.920
 1032BOLB   C2A24750  16.030  19.670  41.160
 1032BOLB   C3A24751  15.640  19.840  41.340
 1032BOLB   C4A24752  15.580  19.860  41.810
 1032BOLB   C1B24753  15.830  19.190  40.930
 1032BOLB   C2B24754  15.620  19.570  40.890
 1032BOLB   C3B24755  15.260  19.790  41.000
 1032BOLB   C4B24756  15.320  20.160  41.120
 1032BOLB   NC224757  14.320  21.430  43.300
 1032BOLB   PO224758  14.550  21.090  43.480
 1032BOLB   GL324759  14.750  20.850  43.110
 1032BOLB   GL424760  15.100  20.840  43.240
 1032BOLB   C1C24761  14.980  20.940  42.790
 1032BOLB   C2C24762  15.250  20.790  42.450
 1032BOLB   C3C24763  15.420  20.500  42.360
 1032BOLB   C4C24764  15.550  20.130  42.130
 1032BOLB   C1D24765  15.440  20.660  43.020
 1032BOLB   C2D24766  15.850  20.570  42.880
 1032BOLB   C3D24767  16.180  20.710  42.740
 1032BOLB   C4D24768  16.480  20.920  42.480
 1033BOLB   NC124769  14.930  20.050  38.230
 1033BOLB   PO124770  15.240  20.110  38.580
 1033BOLB   GL124771  14.860  20.260  38.760
 1033BOLB   GL224772  14.770  20.200  39.050
 1033BOLB   C1A24773  14.460  20.030  38.760
 1033BOLB   C2A24774  14.060  20.140  38.950
 1033BOLB   C3A24775  13.990  20.270  39.340
 1033BOLB   C4A24776  13.760  20.650  39.330
 1033BOLB   C1B24777  14.510  20.040  39.350
 1033BOLB   C2B24778  14.400  20.250  39.710
 1033BOLB   C3B24779  14.400  20.510  40.060
 1033BOLB   C4B24780  14.540  20.950  40.050
 1033BOLB   NC224781  11.860  21.210  40.470
 1033BOLB   PO224782  12.200  21.370  40.710
 1033BOLB   GL324783  12.460  21.320  40.320
 1033BOLB   GL424784  12.770  21.290  40.370
 1033BOLB   C1C24785  12.530  21.090  39.930
 1033BOLB   C2C24786  12.680  20.950  39.510
 1033BOLB   C3C24787  13.080  20.850  39.520
 1033BOLB   C4C24788  13.450  20.770  39.510
 1033BOLB   C1D24789  12.990  21.000  40.130
 1033BOLB   C2D24790  13.410  21.020  40.010
 1033BOLB   C3D24791  13.580  20.670  39.970
 1033BOLB   C4D24792  13.880  20.370  39.870
 1034BOLB   NC124793  15.060  15.520  36.110
 1034BOLB   PO124794  14.950  15.170  36.300
 1034BOLB   GL124795  14.550  15.030  36.390
 1034BOLB   GL224796  14.260  15.140  36.180
 1034BOLB   C1A24797  14.200  14.740  36.540
 1034BOLB   C2A24798  13.870  14.380  36.520
 1034BOLB   C3A24799  13.760  13.860  36.450
 1034BOLB   C4A24800  13.350  13.830  36.470
 1034BOLB   C1B24801  13.870  15.140  36.290
 1034BOLB   C2B24802  13.440  15.100  36.070
 1034BOLB   C3B24803  13.250  15.020  35.760
 1034BOLB   C4B24804  13.040  14.840  35.470
 1034BOLB   NC224805  10.960  13.840  36.260
 1034BOLB   PO224806  11.220  13.730  36.650
 1034BOLB   GL324807  11.530  13.580  36.850
 1034BOLB   GL424808  11.670  13.370  36.610
 1034BOLB   C1C24809  11.900  13.570  37.050
 1034BOLB   C2C24810  12.300  13.610  37.090
 1034BOLB   C3C24811  12.550  13.860  36.840
 1034BOLB   C4C24812  12.970  13.710  36.520
 1034BOLB   C1D24813  11.960  13.580  36.470
 1034BOLB   C2D24814  12.430  13.680  36.330
 1034BOLB   C3D24815  12.610  13.940  35.950
 1034BOLB   C4D24816  12.360  14.080  35.670
 1035BOLB   NC124817  24.010   7.810  31.060
 1035BOLB   PO124818  23.770   7.620  31.250
 1035BOLB   GL124819  23.840   7.190  31.080
 1035BOLB   GL224820  23.680   7.310  30.870
 1035BOLB   C1A24821  23.810   6.720  31.300
 1035BOLB   C2A24822  23.880   6.330  31.230
 1035BOLB   C3A24823  23.950   5.980  30.990
 1035BOLB   C4A24824  23.750   5.620  31.020
 1035BOLB   C1B24825  23.470   6.880  30.910
 1035BOLB   C2B24826  23.340   6.490  30.990
 1035BOLB   C3B24827  22.970   6.300  30.950
 1035BOLB   C4B24828  22.800   6.000  30.850
 1035BOLB   NC224829  23.890   3.550  29.680
 1035BOLB   PO224830  23.390   3.540  29.640
 1035BOLB   GL324831  23.490   3.890  29.820
 1035BOLB   GL424832  23.710   4.010  29.990
 1035BOLB   C1C24833  23.340   4.190  30.160
 1035BOLB   C2C24834  23.380   4.670  30.310
 1035BOLB   C3C24835  23.440   4.970  30.560
 1035BOLB   C4C24836  23.520   5.350  30.820
 1035BOLB   C1D24837  23.830   4.340  29.610
 1035BOLB   C2D24838  23.800   4.550  29.240
 1035BOLB   C3D24839  23.390   4.660  29.020
 1035BOLB   C4D24840  23.030   4.520  29.240
 1036BOLB   NC124841  27.535  10.290  26.850
 1036BOLB   PO124842  27.945  10.550  26.910
 1036BOLB   GL124843  28.385  10.370  26.810
 1036BOLB   GL224844  28.515  10.400  26.450
 1036BOLB   C1A24845  28.755  10.180  26.980
 1036BOLB   C2A24846  28.915   9.790  26.980
 1036BOLB   C3A24847  29.135   9.490  26.750
 1036BOLB   C4A24848  29.385   9.080  26.670
 1036BOLB   C1B24849  28.985  10.300  26.430
 1036BOLB   C2B24850  29.445  10.180  26.350
 1036BOLB   C3B24851  29.665  10.100  26.170
 1036BOLB   C4B24852  30.015  10.020  26.350
 1036BOLB   NC224853  31.775   8.100  25.640
 1036BOLB   PO224854  31.795   8.510  25.610
 1036BOLB   GL324855  31.485   8.930  25.780
 1036BOLB   GL424856  31.455   8.800  26.120
 1036BOLB   C1C24857  31.035   9.020  26.040
 1036BOLB   C2C24858  30.755   9.070  26.420
 1036BOLB   C3C24859  30.215   9.130  26.560
 1036BOLB   C4C24860  29.755   8.980  26.410
 1036BOLB   C1D24861  31.165   8.480  26.020
 1036BOLB   C2D24862  30.915   8.450  25.690
 1036BOLB   C3D24863  30.755   8.840  25.580
 1036BOLB   C4D24864  30.475   9.030  25.860
 1037BOLB   NC124865  14.590  16.640  28.150
 1037BOLB   PO124866  14.680  16.300  28.460
 1037BOLB   GL124867  14.310  16.200  28.290
 1037BOLB   GL224868  14.420  15.850  28.250
 1037BOLB   C1A24869  13.960  16.210  28.120
 1037BOLB   C2A24870  13.570  15.980  27.860
 1037BOLB   C3A24871  13.130  16.180  27.610
 1037BOLB   C4A24872  12.790  16.090  27.360
 1037BOLB   C1B24873  14.050  15.620  28.090
 1037BOLB   C2B24874  13.700  15.410  27.990
 1037BOLB   C3B24875  13.280  15.430  27.940
 1037BOLB   C4B24876  12.920  15.260  27.840
 1037BOLB   NC224877  10.200  15.690  27.110
 1037BOLB   PO224878  10.300  15.700  27.500
 1037BOLB   GL324879  10.720  15.930  27.370
 1037BOLB   GL424880  10.590  16.210  27.160
 1037BOLB   C1C24881  11.120  15.950  27.640
 1037BOLB   C2C24882  11.540  15.910  27.510
 1037BOLB   C3C24883  11.930  16.040  27.430
 1037BOLB   C4C24884  12.330  16.250  27.360
 1037BOLB   C1D24885  11.060  16.270  27.260
 1037BOLB   C2D24886  11.340  16.440  27.510
 1037BOLB   C3D24887  11.660  16.410  27.800
 1037BOLB   C4D24888  11.900  16.110  27.890
 1038BOLB   NC124889  22.460  21.160  42.080
 1038BOLB   PO124890  22.340  21.140  42.450
 1038BOLB   GL124891  21.990  21.470  42.730
 1038BOLB   GL224892  21.600  21.600  42.740
 1038BOLB   C1A24893  22.050  21.950  42.680
 1038BOLB   C2A24894  21.800  22.180  42.870
 1038BOLB   C3A24895  21.540  22.490  43.040
 1038BOLB   C4A24896  21.270  22.730  43.300
 1038BOLB   C1B24897  21.390  21.950  42.990
 1038BOLB   C2B24898  21.120  22.260  43.070
 1038BOLB   C3B24899  20.800  22.520  42.920
 1038BOLB   C4B24900  20.720  22.850  42.610
 1038BOLB   NC224901  21.460  25.200  43.560
 1038BOLB   PO224902  21.750  25.280  43.280
 1038BOLB   GL324903  21.640  24.840  43.090
 1038BOLB   GL424904  21.840  24.640  42.880
 1038BOLB   C1C24905  21.420  24.440  43.050
 1038BOLB   C2C24906  21.420  23.890  42.980
 1038BOLB   C3C24907  21.620  23.550  43.180
 1038BOLB   C4C24908  21.380  23.190  43.380
 1038BOLB   C1D24909  21.690  24.230  42.700
 1038BOLB   C2D24910  21.760  23.850  42.590
 1038BOLB   C3D24911  21.460  23.430  42.690
 1038BOLB   C4D24912  21.570  23.000  42.790
 1039BOLB   NC124913  23.140   5.150  24.590
 1039BOLB   PO124914  22.800   5.090  24.430
 1039BOLB   GL124915  22.850   5.560  24.520
 1039BOLB   GL224916  22.990   5.660  24.870
 1039BOLB   C1A24917  22.690   5.980  24.530
 1039BOLB   C2A24918  22.550   6.280  24.600
 1039BOLB   C3A24919  22.640   6.590  24.870
 1039BOLB   C4A24920  22.460   6.970  24.850
 1039BOLB   C1B24921  22.580   5.750  24.960
 1039BOLB   C2B24922  22.340   6.150  25.010
 1039BOLB   C3B24923  22.280   6.390  25.280
 1039BOLB   C4B24924  22.640   6.550  25.470
 1039BOLB   NC224925  22.730   9.150  26.280
 1039BOLB   PO224926  22.800   9.100  25.770
 1039BOLB   GL324927  22.830   8.800  25.630
 1039BOLB   GL424928  22.700   8.740  25.250
 1039BOLB   C1C24929  22.810   8.350  25.560
 1039BOLB   C2C24930  22.660   7.890  25.600
 1039BOLB   C3C24931  22.490   7.530  25.280
 1039BOLB   C4C24932  22.300   7.280  25.100
 1039BOLB   C1D24933  22.470   8.440  25.150
 1039BOLB   C2D24934  22.370   8.080  25.130
 1039BOLB   C3D24935  22.170   7.770  24.940
 1039BOLB   C4D24936  21.760   7.600  24.960
 1040BOLB   NC124937  13.700  21.340  31.280
 1040BOLB   PO124938  13.230  21.270  31.330
 1040BOLB   GL124939  12.810  21.490  31.520
 1040BOLB   GL224940  12.570  21.540  31.290
 1040BOLB   C1A24941  12.560  21.720  31.750
 1040BOLB   C2A24942  12.230  21.750  32.000
 1040BOLB   C3A24943  11.920  21.610  32.210
 1040BOLB   C4A24944  11.470  21.730  32.330
 1040BOLB   C1B24945  12.250  21.380  31.540
 1040BOLB   C2B24946  11.850  21.360  31.770
 1040BOLB   C3B24947  11.450  21.700  31.720
 1040BOLB   C4B24948  11.340  22.120  31.540
 1040BOLB   NC224949   9.460  21.300  32.950
 1040BOLB   PO224950   9.320  21.690  33.050
 1040BOLB   GL324951   9.740  21.470  33.310
 1040BOLB   GL424952   9.860  21.120  33.250
 1040BOLB   C1C24953  10.230  21.620  33.280
 1040BOLB   C2C24954  10.680  21.430  33.240
 1040BOLB   C3C24955  11.070  21.630  33.100
 1040BOLB   C4C24956  11.200  21.720  32.650
 1040BOLB   C1D24957  10.290  21.030  33.230
 1040BOLB   C2D24958  10.760  20.940  33.120
 1040BOLB   C3D24959  11.140  21.160  33.190
 1040BOLB   C4D24960  11.440  21.360  33.420
 1041BOLB   NC124961  31.635   6.990  29.030
 1041BOLB   PO124962  31.755   7.080  29.440
 1041BOLB   GL124963  31.405   7.190  29.560
 1041BOLB   GL224964  31.245   7.090  29.710
 1041BOLB   C1A24965  31.155   7.570  29.530
 1041BOLB   C2A24966  31.065   7.890  29.390
 1041BOLB   C3A24967  30.715   8.180  29.330
 1041BOLB   C4A24968  30.745   8.560  29.270
 1041BOLB   C1B24969  31.145   6.910  30.020
 1041BOLB   C2B24970  31.275   6.910  30.540
 1041BOLB   C3B24971  31.145   7.090  30.900
 1041BOLB   C4B24972  31.365   7.360  31.110
 1041BOLB   NC224973  32.775   9.190  28.690
 1041BOLB   PO224974  32.495   8.770  28.790
 1041BOLB   GL324975  32.205   9.190  28.860
 1041BOLB   GL424976  32.225   9.530  29.140
 1041BOLB   C1C24977  31.775   9.270  28.830
 1041BOLB   C2C24978  31.395   9.170  28.610
 1041BOLB   C3C24979  30.885   9.090  28.680
 1041BOLB   C4C24980  30.685   8.840  28.870
 1041BOLB   C1D24981  32.075   9.650  29.650
 1041BOLB   C2D24982  31.675   9.680  29.890
 1041BOLB   C3D24983  31.335   9.740  30.180
 1041BOLB   C4D24984  30.935   9.860  30.160
 1042BOLB   NC124985  26.340  18.430  35.960
 1042BOLB   PO124986  26.370  18.830  35.950
 1042BOLB   GL124987  26.745  19.110  35.870
 1042BOLB   GL224988  26.995  18.920  35.850
 1042BOLB   C1A24989  26.765  19.430  35.540
 1042BOLB   C2A24990  27.155  19.690  35.410
 1042BOLB   C3A24991  27.315  19.950  35.150
 1042BOLB   C4A24992  27.665  20.200  35.150
 1042BOLB   C1B24993  27.275  19.310  35.810
 1042BOLB   C2B24994  27.525  19.650  35.840
 1042BOLB   C3B24995  27.775  19.970  35.690
 1042BOLB   C4B24996  27.775  20.370  35.650
 1042BOLB   NC224997  29.575  21.700  35.360
 1042BOLB   PO224998  29.275  21.760  35.410
 1042BOLB   GL324999  29.165  21.360  35.270
 1042BOLB   GL425000  29.085  21.310  35.560
 1042BOLB   C1C25001  28.745  21.130  35.180
 1042BOLB   C2C25002  28.505  20.860  34.930
 1042BOLB   C3C25003  28.185  20.550  34.930
 1042BOLB   C4C25004  27.905  20.480  35.140
 1042BOLB   C1D25005  28.615  21.400  35.610
 1042BOLB   C2D25006  28.395  21.040  35.580
 1042BOLB   C3D25007  28.365  20.610  35.570
 1042BOLB   C4D25008  28.225  20.170  35.540
 1043BOLB   NC125009  32.655  10.880  39.880
 1043BOLB   PO125010  32.425  10.870  39.530
 1043BOLB   GL125011  31.975  10.890  39.340
 1043BOLB   GL225012  31.765  10.930  39.570
 1043BOLB   C1A25013  31.635  11.130  39.040
 1043BOLB   C2A25014  31.195  11.120  39.010
 1043BOLB   C3A25015  30.775  11.200  39.190
 1043BOLB   C4A25016  30.675  11.520  39.360
 1043BOLB   C1B25017  31.335  10.900  39.420
 1043BOLB   C2B25018  30.975  11.010  39.590
 1043BOLB   C3B25019  30.925  11.340  39.850
 1043BOLB   C4B25020  31.135  11.680  39.850
 1043BOLB   NC225021  31.785  10.500  40.830
 1043BOLB   PO225022  31.505  10.750  41.030
 1043BOLB   GL325023  31.145  10.960  40.910
 1043BOLB   GL425024  30.905  10.850  41.100
 1043BOLB   C1C25025  31.055  11.460  40.880
 1043BOLB   C2C25026  30.795  11.720  40.590
 1043BOLB   C3C25027  30.545  11.800  40.180
 1043BOLB   C4C25028  30.595  11.720  39.740
 1043BOLB   C1D25029  30.595  11.240  41.100
 1043BOLB   C2D25030  30.355  11.570  40.830
 1043BOLB   C3D25031  30.455  12.060  40.820
 1043BOLB   C4D25032  30.605  12.410  40.840
 1044BOLB   NC125033  26.300  17.580  28.250
 1044BOLB   PO125034  26.170  17.840  28.500
 1044BOLB   GL125035  26.505  18.100  28.470
 1044BOLB   GL225036  26.455  18.340  28.280
 1044BOLB   C1A25037  26.895  18.330  28.570
 1044BOLB   C2A25038  27.215  18.650  28.650
 1044BOLB   C3A25039  27.505  18.990  28.640
 1044BOLB   C4A25040  27.815  19.370  28.650
 1044BOLB   C1B25041  26.565  18.720  28.370
 1044BOLB   C2B25042  26.845  19.050  28.500
 1044BOLB   C3B25043  27.115  19.390  28.550
 1044BOLB   C4B25044  27.405  19.740  28.550
 1044BOLB   NC225045  28.475  21.400  28.210
 1044BOLB   PO225046  28.565  21.120  27.870
 1044BOLB   GL325047  28.255  20.800  28.070
 1044BOLB   GL425048  27.975  20.750  28.080
 1044BOLB   C1C25049  28.385  20.580  28.440
 1044BOLB   C2C25050  28.295  20.390  28.800
 1044BOLB   C3C25051  28.075  20.050  28.790
 1044BOLB   C4C25052  27.825  19.690  28.850
 1044BOLB   C1D25053  27.845  20.350  28.280
 1044BOLB   C2D25054  27.475  20.210  28.360
 1044BOLB   C3D25055  27.035  20.310  28.400
 1044BOLB   C4D25056  26.665  20.260  28.510
 1045BOLB   NC125057  24.290  19.410  41.470
 1045BOLB   PO125058  24.190  19.190  41.910
 1045BOLB   GL125059  24.410  19.290  42.290
 1045BOLB   GL225060  24.430  19.660  42.320
 1045BOLB   C1A25061  24.720  19.240  42.730
 1045BOLB   C2A25062  24.910  19.350  43.080
 1045BOLB   C3A25063  25.100  19.160  43.450
 1045BOLB   C4A25064  25.430  19.290  43.620
 1045BOLB   C1B25065  24.530  19.830  42.660
 1045BOLB   C2B25066  24.640  19.870  43.080
 1045BOLB   C3B25067  24.970  20.150  43.150
 1045BOLB   C4B25068  25.410  20.130  42.920
 1045BOLB   NC225069  26.300  21.530  44.820
 1045BOLB   PO225070  26.150  21.310  45.090
 1045BOLB   GL325071  25.920  21.070  44.710
 1045BOLB   GL425072  25.910  21.160  44.400
 1045BOLB   C1C25073  25.770  20.640  44.470
 1045BOLB   C2C25074  25.600  20.180  44.620
 1045BOLB   C3C25075  25.590  19.780  44.380
 1045BOLB   C4C25076  25.530  19.600  43.960
 1045BOLB   C1D25077  25.720  21.000  44.090
 1045BOLB   C2D25078  25.530  20.620  44.040
 1045BOLB   C3D25079  25.300  20.350  43.620
 1045BOLB   C4D25080  25.420  20.470  43.280
 1046BOLB   NC125081  15.010  16.060  29.800
 1046BOLB   PO125082  14.840  15.950  29.430
 1046BOLB   GL125083  14.420  15.830  29.210
 1046BOLB   GL225084  14.160  15.790  29.590
 1046BOLB   C1A25085  13.950  16.000  29.110
 1046BOLB   C2A25086  13.510  15.970  28.900
 1046BOLB   C3A25087  13.410  15.610  28.670
 1046BOLB   C4A25088  13.090  15.440  28.340
 1046BOLB   C1B25089  13.740  15.860  29.810
 1046BOLB   C2B25090  13.300  15.930  29.830
 1046BOLB   C3B25091  12.970  15.900  29.680
 1046BOLB   C4B25092  12.780  15.590  29.420
 1046BOLB   NC225093  11.630  13.210  28.780
 1046BOLB   PO225094  11.700  13.560  29.060
 1046BOLB   GL325095  12.010  13.610  28.760
 1046BOLB   GL425096  12.320  13.810  28.880
 1046BOLB   C1C25097  12.010  14.010  28.440
 1046BOLB   C2C25098  12.150  14.400  28.340
 1046BOLB   C3C25099  12.450  14.740  28.350
 1046BOLB   C4C25100  12.690  15.110  28.280
 1046BOLB   C1D25101  12.520  13.930  28.520
 1046BOLB   C2D25102  12.690  14.360  28.520
 1046BOLB   C3D25103  12.980  14.660  28.530
 1046BOLB   C4D25104  13.160  15.040  28.690
 1047BOLB   NC125105  29.155  10.180  31.990
 1047BOLB   PO125106  29.435   9.910  31.590
 1047BOLB   GL125107  29.665   9.660  31.680
 1047BOLB   GL225108  29.905   9.690  31.490
 1047BOLB   C1A25109  29.815   9.230  31.610
 1047BOLB   C2A25110  30.175   8.950  31.360
 1047BOLB   C3A25111  30.505   8.630  31.340
 1047BOLB   C4A25112  30.535   8.250  31.100
 1047BOLB   C1B25113  30.225   9.440  31.430
 1047BOLB   C2B25114  30.645   9.500  31.340
 1047BOLB   C3B25115  30.665   9.550  30.880
 1047BOLB   C4B25116  30.655   9.330  30.560
 1047BOLB   NC225117  32.905   6.870  31.200
 1047BOLB   PO225118  32.675   7.170  30.900
 1047BOLB   GL325119  32.495   7.490  30.990
 1047BOLB   GL425120  32.345   7.770  30.730
 1047BOLB   C1C25121  32.175   7.630  31.200
 1047BOLB   C2C25122  31.745   7.800  31.230
 1047BOLB   C3C25123  31.265   7.860  31.120
 1047BOLB   C4C25124  30.815   7.990  31.150
 1047BOLB   C1D25125  31.975   7.960  30.820
 1047BOLB   C2D25126  31.595   8.170  30.920
 1047BOLB   C3D25127  31.305   8.360  30.640
 1047BOLB   C4D25128  31.075   8.730  30.560
 1048BOLB   NC125129  13.950  19.690  34.480
 1048BOLB   PO125130  13.620  19.330  34.740
 1048BOLB   GL125131  13.260  19.470  34.830
 1048BOLB   GL225132  13.080  19.340  34.550
 1048BOLB   C1A25133  12.930  19.480  35.150
 1048BOLB   C2A25134  12.470  19.440  35.260
 1048BOLB   C3A25135  12.070  19.580  35.400
 1048BOLB   C4A25136  11.680  19.560  35.210
 1048BOLB   C1B25137  12.610  19.360  34.660
 1048BOLB   C2B25138  12.180  19.390  34.410
 1048BOLB   C3B25139  11.800  19.160  34.440
 1048BOLB   C4B25140  11.750  18.690  34.310
 1048BOLB   NC225141  13.500  18.840  34.540
 1048BOLB   PO225142  13.320  19.020  34.250
 1048BOLB   GL325143  12.990  18.770  34.310
 1048BOLB   GL425144  13.070  18.650  34.640
 1048BOLB   C1C25145  12.690  18.920  34.480
 1048BOLB   C2C25146  12.230  18.860  34.730
 1048BOLB   C3C25147  11.840  18.740  34.960
 1048BOLB   C4C25148  11.680  19.130  35.220
 1048BOLB   C1D25149  13.050  18.380  34.960
 1048BOLB   C2D25150  12.680  18.150  35.140
 1048BOLB   C3D25151  12.300  17.870  35.220
 1048BOLB   C4D25152  11.910  17.700  35.460
 1049BOLB   NC125153  19.990   9.520  19.030
 1049BOLB   PO125154  20.220   9.950  19.180
 1049BOLB   GL125155  20.280  10.320  19.540
 1049BOLB   GL225156  20.120  10.660  19.410
 1049BOLB   C1A25157  20.270  10.620  19.950
 1049BOLB   C2A25158  20.140  10.760  20.240
 1049BOLB   C3A25159  19.830  11.130  20.300
 1049BOLB   C4A25160  19.540  11.450  20.520
 1049BOLB   C1B25161  20.150  11.040  19.720
 1049BOLB   C2B25162  20.350  11.200  20.040
 1049BOLB   C3B25163  20.270  11.480  20.360
 1049BOLB   C4B25164  20.310  11.480  20.790
 1049BOLB   NC225165  18.060  10.420  19.980
 1049BOLB   PO225166  18.450  10.420  20.190
 1049BOLB   GL325167  18.560  10.760  20.490
 1049BOLB   GL425168  18.870  10.800  20.290
 1049BOLB   C1C25169  18.640  10.880  20.860
 1049BOLB   C2C25170  18.830  11.260  20.940
 1049BOLB   C3C25171  19.030  11.620  21.100
 1049BOLB   C4C25172  19.450  11.740  20.880
 1049BOLB   C1D25173  18.850  11.170  20.390
 1049BOLB   C2D25174  19.090  11.430  20.260
 1049BOLB   C3D25175  19.190  11.730  19.950
 1049BOLB   C4D25176  19.520  11.790  19.660
 1050BOLB   NC125177  10.030  24.110  31.870
 1050BOLB   PO125178   9.690  23.760  31.860
 1050BOLB   GL125179  10.010  23.570  31.880
 1050BOLB   GL225180  10.230  23.510  31.570
 1050BOLB   C1A25181  10.310  23.510  32.120
 1050BOLB   C2A25182  10.570  23.280  32.120
 1050BOLB   C3A25183  11.000  23.250  32.070
 1050BOLB   C4A25184  11.460  23.220  31.920
 1050BOLB   C1B25185  10.590  23.180  31.550
 1050BOLB   C2B25186  10.500  22.720  31.530
 1050BOLB   C3B25187  10.350  22.280  31.640
 1050BOLB   C4B25188  10.190  22.030  32.000
 1050BOLB   NC225189  13.880  21.870  32.110
 1050BOLB   PO225190  13.600  22.010  31.860
 1050BOLB   GL325191  13.200  22.200  31.620
 1050BOLB   GL425192  13.170  22.340  31.920
 1050BOLB   C1C25193  12.890  22.480  31.530
 1050BOLB   C2C25194  12.440  22.520  31.500
 1050BOLB   C3C25195  12.060  22.700  31.740
 1050BOLB   C4C25196  11.790  23.020  31.850
 1050BOLB   C1D25197  12.880  22.700  31.990
 1050BOLB   C2D25198  12.570  22.970  31.810
 1050BOLB   C3D25199  12.290  23.150  31.690
 1050BOLB   C4D25200  12.310  23.580  31.520
 1051BOLB   NC125201  14.050  22.780  32.360
 1051BOLB   PO125202  14.080  22.600  32.890
 1051BOLB   GL125203  13.680  22.830  32.730
 1051BOLB   GL225204  13.620  23.000  32.960
 1051BOLB   C1A25205  13.330  23.140  32.600
 1051BOLB   C2A25206  13.070  23.440  32.610
 1051BOLB   C3A25207  12.760  23.710  32.520
 1051BOLB   C4A25208  12.540  23.900  32.320
 1051BOLB   C1B25209  13.370  23.390  33.000
 1051BOLB   C2B25210  12.990  23.730  33.040
 1051BOLB   C3B25211  12.740  24.050  33.060
 1051BOLB   C4B25212  12.420  24.350  33.240
 1051BOLB   NC225213  10.600  24.810  31.610
 1051BOLB   PO225214  10.530  25.020  31.940
 1051BOLB   GL325215  10.890  24.650  31.990
 1051BOLB   GL425216  10.770  24.300  31.910
 1051BOLB   C1C25217  11.330  24.710  31.980
 1051BOLB   C2C25218  11.740  24.500  31.920
 1051BOLB   C3C25219  11.890  24.070  31.740
 1051BOLB   C4C25220  12.330  23.900  32.000
 1051BOLB   C1D25221  10.710  23.990  31.670
 1051BOLB   C2D25222  10.770  23.620  31.820
 1051BOLB   C3D25223  11.090  23.290  31.610
 1051BOLB   C4D25224  11.410  23.400  31.330
 1052BOLB   NC125225  20.740  11.180  23.880
 1052BOLB   PO125226  20.650  10.940  24.290
 1052BOLB   GL125227  20.340  10.680  24.240
 1052BOLB   GL225228  20.550  10.570  23.870
 1052BOLB   C1A25229  20.100  10.350  24.040
 1052BOLB   C2A25230  19.900  10.260  23.840
 1052BOLB   C3A25231  19.690   9.990  23.570
 1052BOLB   C4A25232  19.590   9.490  23.510
 1052BOLB   C1B25233  20.220  10.560  23.480
 1052BOLB   C2B25234  19.850  10.590  23.350
 1052BOLB   C3B25235  19.610  10.290  23.200
 1052BOLB   C4B25236  19.760  10.040  22.790
 1052BOLB   NC225237  19.620   6.970  22.240
 1052BOLB   PO225238  19.750   7.320  22.320
 1052BOLB   GL325239  20.030   7.620  22.610
 1052BOLB   GL425240  20.380   7.650  22.530
 1052BOLB   C1C25241  19.800   7.870  22.910
 1052BOLB   C2C25242  19.540   8.200  23.130
 1052BOLB   C3C25243  19.500   8.560  23.260
 1052BOLB   C4C25244  19.410   9.030  23.420
 1052BOLB   C1D25245  20.320   8.010  22.910
 1052BOLB   C2D25246  20.420   8.410  22.970
 1052BOLB   C3D25247  20.630   8.760  23.070
 1052BOLB   C4D25248  20.720   9.140  23.170
 1053BOLB   NC125249  14.360   9.080  26.540
 1053BOLB   PO125250  14.390   9.550  26.510
 1053BOLB   GL125251  14.730   9.830  26.430
 1053BOLB   GL225252  14.470  10.040  26.180
 1053BOLB   C1A25253  14.740  10.210  26.700
 1053BOLB   C2A25254  14.960  10.560  26.970
 1053BOLB   C3A25255  15.230  10.860  27.030
 1053BOLB   C4A25256  15.540  11.120  27.040
 1053BOLB   C1B25257  14.710  10.310  26.220
 1053BOLB   C2B25258  15.120  10.420  26.380
 1053BOLB   C3B25259  15.360  10.870  26.250
 1053BOLB   C4B25260  15.520  11.180  26.350
 1053BOLB   NC225261  17.650  11.710  27.410
 1053BOLB   PO225262  17.690  11.830  26.910
 1053BOLB   GL325263  17.380  11.540  26.870
 1053BOLB   GL425264  17.350  11.390  27.150
 1053BOLB   C1C25265  16.980  11.520  26.730
 1053BOLB   C2C25266  16.620  11.630  26.800
 1053BOLB   C3C25267  16.230  11.350  26.860
 1053BOLB   C4C25268  15.880  11.120  26.820
 1053BOLB   C1D25269  17.090  11.080  26.880
 1053BOLB   C2D25270  16.740  11.130  26.640
 1053BOLB   C3D25271  16.310  10.990  26.470
 1053BOLB   C4D25272  16.010  10.850  26.170
 1054BOLB   NC125273  23.450  15.170  21.400
 1054BOLB   PO125274  23.920  15.230  21.580
 1054BOLB   GL125275  23.830  14.940  21.120
 1054BOLB   GL225276  23.830  14.630  21.160
 1054BOLB   C1A25277  23.850  15.150  20.670
 1054BOLB   C2A25278  23.890  15.040  20.270
 1054BOLB   C3A25279  24.000  14.830  19.980
 1054BOLB   C4A25280  23.710  14.650  19.780
 1054BOLB   C1B25281  23.920  14.260  20.740
 1054BOLB   C2B25282  23.810  14.030  20.390
 1054BOLB   C3B25283  23.590  13.870  19.960
 1054BOLB   C4B25284  23.340  13.940  19.620
 1054BOLB   NC225285  23.260  14.500  17.410
 1054BOLB   PO225286  23.630  14.400  17.340
 1054BOLB   GL325287  23.480  14.310  17.830
 1054BOLB   GL425288  23.110  14.410  17.920
 1054BOLB   C1C25289  23.570  14.210  18.310
 1054BOLB   C2C25290  23.340  14.400  18.670
 1054BOLB   C3C25291  23.250  14.510  19.010
 1054BOLB   C4C25292  23.400  14.430  19.480
 1054BOLB   C1D25293  23.070  14.050  18.180
 1054BOLB   C2D25294  23.230  13.890  18.610
 1054BOLB   C3D25295  23.300  13.660  19.120
 1054BOLB   C4D25296  23.710  13.620  19.380
 1055BOLB   NC125297  21.840  23.380  30.660
 1055BOLB   PO125298  21.750  23.510  30.270
 1055BOLB   GL125299  22.140  23.560  30.240
 1055BOLB   GL225300  22.090  23.890  30.090
 1055BOLB   C1A25301  22.430  23.770  30.390
 1055BOLB   C2A25302  22.800  23.880  30.490
 1055BOLB   C3A25303  22.840  24.240  30.680
 1055BOLB   C4A25304  22.910  24.690  30.600
 1055BOLB   C1B25305  22.150  24.400  30.070
 1055BOLB   C2B25306  22.060  24.780  30.150
 1055BOLB   C3B25307  22.000  25.120  30.300
 1055BOLB   C4B25308  21.910  25.220  30.730
 1055BOLB   NC225309  23.430   0.340  31.110
 1055BOLB   PO225310  23.420   0.560  30.690
 1055BOLB   GL325311  23.250   0.090  30.760
 1055BOLB   GL425312  23.070   0.070  30.920
 1055BOLB   C1C25313  23.300  26.140  30.550
 1055BOLB   C2C25314  23.090  25.770  30.380
 1055BOLB   C3C25315  22.930  25.400  30.340
 1055BOLB   C4C25316  22.820  24.950  30.300
 1055BOLB   C1D25317  23.070  25.980  30.990
 1055BOLB   C2D25318  22.850  25.530  30.890
 1055BOLB   C3D25319  22.890  25.100  30.950
 1055BOLB   C4D25320  22.980  24.820  31.260
 1056BOLB   NC125321  25.440  26.070  37.240
 1056BOLB   PO125322  25.320  25.950  36.820
 1056BOLB   GL125323  25.330  25.610  36.660
 1056BOLB   GL225324  25.010  25.410  36.690
 1056BOLB   C1A25325  25.420  25.150  36.650
 1056BOLB   C2A25326  25.420  24.690  36.660
 1056BOLB   C3A25327  25.290  24.460  36.390
 1056BOLB   C4A25328  25.180  24.070  36.190
 1056BOLB   C1B25329  24.880  24.950  36.690
 1056BOLB   C2B25330  24.830  24.360  36.710
 1056BOLB   C3B25331  24.620  23.990  36.490
 1056BOLB   C4B25332  24.370  23.560  36.460
 1056BOLB   NC225333  23.920  22.160  36.240
 1056BOLB   PO225334  24.070  22.030  35.810
 1056BOLB   GL325335  24.360  22.370  35.840
 1056BOLB   GL425336  24.610  22.130  35.760
 1056BOLB   C1C25337  24.410  22.830  35.660
 1056BOLB   C2C25338  24.410  23.250  35.720
 1056BOLB   C3C25339  24.570  23.490  36.000
 1056BOLB   C4C25340  24.840  23.650  36.220
 1056BOLB   C1D25341  24.960  22.010  35.540
 1056BOLB   C2D25342  25.220  22.150  35.280
 1056BOLB   C3D25343  25.440  22.560  35.290
 1056BOLB   C4D25344  25.650  22.940  35.110
 1057BOLB   NC125345  14.650  21.590  37.380
 1057BOLB   PO125346  14.910  21.260  37.610
 1057BOLB   GL125347  14.410  21.320  37.710
 1057BOLB   GL225348  14.240  21.060  37.920
 1057BOLB   C1A25349  14.050  21.400  37.590
 1057BOLB   C2A25350  13.770  21.660  37.620
 1057BOLB   C3A25351  13.700  22.110  37.460
 1057BOLB   C4A25352  13.450  22.490  37.510
 1057BOLB   C1B25353  13.790  20.950  37.960
 1057BOLB   C2B25354  13.340  21.010  37.950
 1057BOLB   C3B25355  13.160  21.370  38.250
 1057BOLB   C4B25356  13.160  21.780  38.300
 1057BOLB   NC225357  11.380  23.440  37.830
 1057BOLB   PO225358  11.530  23.750  38.030
 1057BOLB   GL325359  11.860  23.530  37.730
 1057BOLB   GL425360  11.720  23.280  37.510
 1057BOLB   C1C25361  12.270  23.360  37.740
 1057BOLB   C2C25362  12.620  23.190  37.910
 1057BOLB   C3C25363  12.750  22.880  37.860
 1057BOLB   C4C25364  13.130  22.700  37.690
 1057BOLB   C1D25365  12.120  22.990  37.470
 1057BOLB   C2D25366  12.540  23.030  37.450
 1057BOLB   C3D25367  12.980  23.080  37.480
 1057BOLB   C4D25368  13.410  23.020  37.460
 1058BOLB   NC125369  19.080  23.980  38.140
 1058BOLB   PO125370  18.720  24.000  38.010
 1058BOLB   GL125371  18.630  24.350  38.290
 1058BOLB   GL225372  18.860  24.240  38.590
 1058BOLB   C1A25373  18.270  24.730  38.490
 1058BOLB   C2A25374  18.160  25.130  38.520
 1058BOLB   C3A25375  18.260  25.350  38.860
 1058BOLB   C4A25376  18.200  25.700  39.160
 1058BOLB   C1B25377  18.820  24.650  38.860
 1058BOLB   C2B25378  18.500  24.950  38.930
 1058BOLB   C3B25379  18.520  25.170  39.250
 1058BOLB   C4B25380  18.180  25.360  39.530
 1058BOLB   NC225381  18.240  26.440  40.590
 1058BOLB   PO225382  17.860   0.150  40.570
 1058BOLB   GL325383  17.690  26.190  40.430
 1058BOLB   GL425384  17.830  26.040  40.640
 1058BOLB   C1C25385  17.200  26.030  40.190
 1058BOLB   C2C25386  17.060  25.930  39.710
 1058BOLB   C3C25387  17.370  25.800  39.440
 1058BOLB   C4C25388  17.840  25.700  39.460
 1058BOLB   C1D25389  18.060  25.800  40.450
 1058BOLB   C2D25390  18.050  25.540  40.090
 1058BOLB   C3D25391  18.130  25.030  39.960
 1058BOLB   C4D25392  18.260  24.880  39.650
 1059BOLB   NC125393  27.455  13.380  39.270
 1059BOLB   PO125394  27.855  13.390  39.460
 1059BOLB   GL125395  28.105  13.270  39.750
 1059BOLB   GL225396  28.175  12.960  39.700
 1059BOLB   C1A25397  28.375  13.310  40.060
 1059BOLB   C2A25398  28.375  13.390  40.540
 1059BOLB   C3A25399  28.575  13.430  41.000
 1059BOLB   C4A25400  28.545  13.350  41.430
 1059BOLB   C1B25401  28.605  12.890  39.890
 1059BOLB   C2B25402  29.065  12.750  39.940
 1059BOLB   C3B25403  29.465  12.640  40.090
 1059BOLB   C4B25404  29.405  12.560  40.510
 1059BOLB   NC225405  29.975  12.650  43.420
 1059BOLB   PO225406  29.425  12.680  43.500
 1059BOLB   GL325407  29.125  13.090  43.400
 1059BOLB   GL425408  28.895  13.270  43.560
 1059BOLB   C1C25409  29.245  13.340  43.140
 1059BOLB   C2C25410  29.205  13.400  42.700
 1059BOLB   C3C25411  29.065  13.480  42.250
 1059BOLB   C4C25412  28.715  13.460  41.890
 1059BOLB   C1D25413  28.645  13.000  43.290
 1059BOLB   C2D25414  28.385  12.760  43.120
 1059BOLB   C3D25415  28.185  12.450  43.230
 1059BOLB   C4D25416  27.935  12.090  43.350
 1060BOLB   NC125417  18.230  25.170  20.060
 1060BOLB   PO125418  17.940  25.050  19.900
 1060BOLB   GL125419  17.870  24.850  20.240
 1060BOLB   GL225420  18.150  24.660  20.300
 1060BOLB   C1A25421  17.490  24.530  20.320
 1060BOLB   C2A25422  16.990  24.480  20.550
 1060BOLB   C3A25423  16.760  24.140  20.750
 1060BOLB   C4A25424  16.920  23.710  20.910
 1060BOLB   C1B25425  17.860  24.470  20.720
 1060BOLB   C2B25426  17.490  24.270  20.850
 1060BOLB   C3B25427  17.230  23.980  20.590
 1060BOLB   C4B25428  16.950  24.060  20.220
 1060BOLB   NC225429  17.820  23.940  18.920
 1060BOLB   PO225430  18.040  24.150  19.300
 1060BOLB   GL325431  17.940  24.070  19.670
 1060BOLB   GL425432  17.830  23.690  19.800
 1060BOLB   C1C25433  17.600  24.070  19.990
 1060BOLB   C2C25434  17.720  24.040  20.400
 1060BOLB   C3C25435  17.690  23.770  20.700
 1060BOLB   C4C25436  17.410  23.620  20.930
 1060BOLB   C1D25437  18.050  23.740  20.170
 1060BOLB   C2D25438  18.140  23.640  20.610
 1060BOLB   C3D25439  18.210  23.610  21.060
 1060BOLB   C4D25440  18.200  23.410  21.380
 1061BOLB   NC125441  23.470  10.940  23.050
 1061BOLB   PO125442  23.280  11.050  22.750
 1061BOLB   GL125443  23.080  10.640  22.580
 1061BOLB   GL225444  22.880  10.680  22.490
 1061BOLB   C1A25445  22.930  10.180  22.420
 1061BOLB   C2A25446  22.600   9.890  22.130
 1061BOLB   C3A25447  22.060   9.940  22.140
 1061BOLB   C4A25448  21.680   9.470  21.920
 1061BOLB   C1B25449  22.670  10.500  22.090
 1061BOLB   C2B25450  22.470  10.700  21.730
 1061BOLB   C3B25451  22.050  10.830  21.530
 1061BOLB   C4B25452  21.860  11.010  21.130
 1061BOLB   NC225453  20.860   8.510  20.240
 1061BOLB   PO225454  20.370   8.620  20.410
 1061BOLB   GL325455  20.480   8.850  20.790
 1061BOLB   GL425456  20.540   8.670  21.130
 1061BOLB   C1C25457  20.950   8.840  20.870
 1061BOLB   C2C25458  21.400   8.950  20.970
 1061BOLB   C3C25459  21.720   9.070  21.320
 1061BOLB   C4C25460  21.620   9.250  21.580
 1061BOLB   C1D25461  20.680   9.110  21.190
 1061BOLB   C2D25462  21.080   9.190  21.380
 1061BOLB   C3D25463  21.180   9.410  21.720
 1061BOLB   C4D25464  21.210   9.500  22.110
 1062BOLB   NC125465  24.950  16.590  42.650
 1062BOLB   PO125466  25.180  16.970  42.460
 1062BOLB   GL125467  25.090  17.310  42.740
 1062BOLB   GL225468  25.340  17.200  42.970
 1062BOLB   C1A25469  24.910  17.520  43.160
 1062BOLB   C2A25470  24.920  17.570  43.630
 1062BOLB   C3A25471  25.130  17.670  43.930
 1062BOLB   C4A25472  25.220  17.920  44.220
 1062BOLB   C1B25473  25.390  17.190  43.430
 1062BOLB   C2B25474  25.570  17.380  43.850
 1062BOLB   C3B25475  25.510  17.560  44.320
 1062BOLB   C4B25476  25.300  17.750  44.700
 1062BOLB   NC225477  26.250  18.770  47.060
 1062BOLB   PO225478  26.090  18.810  46.560
 1062BOLB   GL325479  25.960  18.730  46.090
 1062BOLB   GL425480  26.040  18.970  45.820
 1062BOLB   C1C25481  25.890  18.420  45.620
 1062BOLB   C2C25482  25.910  18.350  45.170
 1062BOLB   C3C25483  25.860  18.320  44.800
 1062BOLB   C4C25484  25.560  18.140  44.440
 1062BOLB   C1D25485  25.710  18.900  45.450
 1062BOLB   C2D25486  25.620  19.220  45.170
 1062BOLB   C3D25487  25.220  19.490  45.210
 1062BOLB   C4D25488  24.890  19.810  45.210
 1063BOLB   NC125489  11.870  26.370  27.980
 1063BOLB   PO125490  12.190  26.230  28.300
 1063BOLB   GL125491  12.510  26.110  28.490
 1063BOLB   GL225492  12.390  25.870  28.590
 1063BOLB   C1A25493  12.990  26.030  28.540
 1063BOLB   C2A25494  13.420  25.860  28.440
 1063BOLB   C3A25495  13.780  26.120  28.270
 1063BOLB   C4A25496  13.950  25.870  27.930
 1063BOLB   C1B25497  12.730  25.540  28.460
 1063BOLB   C2B25498  13.150  25.390  28.310
 1063BOLB   C3B25499  13.520  25.360  28.170
 1063BOLB   C4B25500  13.750  24.970  28.030
 1063BOLB   NC225501  13.670   0.590  27.610
 1063BOLB   PO225502  13.920   0.960  27.430
 1063BOLB   GL325503  14.210   0.600  27.620
 1063BOLB   GL425504  14.060   0.610  27.960
 1063BOLB   C1C25505  14.520   0.230  27.610
 1063BOLB   C2C25506  14.750  26.340  27.850
 1063BOLB   C3C25507  14.710  25.940  27.860
 1063BOLB   C4C25508  14.400  25.740  27.800
 1063BOLB   C1D25509  14.340   0.260  28.170
 1063BOLB   C2D25510  14.370  26.190  28.190
 1063BOLB   C3D25511  14.280  25.780  28.330
 1063BOLB   C4D25512  14.020  25.380  28.230
 1064BOLB   NC125513  17.160  15.100  40.170
 1064BOLB   PO125514  17.400  14.720  40.020
 1064BOLB   GL125515  17.020  14.640  40.100
 1064BOLB   GL225516  16.720  14.550  39.980
 1064BOLB   C1A25517  16.780  14.690  40.470
 1064BOLB   C2A25518  16.430  14.470  40.620
 1064BOLB   C3A25519  16.070  14.520  40.850
 1064BOLB   C4A25520  15.790  14.140  40.990
 1064BOLB   C1B25521  16.570  14.150  40.060
 1064BOLB   C2B25522  16.220  14.090  40.240
 1064BOLB   C3B25523  16.090  14.050  40.640
 1064BOLB   C4B25524  15.640  13.840  40.580
 1064BOLB   NC225525  14.810  13.010  42.550
 1064BOLB   PO225526  14.740  13.490  42.600
 1064BOLB   GL325527  14.870  13.500  42.230
 1064BOLB   GL425528  15.170  13.240  42.260
 1064BOLB   C1C25529  14.790  13.230  41.910
 1064BOLB   C2C25530  15.080  13.220  41.560
 1064BOLB   C3C25531  15.290  13.440  41.380
 1064BOLB   C4C25532  15.450  13.790  41.160
 1064BOLB   C1D25533  15.250  13.550  41.960
 1064BOLB   C2D25534  15.610  13.780  41.740
 1064BOLB   C3D25535  16.030  14.040  41.670
 1064BOLB   C4D25536  16.450  13.900  41.740
 1065BOLB   NC125537  19.860  23.450  38.250
 1065BOLB   PO125538  19.540  23.740  37.980
 1065BOLB   GL125539  19.570  24.180  38.100
 1065BOLB   GL225540  19.340  24.290  38.400
 1065BOLB   C1A25541  20.050  24.350  38.330
 1065BOLB   C2A25542  20.400  24.680  38.230
 1065BOLB   C3A25543  20.630  25.000  38.160
 1065BOLB   C4A25544  20.780  25.380  38.130
 1065BOLB   C1B25545  19.570  24.620  38.390
 1065BOLB   C2B25546  19.960  24.750  38.630
 1065BOLB   C3B25547  20.050  25.220  38.860
 1065BOLB   C4B25548  20.010  25.700  38.780
 1065BOLB   NC225549  20.910   0.610  39.680
 1065BOLB   PO225550  21.240   0.420  39.760
 1065BOLB   GL325551  21.330   0.080  39.710
 1065BOLB   GL425552  21.230  26.280  39.940
 1065BOLB   C1C25553  21.330  26.240  39.370
 1065BOLB   C2C25554  21.150  26.020  39.090
 1065BOLB   C3C25555  20.900  25.860  38.700
 1065BOLB   C4C25556  20.880  25.650  38.380
 1065BOLB   C1D25557  21.030  26.030  39.730
 1065BOLB   C2D25558  20.930  25.590  39.890
 1065BOLB   C3D25559  20.850  25.200  39.660
 1065BOLB   C4D25560  21.090  24.830  39.460
 1066BOLB   NC125561  23.720   3.710  36.690
 1066BOLB   PO125562  23.320   3.990  36.530
 1066BOLB   GL125563  23.410   4.390  36.580
 1066BOLB   GL225564  23.810   4.480  36.420
 1066BOLB   C1A25565  23.580   4.880  36.630
 1066BOLB   C2A25566  23.630   5.380  36.550
 1066BOLB   C3A25567  23.670   5.390  36.070
 1066BOLB   C4A25568  23.500   5.280  35.680
 1066BOLB   C1B25569  23.980   4.970  36.450
 1066BOLB   C2B25570  24.290   5.280  36.520
 1066BOLB   C3B25571  24.740   5.430  36.560
 1066BOLB   C4B25572  25.110   5.580  36.440
 1066BOLB   NC225573  22.410   3.340  34.790
 1066BOLB   PO225574  21.980   3.650  34.910
 1066BOLB   GL325575  21.970   4.000  34.680
 1066BOLB   GL425576  22.200   3.990  34.480
 1066BOLB   C1C25577  22.230   4.400  34.920
 1066BOLB   C2C25578  22.520   4.770  35.110
 1066BOLB   C3C25579  22.800   4.820  35.220
 1066BOLB   C4C25580  23.200   5.060  35.370
 1066BOLB   C1D25581  22.040   4.380  34.360
 1066BOLB   C2D25582  22.320   4.670  34.190
 1066BOLB   C3D25583  22.380   4.800  33.880
 1066BOLB   C4D25584  22.140   4.980  33.570
 1067BOLB   NC125585  18.310  22.760  23.770
 1067BOLB   PO125586  17.860  22.930  23.830
 1067BOLB   GL125587  17.660  23.270  23.590
 1067BOLB   GL225588  17.410  23.400  23.790
 1067BOLB   C1A25589  17.740  23.730  23.500
 1067BOLB   C2A25590  17.710  24.190  23.620
 1067BOLB   C3A25591  17.800  24.280  24.000
 1067BOLB   C4A25592  17.780  24.680  24.190
 1067BOLB   C1B25593  17.240  23.710  23.630
 1067BOLB   C2B25594  17.010  24.110  23.690
 1067BOLB   C3B25595  16.760  24.360  23.430
 1067BOLB   C4B25596  16.650  24.720  23.190
 1067BOLB   NC225597  17.240  26.440  22.450
 1067BOLB   PO225598  16.940   0.110  22.640
 1067BOLB   GL325599  17.000  26.050  22.800
 1067BOLB   GL425600  16.780  25.840  22.820
 1067BOLB   C1C25601  17.170  25.590  23.180
 1067BOLB   C2C25602  17.260  25.460  23.510
 1067BOLB   C3C25603  17.460  25.390  23.870
 1067BOLB   C4C25604  17.740  25.000  23.950
 1067BOLB   C1D25605  16.660  25.410  23.020
 1067BOLB   C2D25606  16.860  25.160  23.340
 1067BOLB   C3D25607  17.070  24.730  23.450
 1067BOLB   C4D25608  17.430  24.690  23.710
 1068BOLB   NC125609  22.310  23.060  29.450
 1068BOLB   PO125610  22.400  22.960  29.020
 1068BOLB   GL125611  22.650  23.300  29.040
 1068BOLB   GL225612  22.700  23.410  29.330
 1068BOLB   C1A25613  22.920  23.450  28.800
 1068BOLB   C2A25614  23.320  23.410  28.670
 1068BOLB   C3A25615  23.600  23.700  28.680
 1068BOLB   C4A25616  23.920  23.830  28.420
 1068BOLB   C1B25617  23.080  23.320  29.260
 1068BOLB   C2B25618  23.410  23.190  29.470
 1068BOLB   C3B25619  23.700  23.280  29.760
 1068BOLB   C4B25620  23.960  23.650  29.930
 1068BOLB   NC225621  25.780  24.960  28.650
 1068BOLB   PO225622  25.890  24.660  28.970
 1068BOLB   GL325623  25.680  24.390  29.190
 1068BOLB   GL425624  25.650  24.210  29.510
 1068BOLB   C1C25625  25.390  24.190  29.040
 1068BOLB   C2C25626  25.040  24.230  28.820
 1068BOLB   C3C25627  24.680  23.950  28.570
 1068BOLB   C4C25628  24.340  23.950  28.310
 1068BOLB   C1D25629  25.590  23.680  29.450
 1068BOLB   C2D25630  25.370  23.470  29.730
 1068BOLB   C3D25631  25.260  23.240  30.120
 1068BOLB   C4D25632  25.440  23.230  30.510
 1069BOLB   NC125633  14.670  17.040  37.440
 1069BOLB   PO125634  14.760  17.230  37.810
 1069BOLB   GL125635  14.470  17.030  38.060
 1069BOLB   GL225636  14.080  17.000  38.220
 1069BOLB   C1A25637  14.400  16.820  38.580
 1069BOLB   C2A25638  14.140  16.800  38.950
 1069BOLB   C3A25639  13.780  16.980  39.110
 1069BOLB   C4A25640  13.380  16.850  39.340
 1069BOLB   C1B25641  13.880  17.180  38.600
 1069BOLB   C2B25642  13.530  17.270  38.820
 1069BOLB   C3B25643  13.380  17.370  39.280
 1069BOLB   C4B25644  13.450  17.500  39.710
 1069BOLB   NC225645  11.280  16.440  40.910
 1069BOLB   PO225646  11.600  16.410  40.680
 1069BOLB   GL325647  11.940  16.610  40.310
 1069BOLB   GL425648  12.080  16.350  40.030
 1069BOLB   C1C25649  12.130  16.880  40.020
 1069BOLB   C2C25650  12.320  17.070  39.650
 1069BOLB   C3C25651  12.640  17.180  39.360
 1069BOLB   C4C25652  12.970  16.910  39.240
 1069BOLB   C1D25653  12.520  16.460  40.230
 1069BOLB   C2D25654  12.910  16.260  40.260
 1069BOLB   C3D25655  13.300  16.390  40.160
 1069BOLB   C4D25656  13.470  16.600  39.780
 1070BOLB   NC125657  32.885  16.340  39.100
 1070BOLB   PO125658  32.485  16.250  39.320
 1070BOLB   GL125659  32.035  16.060  39.040
 1070BOLB   GL225660  31.995  15.670  38.870
 1070BOLB   C1A25661  31.695  16.010  38.710
 1070BOLB   C2A25662  31.375  15.740  38.480
 1070BOLB   C3A25663  31.035  15.850  38.260
 1070BOLB   C4A25664  30.505  16.040  38.380
 1070BOLB   C1B25665  31.875  15.470  38.490
 1070BOLB   C2B25666  31.685  15.230  38.140
 1070BOLB   C3B25667  31.515  15.320  37.680
 1070BOLB   C4B25668  31.275  15.110  37.390
 1070BOLB   NC225669  28.985  15.290  37.150
 1070BOLB   PO225670  28.755  15.600  36.860
 1070BOLB   GL325671  29.145  15.750  37.060
 1070BOLB   GL425672  29.235  15.890  36.810
 1070BOLB   C1C25673  29.625  15.940  37.110
 1070BOLB   C2C25674  29.935  16.000  37.450
 1070BOLB   C3C25675  30.055  16.070  37.810
 1070BOLB   C4C25676  30.155  15.910  38.250
 1070BOLB   C1D25677  29.425  16.350  36.810
 1070BOLB   C2D25678  29.815  16.590  36.510
 1070BOLB   C3D25679  30.165  16.850  36.500
 1070BOLB   C4D25680  30.675  16.890  36.500
 1071BOLB   NC125681  21.900  17.430  21.860
 1071BOLB   PO125682  22.210  17.710  21.650
 1071BOLB   GL125683  22.200  17.890  21.340
 1071BOLB   GL225684  22.180  17.700  21.070
 1071BOLB   C1A25685  22.460  18.270  21.130
 1071BOLB   C2A25686  22.430  18.550  20.820
 1071BOLB   C3A25687  22.430  18.540  20.280
 1071BOLB   C4A25688  21.950  18.610  20.040
 1071BOLB   C1B25689  22.210  18.000  20.790
 1071BOLB   C2B25690  22.520  17.980  20.460
 1071BOLB   C3B25691  22.690  18.110  20.140
 1071BOLB   C4B25692  22.920  18.130  19.840
 1071BOLB   NC225693  21.880  18.130  17.460
 1071BOLB   PO225694  21.940  18.630  17.430
 1071BOLB   GL325695  21.840  18.610  17.890
 1071BOLB   GL425696  22.050  18.330  18.050
 1071BOLB   C1C25697  21.780  18.670  18.350
 1071BOLB   C2C25698  21.550  18.760  18.770
 1071BOLB   C3C25699  21.440  18.640  19.220
 1071BOLB   C4C25700  21.690  18.620  19.670
 1071BOLB   C1D25701  22.220  18.430  18.480
 1071BOLB   C2D25702  22.430  18.370  18.890
 1071BOLB   C3D25703  22.660  18.050  19.090
 1071BOLB   C4D25704  22.840  17.830  19.470
 1072BOLB   NC125705  21.800  10.050  25.210
 1072BOLB   PO125706  22.010   9.680  25.300
 1072BOLB   GL125707  22.020   9.240  25.310
 1072BOLB   GL225708  21.670   9.060  25.140
 1072BOLB   C1A25709  22.140   8.810  25.290
 1072BOLB   C2A25710  21.850   8.530  25.270
 1072BOLB   C3A25711  21.900   8.240  25.060
 1072BOLB   C4A25712  21.720   8.030  24.780
 1072BOLB   C1B25713  21.840   8.740  24.790
 1072BOLB   C2B25714  21.450   8.600  24.710
 1072BOLB   C3B25715  21.270   8.450  24.220
 1072BOLB   C4B25716  21.320   8.530  23.840
 1072BOLB   NC225717  20.760   5.860  22.940
 1072BOLB   PO225718  20.760   6.060  23.430
 1072BOLB   GL325719  20.820   6.420  23.770
 1072BOLB   GL425720  20.690   6.590  23.510
 1072BOLB   C1C25721  21.030   6.720  24.090
 1072BOLB   C2C25722  21.390   6.940  24.200
 1072BOLB   C3C25723  21.600   7.380  24.260
 1072BOLB   C4C25724  21.840   7.690  24.440
 1072BOLB   C1D25725  20.930   6.880  23.580
 1072BOLB   C2D25726  21.170   7.230  23.810
 1072BOLB   C3D25727  21.280   7.700  23.950
 1072BOLB   C4D25728  21.490   8.050  24.180
 1073BOLB   NC125729  24.230   9.130  44.910
 1073BOLB   PO125730  24.460   9.330  44.650
 1073BOLB   GL125731  24.650   9.630  44.420
 1073BOLB   GL225732  24.700   9.750  44.690
 1073BOLB   C1A25733  24.570   9.860  44.020
 1073BOLB   C2A25734  24.460   9.770  43.560
 1073BOLB   C3A25735  24.530  10.070  43.210
 1073BOLB   C4A25736  24.990  10.140  43.130
 1073BOLB   C1B25737  24.790  10.120  44.420
 1073BOLB   C2B25738  24.900  10.330  44.150
 1073BOLB   C3B25739  25.000  10.650  44.000
 1073BOLB   C4B25740  24.740  11.030  43.750
 1073BOLB   NC225741  26.190  10.400  45.110
 1073BOLB   PO225742  25.910  10.540  45.310
 1073BOLB   GL325743  25.700  10.540  44.970
 1073BOLB   GL425744  25.490  10.800  44.840
 1073BOLB   C1C25745  25.750  10.360  44.570
 1073BOLB   C2C25746  25.530  10.440  44.160
 1073BOLB   C3C25747  25.250  10.250  43.860
 1073BOLB   C4C25748  25.190  10.330  43.380
 1073BOLB   C1D25749  25.290  11.130  44.590
 1073BOLB   C2D25750  25.110  11.420  44.240
 1073BOLB   C3D25751  25.060  11.370  43.900
 1073BOLB   C4D25752  24.810  11.530  43.550
 1074BOLB   NC125753  23.580   8.930  37.670
 1074BOLB   PO125754  23.140   8.930  37.860
 1074BOLB   GL125755  23.180   8.540  38.040
 1074BOLB   GL225756  23.460   8.370  37.890
 1074BOLB   C1A25757  22.920   8.200  38.170
 1074BOLB   C2A25758  22.490   8.070  38.260
 1074BOLB   C3A25759  22.160   7.900  38.520
 1074BOLB   C4A25760  21.690   7.880  38.540
 1074BOLB   C1B25761  23.400   8.120  38.260
 1074BOLB   C2B25762  22.970   7.850  38.490
 1074BOLB   C3B25763  22.630   7.760  38.630
 1074BOLB   C4B25764  22.430   7.440  38.550
 1074BOLB   NC225765  20.720   5.690  38.590
 1074BOLB   PO225766  20.830   5.740  39.030
 1074BOLB   GL325767  20.950   6.090  38.830
 1074BOLB   GL425768  21.190   6.020  38.400
 1074BOLB   C1C25769  21.260   6.340  38.760
 1074BOLB   C2C25770  21.320   6.690  38.640
 1074BOLB   C3C25771  21.310   7.120  38.450
 1074BOLB   C4C25772  21.410   7.500  38.530
 1074BOLB   C1D25773  21.110   6.460  38.190
 1074BOLB   C2D25774  21.250   6.860  38.020
 1074BOLB   C3D25775  20.770   7.020  37.790
 1074BOLB   C4D25776  20.460   7.230  37.550
 1075BOLB   NC125777  23.060   8.670  27.990
 1075BOLB   PO125778  22.930   8.930  27.580
 1075BOLB   GL125779  22.590   8.560  27.460
 1075BOLB   GL225780  22.270   8.540  27.300
 1075BOLB   C1A25781  22.620   8.120  27.400
 1075BOLB   C2A25782  22.560   7.680  27.500
 1075BOLB   C3A25783  22.320   7.320  27.210
 1075BOLB   C4A25784  22.450   6.880  27.110
 1075BOLB   C1B25785  22.260   8.190  27.000
 1075BOLB   C2B25786  22.250   7.800  27.120
 1075BOLB   C3B25787  22.200   7.420  26.710
 1075BOLB   C4B25788  22.320   6.960  26.590
 1075BOLB   NC225789  21.040   4.550  26.640
 1075BOLB   PO225790  21.110   5.020  26.420
 1075BOLB   GL325791  21.310   5.350  26.590
 1075BOLB   GL425792  21.650   5.530  26.380
 1075BOLB   C1C25793  21.360   5.840  26.770
 1075BOLB   C2C25794  21.780   5.980  26.620
 1075BOLB   C3C25795  22.080   6.210  26.750
 1075BOLB   C4C25796  22.330   6.560  26.900
 1075BOLB   C1D25797  21.300   5.810  26.230
 1075BOLB   C2D25798  20.880   5.840  26.010
 1075BOLB   C3D25799  20.410   6.010  25.840
 1075BOLB   C4D25800  20.150   6.390  26.000
 1076BOLB   NC125801  23.240  19.390  33.020
 1076BOLB   PO125802  23.410  19.750  33.250
 1076BOLB   GL125803  23.610  19.750  32.810
 1076BOLB   GL225804  23.950  19.910  32.740
 1076BOLB   C1A25805  23.860  19.540  32.450
 1076BOLB   C2A25806  24.020  19.400  32.150
 1076BOLB   C3A25807  23.880  19.280  31.740
 1076BOLB   C4A25808  23.990  19.450  31.290
 1076BOLB   C1B25809  24.360  20.110  32.760
 1076BOLB   C2B25810  24.820  20.020  32.920
 1076BOLB   C3B25811  25.180  20.140  32.940
 1076BOLB   C4B25812  25.470  20.330  32.880
 1076BOLB   NC225813  22.240  19.360  29.440
 1076BOLB   PO225814  22.120  19.770  29.500
 1076BOLB   GL325815  22.450  19.760  29.880
 1076BOLB   GL425816  22.660  20.020  29.880
 1076BOLB   C1C25817  22.870  19.620  30.170
 1076BOLB   C2C25818  23.160  19.530  30.520
 1076BOLB   C3C25819  23.430  19.260  30.690
 1076BOLB   C4C25820  23.720  19.240  31.060
 1076BOLB   C1D25821  22.880  20.110  30.220
 1076BOLB   C2D25822  23.010  19.990  30.670
 1076BOLB   C3D25823  23.240  19.820  31.080
 1076BOLB   C4D25824  23.570  19.700  31.330
 1077BOLB   NC125825  20.740   9.080  33.190
 1077BOLB   PO125826  20.430   9.050  32.910
 1077BOLB   GL125827  20.090   8.790  32.760
 1077BOLB   GL225828  20.240   8.670  32.520
 1077BOLB   C1A25829  19.780   8.610  32.980
 1077BOLB   C2A25830  19.490   8.320  32.930
 1077BOLB   C3A25831  19.430   7.930  32.970
 1077BOLB   C4A25832  19.290   7.640  33.010
 1077BOLB   C1B25833  20.080   8.210  32.480
 1077BOLB   C2B25834  20.190   7.780  32.310
 1077BOLB   C3B25835  20.020   7.440  32.310
 1077BOLB   C4B25836  19.710   7.270  32.110
 1077BOLB   NC225837  18.410   5.600  33.230
 1077BOLB   PO225838  18.830   5.220  33.350
 1077BOLB   GL325839  19.100   5.560  33.520
 1077BOLB   GL425840  19.420   5.600  33.630
 1077BOLB   C1C25841  19.260   6.040  33.420
 1077BOLB   C2C25842  19.130   6.380  33.230
 1077BOLB   C3C25843  19.140   6.750  33.050
 1077BOLB   C4C25844  19.300   7.200  33.050
 1077BOLB   C1D25845  19.620   5.930  33.810
 1077BOLB   C2D25846  19.900   6.190  34.060
 1077BOLB   C3D25847  20.300   6.420  34.020
 1077BOLB   C4D25848  20.470   6.730  33.780
 1078BOLB   NC125849  25.720  17.710  26.480
 1078BOLB   PO125850  25.850  17.730  26.030
 1078BOLB   GL125851  26.260  17.890  25.980
 1078BOLB   GL225852  26.390  18.220  25.880
 1078BOLB   C1A25853  26.735  17.870  25.810
 1078BOLB   C2A25854  27.115  18.090  25.550
 1078BOLB   C3A25855  27.535  18.010  25.740
 1078BOLB   C4A25856  27.925  18.160  25.590
 1078BOLB   C1B25857  26.605  18.460  25.550
 1078BOLB   C2B25858  27.005  18.600  25.440
 1078BOLB   C3B25859  27.445  18.430  25.250
 1078BOLB   C4B25860  27.825  18.570  25.270
 1078BOLB   NC225861  29.945  19.760  24.200
 1078BOLB   PO225862  29.805  19.400  24.350
 1078BOLB   GL325863  29.635  19.100  24.550
 1078BOLB   GL425864  29.395  19.140  24.350
 1078BOLB   C1C25865  29.245  18.920  24.830
 1078BOLB   C2C25866  28.885  18.690  25.050
 1078BOLB   C3C25867  28.565  18.520  25.170
 1078BOLB   C4C25868  28.265  18.370  25.440
 1078BOLB   C1D25869  29.105  19.320  24.540
 1078BOLB   C2D25870  28.755  18.980  24.650
 1078BOLB   C3D25871  28.495  18.700  24.690
 1078BOLB   C4D25872  28.445  18.200  24.750
 1079BOLB   NC125873  18.890  12.570  38.610
 1079BOLB   PO125874  18.550  12.230  38.660
 1079BOLB   GL125875  18.420  12.000  38.900
 1079BOLB   GL225876  18.480  11.700  38.750
 1079BOLB   C1A25877  18.110  12.060  39.170
 1079BOLB   C2A25878  17.810  11.900  39.420
 1079BOLB   C3A25879  17.650  11.680  39.760
 1079BOLB   C4A25880  17.620  11.150  39.940
 1079BOLB   C1B25881  18.200  11.550  39.010
 1079BOLB   C2B25882  18.140  11.220  39.090
 1079BOLB   C3B25883  17.880  10.840  38.970
 1079BOLB   C4B25884  17.690  10.490  39.220
 1079BOLB   NC225885  16.310   8.920  40.310
 1079BOLB   PO225886  16.460   9.290  40.490
 1079BOLB   GL325887  16.500   9.620  40.210
 1079BOLB   GL425888  16.790   9.600  40.200
 1079BOLB   C1C25889  16.630  10.010  40.020
 1079BOLB   C2C25890  16.680  10.350  40.050
 1079BOLB   C3C25891  16.960  10.680  40.180
 1079BOLB   C4C25892  17.400  10.690  40.010
 1079BOLB   C1D25893  17.090   9.870  39.960
 1079BOLB   C2D25894  17.210  10.240  39.820
 1079BOLB   C3D25895  17.260  10.620  39.500
 1079BOLB   C4D25896  17.260  10.810  39.100
 1080BOLB   NC125897  21.030  17.740  21.030
 1080BOLB   PO125898  21.330  17.500  21.120
 1080BOLB   GL125899  21.330  17.410  20.660
 1080BOLB   GL225900  20.930  17.460  20.580
 1080BOLB   C1A25901  21.420  17.370  20.330
 1080BOLB   C2A25902  21.270  17.470  19.880
 1080BOLB   C3A25903  21.450  17.630  19.440
 1080BOLB   C4A25904  21.620  17.410  19.060
 1080BOLB   C1B25905  20.900  17.360  20.150
 1080BOLB   C2B25906  20.880  17.020  19.820
 1080BOLB   C3B25907  20.760  16.940  19.450
 1080BOLB   C4B25908  20.500  16.620  19.120
 1080BOLB   NC225909  21.710  17.530  16.650
 1080BOLB   PO225910  22.150  17.240  16.880
 1080BOLB   GL325911  22.090  17.180  17.370
 1080BOLB   GL425912  21.850  17.090  17.470
 1080BOLB   C1C25913  22.180  17.170  17.840
 1080BOLB   C2C25914  22.030  17.180  18.190
 1080BOLB   C3C25915  21.780  17.440  18.360
 1080BOLB   C4C25916  21.680  17.530  18.680
 1080BOLB   C1D25917  21.650  16.860  17.780
 1080BOLB   C2D25918  21.880  16.570  18.010
 1080BOLB   C3D25919  22.140  16.210  17.930
 1080BOLB   C4D25920  22.040  15.980  17.600
 1081BOLB   NC125921  20.830   7.840  20.980
 1081BOLB   PO125922  20.930   8.230  20.680
 1081BOLB   GL125923  21.010   8.380  21.160
 1081BOLB   GL225924  21.320   8.360  21.220
 1081BOLB   C1A25925  20.850   8.740  21.510
 1081BOLB   C2A25926  20.650   9.050  21.680
 1081BOLB   C3A25927  20.640   9.430  21.890
 1081BOLB   C4A25928  20.680   9.540  22.220
 1081BOLB   C1B25929  21.350   8.750  21.430
 1081BOLB   C2B25930  21.120   8.930  21.860
 1081BOLB   C3B25931  20.870   9.060  22.170
 1081BOLB   C4B25932  20.500   8.790  22.340
 1081BOLB   NC225933  21.230  11.010  23.380
 1081BOLB   PO225934  20.850  11.300  23.420
 1081BOLB   GL325935  20.730  11.030  23.110
 1081BOLB   GL425936  20.770  10.710  23.260
 1081BOLB   C1C25937  20.270  10.880  23.080
 1081BOLB   C2C25938  20.170  10.430  23.000
 1081BOLB   C3C25939  20.280  10.030  22.900
 1081BOLB   C4C25940  20.510   9.720  22.660
 1081BOLB   C1D25941  20.640  10.300  23.310
 1081BOLB   C2D25942  20.260  10.020  23.470
 1081BOLB   C3D25943  19.890   9.780  23.190
 1081BOLB   C4D25944  19.420   9.760  23.110
 1082BOLB   NC125945  13.970  21.560  26.610
 1082BOLB   PO125946  14.160  21.200  26.520
 1082BOLB   GL125947  13.830  21.220  26.230
 1082BOLB   GL225948  13.580  21.550  26.350
 1082BOLB   C1A25949  13.430  21.210  26.060
 1082BOLB   C2A25950  12.950  21.320  26.070
 1082BOLB   C3A25951  12.550  21.260  26.230
 1082BOLB   C4A25952  12.150  21.120  26.090
 1082BOLB   C1B25953  13.280  21.820  26.540
 1082BOLB   C2B25954  12.780  21.770  26.370
 1082BOLB   C3B25955  12.360  21.990  26.390
 1082BOLB   C4B25956  12.270  22.410  26.300
 1082BOLB   NC225957   9.680  21.040  25.530
 1082BOLB   PO225958   9.820  20.820  25.170
 1082BOLB   GL325959  10.340  20.790  25.320
 1082BOLB   GL425960  10.360  20.430  25.350
 1082BOLB   C1C25961  10.820  20.670  25.460
 1082BOLB   C2C25962  11.090  20.520  25.880
 1082BOLB   C3C25963  11.490  20.630  25.920
 1082BOLB   C4C25964  11.890  20.950  25.830
 1082BOLB   C1D25965  10.730  20.200  25.590
 1082BOLB   C2D25966  10.980  20.010  25.860
 1082BOLB   C3D25967  11.360  20.180  26.120
 1082BOLB   C4D25968  11.770  20.360  26.230
 1083BOLB   NC125969  15.910  15.900  25.500
 1083BOLB   PO125970  15.760  15.980  25.140
 1083BOLB   GL125971  15.450  15.860  24.840
 1083BOLB   GL225972  15.220  16.040  24.620
 1083BOLB   C1A25973  15.480  15.670  24.420
 1083BOLB   C2A25974  15.190  15.260  24.170
 1083BOLB   C3A25975  14.930  15.130  23.990
 1083BOLB   C4A25976  14.520  15.000  23.900
 1083BOLB   C1B25977  14.830  16.000  24.610
 1083BOLB   C2B25978  14.510  15.640  24.670
 1083BOLB   C3B25979  14.200  15.230  24.760
 1083BOLB   C4B25980  13.870  15.270  24.860
 1083BOLB   NC225981  13.480  14.280  21.460
 1083BOLB   PO225982  13.400  14.520  21.820
 1083BOLB   GL325983  13.490  14.390  22.240
 1083BOLB   GL425984  13.700  14.590  22.310
 1083BOLB   C1C25985  13.340  14.650  22.580
 1083BOLB   C2C25986  13.430  14.850  23.120
 1083BOLB   C3C25987  13.800  15.230  23.250
 1083BOLB   C4C25988  14.100  15.140  23.710
 1083BOLB   C1D25989  14.010  14.560  22.510
 1083BOLB   C2D25990  14.490  14.880  22.600
 1083BOLB   C3D25991  14.720  15.250  22.700
 1083BOLB   C4D25992  14.910  15.720  22.540
 1084BOLB   NC125993  18.490  13.570  23.930
 1084BOLB   PO125994  18.640  13.150  24.030
 1084BOLB   GL125995  18.620  12.690  23.990
 1084BOLB   GL225996  18.610  12.430  24.290
 1084BOLB   C1A25997  18.460  12.370  23.750
 1084BOLB   C2A25998  18.120  12.070  23.670
 1084BOLB   C3A25999  18.050  11.820  23.390
 1084BOLB   C4A26000  17.750  11.630  23.180
 1084BOLB   C1B26001  18.320  12.110  24.210
 1084BOLB   C2B26002  18.070  11.730  24.080
 1084BOLB   C3B26003  17.740  11.620  23.720
 1084BOLB   C4B26004  17.440  11.680  23.540
 1084BOLB   NC226005  17.000   9.770  21.980
 1084BOLB   PO226006  17.140   9.730  21.630
 1084BOLB   GL326007  17.580   9.880  21.920
 1084BOLB   GL426008  17.780   9.650  22.110
 1084BOLB   C1C26009  17.780  10.220  21.910
 1084BOLB   C2C26010  17.860  10.580  22.240
 1084BOLB   C3C26011  17.970  10.820  22.710
 1084BOLB   C4C26012  17.800  11.280  22.970
 1084BOLB   C1D26013  18.030   9.960  22.290
 1084BOLB   C2D26014  18.050  10.280  22.600
 1084BOLB   C3D26015  18.270  10.520  22.950
 1084BOLB   C4D26016  18.540  10.910  22.920
 1085BOLB   NC126017  28.305   9.000  29.490
 1085BOLB   PO126018  28.245   9.500  29.500
 1085BOLB   GL126019  28.675   9.370  29.340
 1085BOLB   GL226020  28.675   9.290  28.980
 1085BOLB   C1A26021  29.155   9.340  29.310
 1085BOLB   C2A26022  29.495   9.110  29.150
 1085BOLB   C3A26023  29.835   8.880  29.020
 1085BOLB   C4A26024  30.205   8.710  28.950
 1085BOLB   C1B26025  28.815   8.890  28.780
 1085BOLB   C2B26026  28.975   8.530  28.500
 1085BOLB   C3B26027  29.475   8.470  28.670
 1085BOLB   C4B26028  29.945   8.380  28.680
 1085BOLB   NC226029  32.075   7.690  28.770
 1085BOLB   PO226030  32.025   7.370  29.100
 1085BOLB   GL326031  31.525   7.620  29.140
 1085BOLB   GL426032  31.295   7.550  29.070
 1085BOLB   C1C26033  31.585   7.990  29.150
 1085BOLB   C2C26034  31.325   8.290  29.060
 1085BOLB   C3C26035  30.885   8.370  28.840
 1085BOLB   C4C26036  30.385   8.290  28.970
 1085BOLB   C1D26037  31.055   7.860  28.920
 1085BOLB   C2D26038  30.725   7.910  28.690
 1085BOLB   C3D26039  30.645   8.180  28.340
 1085BOLB   C4D26040  30.885   8.470  28.240
 1086BOLB   NC126041  23.400   0.780  31.920
 1086BOLB   PO126042  23.210   0.830  31.480
 1086BOLB   GL126043  22.990   0.640  31.190
 1086BOLB   GL226044  22.930   0.570  30.760
 1086BOLB   C1A26045  22.560   0.560  31.050
 1086BOLB   C2A26046  22.210   0.350  31.290
 1086BOLB   C3A26047  21.780   0.340  31.220
 1086BOLB   C4A26048  21.490   0.250  30.890
 1086BOLB   C1B26049  22.650   0.330  30.560
 1086BOLB   C2B26050  22.370  26.320  30.580
 1086BOLB   C3B26051  22.170  26.030  30.470
 1086BOLB   C4B26052  21.960  25.610  30.410
 1086BOLB   NC226053  20.930   1.890  31.200
 1086BOLB   PO226054  20.540   1.930  31.050
 1086BOLB   GL326055  20.640   1.470  31.010
 1086BOLB   GL426056  20.950   1.390  30.990
 1086BOLB   C1C26057  20.610   1.170  30.730
 1086BOLB   C2C26058  20.590   0.920  30.420
 1086BOLB   C3C26059  20.800   0.530  30.420
 1086BOLB   C4C26060  21.160   0.180  30.650
 1086BOLB   C1D26061  21.290   1.240  31.230
 1086BOLB   C2D26062  21.420   1.010  31.540
 1086BOLB   C3D26063  21.540   0.710  31.880
 1086BOLB   C4D26064  21.680   0.520  32.210
 1087BOLB   NC126065  23.010  12.180  46.410
 1087BOLB   PO126066  23.090  12.410  46.720
 1087BOLB   GL126067  22.870  12.660  46.210
 1087BOLB   GL226068  22.520  12.810  46.320
 1087BOLB   C1A26069  23.100  12.590  45.790
 1087BOLB   C2A26070  22.890  12.720  45.370
 1087BOLB   C3A26071  22.720  12.790  45.010
 1087BOLB   C4A26072  22.600  12.650  44.590
 1087BOLB   C1B26073  22.390  13.300  46.190
 1087BOLB   C2B26074  22.430  13.570  45.930
 1087BOLB   C3B26075  22.620  13.620  45.600
 1087BOLB   C4B26076  22.710  13.750  45.190
 1087BOLB   NC226077  22.210  10.560  45.220
 1087BOLB   PO226078  22.460  10.630  45.530
 1087BOLB   GL326079  22.540  10.990  45.260
 1087BOLB   GL426080  22.500  11.050  44.910
 1087BOLB   C1C26081  22.630  11.500  45.400
 1087BOLB   C2C26082  22.680  11.790  45.160
 1087BOLB   C3C26083  22.590  11.970  44.810
 1087BOLB   C4C26084  22.790  12.230  44.510
 1087BOLB   C1D26085  22.510  11.460  44.650
 1087BOLB   C2D26086  22.780  11.570  44.340
 1087BOLB   C3D26087  23.210  11.420  44.330
 1087BOLB   C4D26088  23.660  11.300  44.340
 1088BOLB   NC126089  22.680   9.140  37.750
 1088BOLB   PO126090  22.880   9.320  38.130
 1088BOLB   GL126091  22.840   8.980  38.330
 1088BOLB   GL226092  22.930   9.080  38.630
 1088BOLB   C1A26093  22.560   8.680  38.350
 1088BOLB   C2A26094  22.380   8.380  38.650
 1088BOLB   C3A26095  22.050   8.220  38.930
 1088BOLB   C4A26096  21.550   8.360  38.860
 1088BOLB   C1B26097  22.680   8.830  38.850
 1088BOLB   C2B26098  22.400   8.530  39.160
 1088BOLB   C3B26099  22.480   8.080  39.050
 1088BOLB   C4B26100  22.610   7.520  39.060
 1088BOLB   NC226101  19.930   6.870  40.830
 1088BOLB   PO226102  20.250   6.580  40.820
 1088BOLB   GL326103  20.400   6.910  40.420
 1088BOLB   GL426104  19.970   7.120  40.410
 1088BOLB   C1C26105  20.650   7.340  40.250
 1088BOLB   C2C26106  20.810   7.600  39.810
 1088BOLB   C3C26107  20.940   7.790  39.420
 1088BOLB   C4C26108  21.220   8.150  39.180
 1088BOLB   C1D26109  20.150   7.470  40.410
 1088BOLB   C2D26110  20.260   7.920  40.430
 1088BOLB   C3D26111  20.360   8.460  40.580
 1088BOLB   C4D26112  20.470   9.000  40.690
 1089BOLB   NC126113  19.960  10.320  36.560
 1089BOLB   PO126114  20.330  10.150  36.490
 1089BOLB   GL126115  20.170   9.830  36.840
 1089BOLB   GL226116  19.940   9.940  36.850
 1089BOLB   C1A26117  19.970   9.480  36.650
 1089BOLB   C2A26118  19.920   9.140  36.950
 1089BOLB   C3A26119  19.660   8.840  37.090
 1089BOLB   C4A26120  19.440   8.500  37.150
 1089BOLB   C1B26121  19.570   9.760  36.690
 1089BOLB   C2B26122  19.500   9.360  36.890
 1089BOLB   C3B26123  19.400   9.010  36.670
 1089BOLB   C4B26124  19.500   8.960  36.270
 1089BOLB   NC226125  18.320   6.470  37.420
 1089BOLB   PO226126  18.230   6.160  37.030
 1089BOLB   GL326127  18.540   6.480  36.900
 1089BOLB   GL426128  18.820   6.270  36.880
 1089BOLB   C1C26129  18.700   6.990  36.920
 1089BOLB   C2C26130  18.960   7.340  36.860
 1089BOLB   C3C26131  19.290   7.680  36.820
 1089BOLB   C4C26132  19.330   8.040  36.970
 1089BOLB   C1D26133  19.120   6.270  36.530
 1089BOLB   C2D26134  19.430   6.440  36.280
 1089BOLB   C3D26135  19.290   6.510  35.910
 1089BOLB   C4D26136  19.570   6.840  35.750
 1090BOLB   NC126137  20.090  16.800  22.240
 1090BOLB   PO126138  20.050  16.550  21.840
 1090BOLB   GL126139  19.990  16.440  21.410
 1090BOLB   GL226140  19.650  16.560  21.270
 1090BOLB   C1A26141  19.940  16.340  20.930
 1090BOLB   C2A26142  19.610  16.270  20.590
 1090BOLB   C3A26143  19.590  16.320  20.170
 1090BOLB   C4A26144  19.300  16.160  19.860
 1090BOLB   C1B26145  19.570  16.690  20.940
 1090BOLB   C2B26146  19.410  16.850  20.530
 1090BOLB   C3B26147  19.290  16.830  20.090
 1090BOLB   C4B26148  19.430  16.760  19.660
 1090BOLB   NC226149  17.540  15.660  18.070
 1090BOLB   PO226150  17.940  15.680  18.010
 1090BOLB   GL326151  18.310  15.650  18.260
 1090BOLB   GL426152  18.170  15.630  18.600
 1090BOLB   C1C26153  18.690  15.770  18.410
 1090BOLB   C2C26154  19.050  16.030  18.670
 1090BOLB   C3C26155  19.080  16.150  19.000
 1090BOLB   C4C26156  19.170  16.260  19.410
 1090BOLB   C1D26157  17.900  15.660  18.980
 1090BOLB   C2D26158  17.780  15.730  19.390
 1090BOLB   C3D26159  17.810  16.010  19.790
 1090BOLB   C4D26160  17.860  16.430  19.740
 1091BOLB   NC126161  26.925   8.210  33.790
 1091BOLB   PO126162  27.355   8.180  33.840
 1091BOLB   GL126163  27.625   7.880  33.820
 1091BOLB   GL226164  27.965   8.020  33.770
 1091BOLB   C1A26165  27.745   7.580  33.870
 1091BOLB   C2A26166  28.065   7.290  33.750
 1091BOLB   C3A26167  28.145   6.900  33.880
 1091BOLB   C4A26168  28.485   6.530  34.000
 1091BOLB   C1B26169  28.335   7.790  33.950
 1091BOLB   C2B26170  28.665   7.440  33.920
 1091BOLB   C3B26171  28.995   7.360  34.170
 1091BOLB   C4B26172  29.375   7.220  34.010
 1091BOLB   NC226173  29.735   4.360  33.390
 1091BOLB   PO226174  29.535   4.580  33.720
 1091BOLB   GL326175  29.355   4.880  33.830
 1091BOLB   GL426176  29.055   5.120  33.650
 1091BOLB   C1C26177  29.515   5.330  33.840
 1091BOLB   C2C26178  29.285   5.640  33.860
 1091BOLB   C3C26179  28.945   5.920  33.620
 1091BOLB   C4C26180  28.615   6.200  33.680
 1091BOLB   C1D26181  29.165   5.470  33.350
 1091BOLB   C2D26182  29.085   5.500  32.850
 1091BOLB   C3D26183  28.865   5.510  32.500
 1091BOLB   C4D26184  28.575   5.720  32.190
 1092BOLB   NC126185  20.600   8.760  44.390
 1092BOLB   PO126186  20.860   9.050  44.510
 1092BOLB   GL126187  21.060   9.300  44.360
 1092BOLB   GL226188  21.300   9.190  44.220
 1092BOLB   C1A26189  21.210   9.710  44.360
 1092BOLB   C2A26190  21.140  10.220  44.200
 1092BOLB   C3A26191  21.250  10.570  43.780
 1092BOLB   C4A26192  21.050  10.920  43.410
 1092BOLB   C1B26193  21.330   9.560  43.910
 1092BOLB   C2B26194  21.110  10.000  43.790
 1092BOLB   C3B26195  20.970  10.350  43.410
 1092BOLB   C4B26196  20.690  10.500  43.330
 1092BOLB   NC226197  21.340  12.470  41.280
 1092BOLB   PO226198  20.970  12.400  41.320
 1092BOLB   GL326199  21.090  12.270  41.750
 1092BOLB   GL426200  20.880  12.350  41.970
 1092BOLB   C1C26201  21.040  11.940  42.190
 1092BOLB   C2C26202  20.930  11.650  42.510
 1092BOLB   C3C26203  21.090  11.450  42.920
 1092BOLB   C4C26204  21.050  11.280  43.250
 1092BOLB   C1D26205  20.990  12.380  42.490
 1092BOLB   C2D26206  21.160  12.060  42.710
 1092BOLB   C3D26207  21.480  11.860  42.470
 1092BOLB   C4D26208  21.750  11.510  42.280
 1093BOLB   NC126209  23.190  20.180  41.490
 1093BOLB   PO126210  23.470  19.920  41.700
 1093BOLB   GL126211  23.760  20.140  42.130
 1093BOLB   GL226212  23.910  19.920  42.250
 1093BOLB   C1A26213  23.650  20.250  42.520
 1093BOLB   C2A26214  23.880  20.490  42.810
 1093BOLB   C3A26215  24.020  20.420  43.280
 1093BOLB   C4A26216  24.290  20.350  43.670
 1093BOLB   C1B26217  24.160  20.280  42.400
 1093BOLB   C2B26218  24.270  20.670  42.590
 1093BOLB   C3B26219  24.530  20.830  42.900
 1093BOLB   C4B26220  24.810  21.010  43.150
 1093BOLB   NC226221  24.720  21.440  45.810
 1093BOLB   PO226222  24.550  21.770  45.620
 1093BOLB   GL326223  24.300  21.430  45.580
 1093BOLB   GL426224  24.120  21.490  45.200
 1093BOLB   C1C26225  24.070  21.030  45.400
 1093BOLB   C2C26226  24.080  20.860  44.960
 1093BOLB   C3C26227  24.100  20.440  44.600
 1093BOLB   C4C26228  24.190  20.410  44.180
 1093BOLB   C1D26229  23.720  21.340  44.950
 1093BOLB   C2D26230  23.700  21.140  44.550
 1093BOLB   C3D26231  23.870  20.810  44.310
 1093BOLB   C4D26232  23.690  20.390  44.340
 1094BOLB   NC126233  24.360   8.760  37.600
 1094BOLB   PO126234  24.180   8.810  37.940
 1094BOLB   GL126235  24.270   8.430  38.040
 1094BOLB   GL226236  24.010   8.270  38.110
 1094BOLB   C1A26237  24.590   8.160  38.260
 1094BOLB   C2A26238  24.860   7.940  38.570
 1094BOLB   C3A26239  25.320   7.730  38.690
 1094BOLB   C4A26240  25.530   7.290  38.810
 1094BOLB   C1B26241  24.240   8.110  38.570
 1094BOLB   C2B26242  24.400   7.740  38.730
 1094BOLB   C3B26243  24.700   7.340  38.810
 1094BOLB   C4B26244  24.760   6.870  38.830
 1094BOLB   NC226245  25.980   5.630  40.330
 1094BOLB   PO226246  26.445   5.620  40.200
 1094BOLB   GL326247  26.310   6.010  40.250
 1094BOLB   GL426248  26.495   6.150  40.150
 1094BOLB   C1C26249  26.030   6.220  40.040
 1094BOLB   C2C26250  25.920   6.460  39.690
 1094BOLB   C3C26251  25.600   6.650  39.490
 1094BOLB   C4C26252  25.520   7.080  39.230
 1094BOLB   C1D26253  26.440   6.140  39.750
 1094BOLB   C2D26254  26.505   5.910  39.330
 1094BOLB   C3D26255  26.775   5.870  38.920
 1094BOLB   C4D26256  27.165   5.740  38.860
 1095BOLB   NC126257  20.050  26.250  22.780
 1095BOLB   PO126258  19.820   0.140  22.960
 1095BOLB   GL126259  19.660  26.340  23.260
 1095BOLB   GL226260  19.870  26.280  23.490
 1095BOLB   C1A26261  19.170  26.270  23.280
 1095BOLB   C2A26262  18.910  25.960  23.410
 1095BOLB   C3A26263  18.640  25.800  23.730
 1095BOLB   C4A26264  18.570  25.800  24.090
 1095BOLB   C1B26265  19.950  25.870  23.660
 1095BOLB   C2B26266  19.840  25.450  23.760
 1095BOLB   C3B26267  19.990  25.110  23.930
 1095BOLB   C4B26268  19.860  25.020  24.370
 1095BOLB   NC226269  17.000   1.130  23.920
 1095BOLB   PO226270  17.100   0.940  24.180
 1095BOLB   GL326271  17.280   0.610  24.350
 1095BOLB   GL426272  17.320   0.530  24.660
 1095BOLB   C1C26273  17.680   0.330  24.410
 1095BOLB   C2C26274  17.970   0.050  24.510
 1095BOLB   C3C26275  18.090  26.190  24.620
 1095BOLB   C4C26276  18.330  25.940  24.450
 1095BOLB   C1D26277  17.480   0.200  24.830
 1095BOLB   C2D26278  17.550  26.180  24.920
 1095BOLB   C3D26279  17.590  25.920  25.190
 1095BOLB   C4D26280  17.760  25.760  25.580
 1096BOLB   NC126281  16.920  13.570  25.950
 1096BOLB   PO126282  16.620  13.390  26.330
 1096BOLB   GL126283  16.360  12.980  26.310
 1096BOLB   GL226284  16.380  12.890  26.610
 1096BOLB   C1A26285  16.100  12.570  26.360
 1096BOLB   C2A26286  15.720  12.540  26.370
 1096BOLB   C3A26287  15.310  12.320  26.470
 1096BOLB   C4A26288  15.210  11.940  26.390
 1096BOLB   C1B26289  16.040  13.000  26.660
 1096BOLB   C2B26290  15.580  12.930  26.630
 1096BOLB   C3B26291  15.240  12.860  26.780
 1096BOLB   C4B26292  14.910  12.680  26.560
 1096BOLB   NC226293  14.490   9.500  25.740
 1096BOLB   PO226294  14.230   9.870  25.560
 1096BOLB   GL326295  14.620  10.130  25.660
 1096BOLB   GL426296  14.840  10.280  25.410
 1096BOLB   C1C26297  14.920  10.510  25.840
 1096BOLB   C2C26298  14.880  10.810  26.130
 1096BOLB   C3C26299  14.800  11.270  26.090
 1096BOLB   C4C26300  15.000  11.660  26.160
 1096BOLB   C1D26301  14.790  10.760  25.420
 1096BOLB   C2D26302  14.830  11.180  25.560
 1096BOLB   C3D26303  14.780  11.640  25.640
 1096BOLB   C4D26304  14.770  12.080  25.800
 1097BOLB   NC126305  17.670  23.010  38.560
 1097BOLB   PO126306  17.810  23.400  38.720
 1097BOLB   GL126307  17.560  23.300  39.080
 1097BOLB   GL226308  17.470  23.070  39.080
 1097BOLB   C1A26309  17.430  23.520  39.330
 1097BOLB   C2A26310  17.290  23.480  39.630
 1097BOLB   C3A26311  17.380  23.750  39.920
 1097BOLB   C4A26312  17.400  23.880  40.370
 1097BOLB   C1B26313  17.540  23.020  39.590
 1097BOLB   C2B26314  17.560  23.190  40.030
 1097BOLB   C3B26315  17.470  23.350  40.380
 1097BOLB   C4B26316  17.370  23.520  40.730
 1097BOLB   NC226317  16.750  25.020  42.530
 1097BOLB   PO226318  16.840  25.360  42.160
 1097BOLB   GL326319  17.080  24.990  42.150
 1097BOLB   GL426320  17.490  24.920  42.240
 1097BOLB   C1C26321  17.220  24.770  41.870
 1097BOLB   C2C26322  17.230  24.480  41.440
 1097BOLB   C3C26323  17.310  24.320  41.020
 1097BOLB   C4C26324  17.230  23.990  40.740
 1097BOLB   C1D26325  17.670  25.120  41.870
 1097BOLB   C2D26326  17.670  24.790  41.500
 1097BOLB   C3D26327  17.510  24.790  41.080
 1097BOLB   C4D26328  17.760  24.850  40.710
 1098BOLB   NC126329  21.790  20.070  22.880
 1098BOLB   PO126330  21.700  19.940  22.420
 1098BOLB   GL126331  21.910  20.270  22.300
 1098BOLB   GL226332  21.640  20.560  22.090
 1098BOLB   C1A26333  22.180  20.480  22.030
 1098BOLB   C2A26334  22.250  20.420  21.620
 1098BOLB   C3A26335  22.340  20.620  21.310
 1098BOLB   C4A26336  22.220  20.700  20.950
 1098BOLB   C1B26337  21.810  20.350  21.780
 1098BOLB   C2B26338  21.850  20.250  21.360
 1098BOLB   C3B26339  21.890  20.340  20.920
 1098BOLB   C4B26340  22.050  20.340  20.480
 1098BOLB   NC226341  22.760  21.080  18.650
 1098BOLB   PO226342  22.360  21.240  18.770
 1098BOLB   GL326343  22.410  21.090  19.120
 1098BOLB   GL426344  22.650  20.880  19.190
 1098BOLB   C1C26345  22.390  21.060  19.590
 1098BOLB   C2C26346  22.170  20.850  19.850
 1098BOLB   C3C26347  22.150  20.700  20.160
 1098BOLB   C4C26348  22.330  20.850  20.530
 1098BOLB   C1D26349  22.340  20.610  19.380
 1098BOLB   C2D26350  22.330  20.180  19.590
 1098BOLB   C3D26351  22.510  19.810  19.820
 1098BOLB   C4D26352  22.840  19.650  19.880
 1099BOLB   NC126353  29.485  13.760  32.210
 1099BOLB   PO126354  29.775  13.450  32.110
 1099BOLB   GL126355  30.245  13.600  32.280
 1099BOLB   GL226356  30.375  13.370  32.150
 1099BOLB   C1A26357  30.335  14.000  32.410
 1099BOLB   C2A26358  30.545  14.320  32.730
 1099BOLB   C3A26359  31.035  14.340  32.910
 1099BOLB   C4A26360  31.425  14.430  33.070
 1099BOLB   C1B26361  30.765  13.300  32.090
 1099BOLB   C2B26362  31.215  13.310  32.120
 1099BOLB   C3B26363  31.605  13.380  31.990
 1099BOLB   C4B26364  32.125  13.360  31.900
 1099BOLB   NC226365  33.495  14.570  32.360
 1099BOLB   PO226366  33.535  14.950  32.260
 1099BOLB   GL326367  33.095  14.960  32.310
 1099BOLB   GL426368  33.015  14.670  32.250
 1099BOLB   C1C26369  32.755  15.070  32.430
 1099BOLB   C2C26370  32.335  14.980  32.530
 1099BOLB   C3C26371  32.125  14.720  32.760
 1099BOLB   C4C26372  31.875  14.660  33.080
 1099BOLB   C1D26373  32.615  14.600  32.380
 1099BOLB   C2D26374  32.375  14.260  32.450
 1099BOLB   C3D26375  31.965  14.150  32.440
 1099BOLB   C4D26376  31.415  14.330  32.490
 1100BOLB   NC126377  16.170  17.830  23.290
 1100BOLB   PO126378  15.880  18.060  23.520
 1100BOLB   GL126379  15.570  17.830  23.230
 1100BOLB   GL226380  15.740  17.610  23.040
 1100BOLB   C1A26381  15.160  17.770  23.050
 1100BOLB   C2A26382  14.700  17.850  22.950
 1100BOLB   C3A26383  14.400  17.960  22.610
 1100BOLB   C4A26384  14.250  18.310  22.380
 1100BOLB   C1B26385  15.550  17.770  22.760
 1100BOLB   C2B26386  15.120  17.890  22.530
 1100BOLB   C3B26387  14.820  17.630  22.510
 1100BOLB   C4B26388  14.500  17.180  22.470
 1100BOLB   NC226389  12.450  19.170  20.340
 1100BOLB   PO226390  12.520  19.100  20.760
 1100BOLB   GL326391  12.840  19.040  21.000
 1100BOLB   GL426392  13.080  19.280  20.840
 1100BOLB   C1C26393  13.160  18.790  21.180
 1100BOLB   C2C26394  13.600  18.830  21.360
 1100BOLB   C3C26395  13.860  18.660  21.680
 1100BOLB   C4C26396  13.910  18.460  22.140
 1100BOLB   C1D26397  13.390  19.220  21.240
 1100BOLB   C2D26398  13.710  19.290  21.470
 1100BOLB   C3D26399  14.080  19.230  21.690
 1100BOLB   C4D26400  14.210  18.890  21.990
 1101BOLB   NC126401  24.830  20.560  37.630
 1101BOLB   PO126402  24.810  20.990  37.770
 1101BOLB   GL126403  25.120  21.290  37.890
 1101BOLB   GL226404  25.290  21.450  37.680
 1101BOLB   C1A26405  25.520  21.590  38.070
 1101BOLB   C2A26406  25.780  21.900  37.960
 1101BOLB   C3A26407  25.930  22.240  37.950
 1101BOLB   C4A26408  26.210  22.650  38.050
 1101BOLB   C1B26409  25.460  21.880  37.580
 1101BOLB   C2B26410  25.730  22.140  37.500
 1101BOLB   C3B26411  26.120  22.420  37.410
 1101BOLB   C4B26412  26.370  22.610  37.150
 1101BOLB   NC226413  28.175  24.040  38.650
 1101BOLB   PO226414  27.855  24.230  38.600
 1101BOLB   GL326415  27.505  24.120  38.730
 1101BOLB   GL426416  27.295  24.030  38.990
 1101BOLB   C1C26417  27.285  23.780  38.560
 1101BOLB   C2C26418  26.985  23.400  38.650
 1101BOLB   C3C26419  26.845  23.030  38.550
 1101BOLB   C4C26420  26.525  22.870  38.350
 1101BOLB   C1D26421  27.155  23.560  39.050
 1101BOLB   C2D26422  27.345  23.220  38.920
 1101BOLB   C3D26423  27.755  22.950  38.810
 1101BOLB   C4D26424  27.755  22.650  38.640
 1102BOLB   NC126425  21.670  21.910  25.370
 1102BOLB   PO126426  21.800  22.060  25.750
 1102BOLB   GL126427  22.020  22.350  25.790
 1102BOLB   GL226428  21.920  22.540  25.990
 1102BOLB   C1A26429  22.230  22.670  25.570
 1102BOLB   C2A26430  22.600  22.970  25.760
 1102BOLB   C3A26431  22.870  23.280  25.780
 1102BOLB   C4A26432  23.190  23.630  25.840
 1102BOLB   C1B26433  22.090  22.960  26.020
 1102BOLB   C2B26434  22.410  23.360  26.000
 1102BOLB   C3B26435  22.390  23.790  26.250
 1102BOLB   C4B26436  22.610  24.070  26.550
 1102BOLB   NC226437  24.870  25.650  24.610
 1102BOLB   PO226438  24.670  25.230  24.730
 1102BOLB   GL326439  24.420  24.780  24.820
 1102BOLB   GL426440  24.310  24.670  24.590
 1102BOLB   C1C26441  24.020  24.770  25.170
 1102BOLB   C2C26442  23.870  24.450  25.390
 1102BOLB   C3C26443  23.710  24.300  25.800
 1102BOLB   C4C26444  23.370  24.020  25.850
 1102BOLB   C1D26445  23.920  24.510  24.690
 1102BOLB   C2D26446  23.680  24.200  24.560
 1102BOLB   C3D26447  23.480  23.930  24.500
 1102BOLB   C4D26448  23.430  23.660  24.170
 1103BOLB   NC126449  15.970  19.070  18.370
 1103BOLB   PO126450  15.800  19.530  18.460
 1103BOLB   GL126451  15.900  19.610  18.850
 1103BOLB   GL226452  16.130  19.340  18.840
 1103BOLB   C1A26453  16.110  19.650  19.240
 1103BOLB   C2A26454  16.190  19.600  19.670
 1103BOLB   C3A26455  16.500  19.720  19.960
 1103BOLB   C4A26456  16.670  20.150  20.040
 1103BOLB   C1B26457  16.170  19.080  19.170
 1103BOLB   C2B26458  16.440  19.070  19.520
 1103BOLB   C3B26459  16.580  19.200  20.070
 1103BOLB   C4B26460  16.960  19.470  20.130
 1103BOLB   NC226461  16.230  22.140  18.580
 1103BOLB   PO226462  16.510  22.220  18.770
 1103BOLB   GL326463  16.460  22.050  19.230
 1103BOLB   GL426464  16.630  22.200  19.470
 1103BOLB   C1C26465  16.500  21.660  19.510
 1103BOLB   C2C26466  16.450  21.350  19.690
 1103BOLB   C3C26467  16.730  21.010  19.900
 1103BOLB   C4C26468  16.870  20.540  19.980
 1103BOLB   C1D26469  16.940  21.940  19.670
 1103BOLB   C2D26470  17.270  22.030  20.020
 1103BOLB   C3D26471  17.320  22.150  20.460
 1103BOLB   C4D26472  17.540  22.080  20.850
 1104BOLB   NC126473  16.820  12.010  44.320
 1104BOLB   PO126474  17.030  12.320  44.440
 1104BOLB   GL126475  17.080  12.640  44.100
 1104BOLB   GL226476  16.820  12.450  43.890
 1104BOLB   C1A26477  17.380  12.760  43.930
 1104BOLB   C2A26478  17.530  13.080  43.750
 1104BOLB   C3A26479  17.890  13.410  43.640
 1104BOLB   C4A26480  18.250  13.650  43.520
 1104BOLB   C1B26481  17.240  12.390  43.570
 1104BOLB   C2B26482  17.660  12.570  43.370
 1104BOLB   C3B26483  18.050  12.310  43.340
 1104BOLB   C4B26484  18.030  11.770  43.460
 1104BOLB   NC226485  20.510  15.290  42.820
 1104BOLB   PO226486  20.230  15.020  42.670
 1104BOLB   GL326487  20.000  14.680  42.900
 1104BOLB   GL426488  20.300  14.730  43.110
 1104BOLB   C1C26489  19.620  14.440  43.170
 1104BOLB   C2C26490  19.230  14.190  42.950
 1104BOLB   C3C26491  18.800  13.990  42.960
 1104BOLB   C4C26492  18.670  13.780  43.200
 1104BOLB   C1D26493  20.040  14.730  43.550
 1104BOLB   C2D26494  20.250  14.580  43.960
 1104BOLB   C3D26495  20.410  14.260  44.230
 1104BOLB   C4D26496  20.430  13.970  44.510
 1105BOLB   NC126497  29.265  13.810  35.510
 1105BOLB   PO126498  29.395  13.340  35.430
 1105BOLB   GL126499  29.845  13.340  35.380
 1105BOLB   GL226500  29.905  13.460  35.250
 1105BOLB   C1A26501  30.395  13.260  35.240
 1105BOLB   C2A26502  30.785  13.520  35.170
 1105BOLB   C3A26503  31.095  13.510  35.520
 1105BOLB   C4A26504  31.205  13.830  35.750
 1105BOLB   C1B26505  30.105  13.790  35.210
 1105BOLB   C2B26506  30.185  14.190  35.250
 1105BOLB   C3B26507  30.615  14.400  35.370
 1105BOLB   C4B26508  30.845  14.700  35.340
 1105BOLB   NC226509  33.365  15.180  37.180
 1105BOLB   PO226510  33.095  15.230  36.800
 1105BOLB   GL326511  33.005  14.990  36.460
 1105BOLB   GL426512  32.905  15.170  36.090
 1105BOLB   C1C26513  32.655  14.620  36.390
 1105BOLB   C2C26514  32.315  14.280  36.310
 1105BOLB   C3C26515  31.955  14.100  36.100
 1105BOLB   C4C26516  31.635  13.950  35.910
 1105BOLB   C1D26517  32.545  15.040  36.160
 1105BOLB   C2D26518  32.165  14.910  36.340
 1105BOLB   C3D26519  31.925  14.590  36.170
 1105BOLB   C4D26520  31.555  14.360  36.300
 1106BOLB   NC126521  20.790  10.440  39.620
 1106BOLB   PO126522  20.650  10.840  39.450
 1106BOLB   GL126523  20.140  10.720  39.630
 1106BOLB   GL226524  20.290  10.570  39.740
 1106BOLB   C1A26525  19.810  10.560  39.830
 1106BOLB   C2A26526  19.720  10.200  40.040
 1106BOLB   C3A26527  19.480   9.960  40.180
 1106BOLB   C4A26528  19.240   9.750  40.540
 1106BOLB   C1B26529  20.230  10.150  39.970
 1106BOLB   C2B26530  20.150   9.970  40.320
 1106BOLB   C3B26531  20.160   9.810  40.780
 1106BOLB   C4B26532  20.150  10.070  41.030
 1106BOLB   NC226533  18.590   7.880  41.370
 1106BOLB   PO226534  18.230   7.970  41.050
 1106BOLB   GL326535  18.550   8.310  41.160
 1106BOLB   GL426536  18.690   8.110  40.910
 1106BOLB   C1C26537  18.520   8.710  41.160
 1106BOLB   C2C26538  18.750   9.020  41.400
 1106BOLB   C3C26539  18.840   9.410  41.300
 1106BOLB   C4C26540  18.960   9.680  40.990
 1106BOLB   C1D26541  18.860   7.990  40.480
 1106BOLB   C2D26542  19.170   8.260  40.310
 1106BOLB   C3D26543  19.550   8.510  40.170
 1106BOLB   C4D26544  19.990   8.650  40.060
 1107BOLB   NC126545  26.360  15.240  24.580
 1107BOLB   PO126546  26.655  15.230  24.100
 1107BOLB   GL126547  26.925  15.020  23.750
 1107BOLB   GL226548  27.055  14.680  23.640
 1107BOLB   C1A26549  27.325  15.080  23.570
 1107BOLB   C2A26550  27.595  15.290  23.360
 1107BOLB   C3A26551  27.825  15.610  23.110
 1107BOLB   C4A26552  27.995  15.750  22.860
 1107BOLB   C1B26553  27.445  14.650  23.360
 1107BOLB   C2B26554  27.745  14.710  23.020
 1107BOLB   C3B26555  27.965  14.780  22.680
 1107BOLB   C4B26556  27.775  15.100  22.230
 1107BOLB   NC226557  28.635  16.690  20.450
 1107BOLB   PO226558  28.785  16.780  20.850
 1107BOLB   GL326559  28.705  16.650  21.140
 1107BOLB   GL426560  28.935  16.790  21.390
 1107BOLB   C1C26561  28.615  16.230  21.390
 1107BOLB   C2C26562  28.445  15.950  21.680
 1107BOLB   C3C26563  28.245  15.660  22.050
 1107BOLB   C4C26564  28.045  15.720  22.460
 1107BOLB   C1D26565  28.905  16.710  21.830
 1107BOLB   C2D26566  28.775  16.940  22.150
 1107BOLB   C3D26567  28.465  17.080  22.420
 1107BOLB   C4D26568  28.315  17.310  22.710
 1108BOLB   NC126569  28.975  11.770  37.280
 1108BOLB   PO126570  29.055  11.490  36.810
 1108BOLB   GL126571  29.595  11.360  37.020
 1108BOLB   GL226572  29.695  11.090  36.870
 1108BOLB   C1A26573  30.135  11.270  37.100
 1108BOLB   C2A26574  30.505  11.200  37.270
 1108BOLB   C3A26575  30.645  11.010  37.670
 1108BOLB   C4A26576  30.805  10.640  37.920
 1108BOLB   C1B26577  30.085  11.120  36.600
 1108BOLB   C2B26578  30.565  11.020  36.710
 1108BOLB   C3B26579  31.045  11.010  36.750
 1108BOLB   C4B26580  31.335  10.740  37.010
 1108BOLB   NC226581  32.765  10.480  39.580
 1108BOLB   PO226582  32.395  10.130  39.710
 1108BOLB   GL326583  32.105  10.180  39.380
 1108BOLB   GL426584  32.295  10.490  39.260
 1108BOLB   C1C26585  31.765  10.380  39.270
 1108BOLB   C2C26586  31.495  10.530  38.990
 1108BOLB   C3C26587  31.235  10.750  38.690
 1108BOLB   C4C26588  30.895  10.740  38.420
 1108BOLB   C1D26589  32.025  10.580  38.910
 1108BOLB   C2D26590  31.785  10.770  38.590
 1108BOLB   C3D26591  31.825  11.010  38.120
 1108BOLB   C4D26592  31.665  10.900  37.710
 1109BOLB   NC126593  25.760  16.840  23.820
 1109BOLB   PO126594  25.970  16.370  23.890
 1109BOLB   GL126595  26.330  16.780  23.800
 1109BOLB   GL226596  26.465  16.950  24.160
 1109BOLB   C1A26597  26.635  17.070  23.580
 1109BOLB   C2A26598  26.855  17.290  23.250
 1109BOLB   C3A26599  27.145  17.560  23.020
 1109BOLB   C4A26600  27.155  17.620  22.600
 1109BOLB   C1B26601  26.865  17.050  24.050
 1109BOLB   C2B26602  27.225  17.210  24.060
 1109BOLB   C3B26603  27.495  17.560  24.060
 1109BOLB   C4B26604  27.575  17.940  24.080
 1109BOLB   NC226605  29.005  19.280  21.660
 1109BOLB   PO226606  28.735  19.120  21.910
 1109BOLB   GL326607  28.485  18.960  22.360
 1109BOLB   GL426608  28.375  18.650  22.400
 1109BOLB   C1C26609  28.035  19.010  22.440
 1109BOLB   C2C26610  27.645  18.690  22.580
 1109BOLB   C3C26611  27.575  18.230  22.520
 1109BOLB   C4C26612  27.245  18.000  22.470
 1109BOLB   C1D26613  28.075  18.380  22.430
 1109BOLB   C2D26614  28.065  18.140  22.070
 1109BOLB   C3D26615  27.675  17.870  22.120
 1109BOLB   C4D26616  27.365  17.520  22.150
 1110BOLB   NC126617  22.100  20.950  24.730
 1110BOLB   PO126618  22.540  20.840  24.560
 1110BOLB   GL126619  22.760  21.100  24.410
 1110BOLB   GL226620  22.930  21.130  24.630
 1110BOLB   C1A26621  23.030  21.360  24.110
 1110BOLB   C2A26622  23.130  21.650  23.790
 1110BOLB   C3A26623  23.260  21.900  23.500
 1110BOLB   C4A26624  23.510  21.950  23.290
 1110BOLB   C1B26625  23.380  21.130  24.380
 1110BOLB   C2B26626  23.580  21.480  24.320
 1110BOLB   C3B26627  23.690  21.900  24.210
 1110BOLB   C4B26628  23.860  22.260  24.110
 1110BOLB   NC226629  25.530  23.120  22.130
 1110BOLB   PO226630  25.050  23.210  22.080
 1110BOLB   GL326631  24.800  22.910  22.170
 1110BOLB   GL426632  24.690  22.960  22.480
 1110BOLB   C1C26633  24.620  22.560  22.180
 1110BOLB   C2C26634  24.220  22.390  22.380
 1110BOLB   C3C26635  24.070  22.350  22.720
 1110BOLB   C4C26636  23.760  22.140  22.930
 1110BOLB   C1D26637  24.930  22.740  22.720
 1110BOLB   C2D26638  25.080  22.820  23.090
 1110BOLB   C3D26639  25.230  22.800  23.450
 1110BOLB   C4D26640  25.330  22.520  23.800
 1111BOLB   NC126641  25.300  25.260  41.660
 1111BOLB   PO126642  25.220  24.820  41.550
 1111BOLB   GL126643  24.910  24.520  41.590
 1111BOLB   GL226644  24.710  24.270  41.820
 1111BOLB   C1A26645  24.810  24.150  41.400
 1111BOLB   C2A26646  24.780  23.780  41.520
 1111BOLB   C3A26647  24.970  23.550  41.320
 1111BOLB   C4A26648  25.040  23.270  40.970
 1111BOLB   C1B26649  25.100  24.090  41.930
 1111BOLB   C2B26650  25.300  23.830  41.620
 1111BOLB   C3B26651  25.430  23.420  41.570
 1111BOLB   C4B26652  25.390  22.920  41.540
 1111BOLB   NC226653  24.180  20.970  40.100
 1111BOLB   PO226654  24.270  20.770  40.520
 1111BOLB   GL326655  24.210  21.190  40.560
 1111BOLB   GL426656  24.450  21.250  40.800
 1111BOLB   C1C26657  24.380  21.690  40.630
 1111BOLB   C2C26658  24.710  21.990  40.710
 1111BOLB   C3C26659  24.750  22.450  40.670
 1111BOLB   C4C26660  24.940  22.900  40.680
 1111BOLB   C1D26661  24.740  21.530  40.920
 1111BOLB   C2D26662  25.190  21.760  41.000
 1111BOLB   C3D26663  25.530  21.690  41.300
 1111BOLB   C4D26664  25.600  21.920  41.660
 1112BOLB   NC126665  26.130   8.390  37.340
 1112BOLB   PO126666  25.990   8.010  37.290
 1112BOLB   GL126667  26.110   7.670  37.540
 1112BOLB   GL226668  25.780   7.510  37.770
 1112BOLB   C1A26669  26.420   7.390  37.550
 1112BOLB   C2A26670  26.735   6.990  37.550
 1112BOLB   C3A26671  26.745   6.560  37.470
 1112BOLB   C4A26672  26.925   6.280  37.250
 1112BOLB   C1B26673  26.020   7.170  37.780
 1112BOLB   C2B26674  26.090   6.900  37.980
 1112BOLB   C3B26675  26.535   6.810  37.950
 1112BOLB   C4B26676  27.085   6.680  38.120
 1112BOLB   NC226677  28.395   4.260  36.880
 1112BOLB   PO226678  28.735   4.580  36.770
 1112BOLB   GL326679  28.645   4.970  36.870
 1112BOLB   GL426680  28.515   5.010  37.130
 1112BOLB   C1C26681  28.435   5.250  36.610
 1112BOLB   C2C26682  28.025   5.530  36.780
 1112BOLB   C3C26683  27.735   5.840  37.050
 1112BOLB   C4C26684  27.355   6.150  37.100
 1112BOLB   C1D26685  28.345   5.420  37.230
 1112BOLB   C2D26686  28.275   5.780  37.100
 1112BOLB   C3D26687  28.245   6.140  37.390
 1112BOLB   C4D26688  28.095   6.470  37.380
 1113BOLB   NC126689  30.645  18.790  28.410
 1113BOLB   PO126690  30.935  18.490  28.590
 1113BOLB   GL126691  30.575  18.210  28.430
 1113BOLB   GL226692  30.495  18.340  28.170
 1113BOLB   C1A26693  30.115  18.110  28.570
 1113BOLB   C2A26694  29.675  18.050  28.700
 1113BOLB   C3A26695  29.315  18.180  28.630
 1113BOLB   C4A26696  28.925  18.380  28.660
 1113BOLB   C1B26697  30.475  17.890  28.020
 1113BOLB   C2B26698  30.195  17.600  28.030
 1113BOLB   C3B26699  29.915  17.410  27.750
 1113BOLB   C4B26700  29.625  17.120  27.530
 1113BOLB   NC226701  30.335  19.460  28.250
 1113BOLB   PO226702  30.405  19.180  28.570
 1113BOLB   GL326703  30.035  19.000  28.870
 1113BOLB   GL426704  29.895  18.940  28.600
 1113BOLB   C1C26705  29.685  19.210  29.040
 1113BOLB   C2C26706  29.405  19.300  28.710
 1113BOLB   C3C26707  29.015  19.260  28.570
 1113BOLB   C4C26708  28.935  18.840  28.660
 1113BOLB   C1D26709  29.795  18.490  28.420
 1113BOLB   C2D26710  29.535  18.230  28.120
 1113BOLB   C3D26711  29.435  17.800  27.890
 1113BOLB   C4D26712  29.335  17.600  27.570
 1114BOLB   NC126713  20.640  12.650  41.040
 1114BOLB   PO126714  20.300  12.800  41.250
 1114BOLB   GL126715  19.970  12.680  41.420
 1114BOLB   GL226716  19.810  12.990  41.590
 1114BOLB   C1A26717  19.830  12.330  41.500
 1114BOLB   C2A26718  19.770  11.950  41.750
 1114BOLB   C3A26719  19.430  11.720  41.870
 1114BOLB   C4A26720  19.330  11.280  41.990
 1114BOLB   C1B26721  19.630  12.710  41.880
 1114BOLB   C2B26722  19.520  12.320  41.970
 1114BOLB   C3B26723  19.150  12.070  42.130
 1114BOLB   C4B26724  18.880  12.030  42.440
 1114BOLB   NC226725  18.670   8.980  42.780
 1114BOLB   PO226726  18.410   9.240  43.080
 1114BOLB   GL326727  18.590   9.530  42.740
 1114BOLB   GL426728  18.730   9.320  42.410
 1114BOLB   C1C26729  18.460   9.990  42.470
 1114BOLB   C2C26730  18.690  10.450  42.460
 1114BOLB   C3C26731  18.880  10.840  42.580
 1114BOLB   C4C26732  19.190  11.150  42.360
 1114BOLB   C1D26733  18.920   9.690  42.420
 1114BOLB   C2D26734  19.460   9.640  42.360
 1114BOLB   C3D26735  19.930   9.880  42.360
 1114BOLB   C4D26736  20.300  10.190  42.430
 1115BOLB   NC126737  23.700  11.510  41.320
 1115BOLB   PO126738  23.880  11.820  41.590
 1115BOLB   GL126739  23.760  11.650  42.080
 1115BOLB   GL226740  23.620  11.440  42.070
 1115BOLB   C1A26741  24.060  11.510  42.330
 1115BOLB   C2A26742  24.340  11.570  42.630
 1115BOLB   C3A26743  24.680  11.510  42.970
 1115BOLB   C4A26744  24.820  11.180  43.080
 1115BOLB   C1B26745  23.590  10.960  42.120
 1115BOLB   C2B26746  23.660  10.730  42.540
 1115BOLB   C3B26747  23.320  10.800  42.850
 1115BOLB   C4B26748  22.970  11.000  43.120
 1115BOLB   NC226749  26.110  11.400  45.030
 1115BOLB   PO226750  26.190  10.990  44.930
 1115BOLB   GL326751  26.000  11.020  44.580
 1115BOLB   GL426752  26.150  11.400  44.540
 1115BOLB   C1C26753  25.720  10.810  44.380
 1115BOLB   C2C26754  25.340  10.960  44.130
 1115BOLB   C3C26755  25.300  10.850  43.700
 1115BOLB   C4C26756  25.120  10.940  43.290
 1115BOLB   C1D26757  25.700  11.340  44.330
 1115BOLB   C2D26758  25.530  11.590  44.010
 1115BOLB   C3D26759  25.370  11.760  43.730
 1115BOLB   C4D26760  25.140  12.040  43.450
 1116BOLB   NC126761  30.835  19.320  26.470
 1116BOLB   PO126762  30.575  18.930  26.430
 1116BOLB   GL126763  30.085  18.810  26.450
 1116BOLB   GL226764  30.065  18.580  26.730
 1116BOLB   C1A26765  29.685  18.760  26.280
 1116BOLB   C2A26766  29.365  18.950  26.500
 1116BOLB   C3A26767  28.985  19.140  26.520
 1116BOLB   C4A26768  28.575  19.190  26.620
 1116BOLB   C1B26769  29.825  18.600  27.060
 1116BOLB   C2B26770  29.815  18.400  27.520
 1116BOLB   C3B26771  29.455  18.240  27.620
 1116BOLB   C4B26772  29.035  18.300  27.770
 1116BOLB   NC226773  29.685  19.920  25.610
 1116BOLB   PO226774  29.435  20.280  25.610
 1116BOLB   GL326775  29.125  19.860  25.650
 1116BOLB   GL426776  28.995  19.800  25.960
 1116BOLB   C1C26777  28.765  19.510  25.630
 1116BOLB   C2C26778  28.365  19.350  25.630
 1116BOLB   C3C26779  28.245  19.100  26.020
 1116BOLB   C4C26780  28.225  19.150  26.420
 1116BOLB   C1D26781  28.765  20.200  25.750
 1116BOLB   C2D26782  28.625  20.470  26.080
 1116BOLB   C3D26783  28.215  20.610  26.180
 1116BOLB   C4D26784  27.795  20.340  26.260
 1117BOLB   NC126785  15.860  15.330  37.910
 1117BOLB   PO126786  15.530  15.050  37.900
 1117BOLB   GL126787  15.390  14.860  38.290
 1117BOLB   GL226788  15.210  14.580  38.110
 1117BOLB   C1A26789  15.240  14.640  38.650
 1117BOLB   C2A26790  14.810  14.490  38.780
 1117BOLB   C3A26791  14.590  14.400  39.120
 1117BOLB   C4A26792  14.150  14.400  39.260
 1117BOLB   C1B26793  14.910  14.610  38.270
 1117BOLB   C2B26794  14.530  14.280  38.140
 1117BOLB   C3B26795  14.080  14.280  37.970
 1117BOLB   C4B26796  13.620  14.150  37.980
 1117BOLB   NC226797  12.080  13.770  40.050
 1117BOLB   PO226798  11.670  13.970  39.850
 1117BOLB   GL326799  12.080  14.060  39.660
 1117BOLB   GL426800  12.280  13.860  39.400
 1117BOLB   C1C26801  12.470  14.290  39.560
 1117BOLB   C2C26802  12.860  14.510  39.450
 1117BOLB   C3C26803  13.320  14.470  39.380
 1117BOLB   C4C26804  13.710  14.520  39.430
 1117BOLB   C1D26805  12.650  13.920  39.170
 1117BOLB   C2D26806  13.000  13.670  38.970
 1117BOLB   C3D26807  13.360  13.580  39.060
 1117BOLB   C4D26808  13.770  13.780  39.180
 1118BOLB   NC126809  15.980  16.150  23.860
 1118BOLB   PO126810  16.200  15.880  24.270
 1118BOLB   GL126811  15.920  15.590  24.160
 1118BOLB   GL226812  15.630  15.580  24.000
 1118BOLB   C1A26813  15.680  15.120  24.210
 1118BOLB   C2A26814  15.460  14.860  23.920
 1118BOLB   C3A26815  15.140  14.760  23.700
 1118BOLB   C4A26816  15.030  14.620  23.340
 1118BOLB   C1B26817  15.780  15.310  23.760
 1118BOLB   C2B26818  15.760  15.240  23.380
 1118BOLB   C3B26819  15.840  15.400  23.020
 1118BOLB   C4B26820  15.600  15.530  22.520
 1118BOLB   NC226821  13.300  14.020  21.970
 1118BOLB   PO226822  13.020  13.940  22.320
 1118BOLB   GL326823  13.160  14.190  22.630
 1118BOLB   GL426824  13.250  13.980  22.930
 1118BOLB   C1C26825  13.620  14.270  22.710
 1118BOLB   C2C26826  13.970  14.130  22.770
 1118BOLB   C3C26827  14.440  14.060  22.930
 1118BOLB   C4C26828  14.750  14.370  23.120
 1118BOLB   C1D26829  13.400  14.360  23.160
 1118BOLB   C2D26830  13.870  14.580  23.000
 1118BOLB   C3D26831  14.320  14.560  22.980
 1118BOLB   C4D26832  14.680  14.870  23.060
 1119BOLB   NC126833  14.930  16.080  38.240
 1119BOLB   PO126834  15.090  15.650  37.980
 1119BOLB   GL126835  14.710  15.700  37.920
 1119BOLB   GL226836  14.670  15.600  38.310
 1119BOLB   C1A26837  14.460  15.570  37.680
 1119BOLB   C2A26838  14.040  15.760  37.560
 1119BOLB   C3A26839  13.630  15.680  37.410
 1119BOLB   C4A26840  13.290  15.530  37.580
 1119BOLB   C1B26841  14.270  15.500  38.170
 1119BOLB   C2B26842  13.890  15.320  38.290
 1119BOLB   C3B26843  13.380  15.310  38.290
 1119BOLB   C4B26844  12.990  15.460  38.230
 1119BOLB   NC226845  11.170  15.290  38.990
 1119BOLB   PO226846  11.090  15.710  38.670
 1119BOLB   GL326847  11.380  15.820  38.350
 1119BOLB   GL426848  11.280  16.100  38.080
 1119BOLB   C1C26849  11.860  15.740  38.310
 1119BOLB   C2C26850  12.090  15.520  38.130
 1119BOLB   C3C26851  12.510  15.390  37.990
 1119BOLB   C4C26852  12.840  15.540  37.740
 1119BOLB   C1D26853  11.640  15.920  37.880
 1119BOLB   C2D26854  11.670  15.900  37.480
 1119BOLB   C3D26855  12.050  15.740  37.190
 1119BOLB   C4D26856  12.000  15.640  36.720
 1120BOLB   NC126857  21.580  18.020  43.790
 1120BOLB   PO126858  21.250  18.100  43.700
 1120BOLB   GL126859  21.190  18.030  44.120
 1120BOLB   GL226860  21.410  18.060  44.280
 1120BOLB   C1A26861  20.900  18.010  44.500
 1120BOLB   C2A26862  20.770  18.270  44.760
 1120BOLB   C3A26863  20.770  18.550  45.160
 1120BOLB   C4A26864  20.600  18.950  45.220
 1120BOLB   C1B26865  21.550  18.160  44.740
 1120BOLB   C2B26866  21.740  18.080  45.190
 1120BOLB   C3B26867  22.110  17.980  45.490
 1120BOLB   C4B26868  22.320  17.650  45.700
 1120BOLB   NC226869  19.280  20.300  47.310
 1120BOLB   PO226870  19.630  20.330  47.030
 1120BOLB   GL326871  19.910  20.320  46.640
 1120BOLB   GL426872  19.880  20.660  46.480
 1120BOLB   C1C26873  19.920  19.950  46.280
 1120BOLB   C2C26874  19.860  19.550  46.010
 1120BOLB   C3C26875  19.960  19.160  45.800
 1120BOLB   C4C26876  20.230  19.090  45.410
 1120BOLB   C1D26877  19.520  20.670  46.240
 1120BOLB   C2D26878  19.270  20.560  45.920
 1120BOLB   C3D26879  19.220  20.280  45.450
 1120BOLB   C4D26880  19.030  20.300  44.990
 1121BOLB   NC126881  17.450  15.370  23.160
 1121BOLB   PO126882  17.550  15.100  23.500
 1121BOLB   GL126883  17.220  14.900  23.280
 1121BOLB   GL226884  17.030  14.790  23.510
 1121BOLB   C1A26885  17.110  14.560  23.000
 1121BOLB   C2A26886  16.700  14.280  22.860
 1121BOLB   C3A26887  16.480  13.940  22.710
 1121BOLB   C4A26888  16.280  13.550  22.710
 1121BOLB   C1B26889  16.720  14.670  23.370
 1121BOLB   C2B26890  16.350  14.730  23.210
 1121BOLB   C3B26891  16.090  14.920  22.990
 1121BOLB   C4B26892  15.810  15.070  22.670
 1121BOLB   NC226893  16.560  12.480  20.340
 1121BOLB   PO226894  16.160  12.460  20.420
 1121BOLB   GL326895  16.430  12.610  20.800
 1121BOLB   GL426896  16.790  12.630  20.780
 1121BOLB   C1C26897  16.500  12.820  21.220
 1121BOLB   C2C26898  16.390  13.070  21.570
 1121BOLB   C3C26899  16.350  13.230  22.000
 1121BOLB   C4C26900  16.130  13.220  22.400
 1121BOLB   C1D26901  17.170  12.680  20.760
 1121BOLB   C2D26902  17.430  12.410  21.070
 1121BOLB   C3D26903  17.730  12.550  21.460
 1121BOLB   C4D26904  17.970  12.860  21.450
 1122BOLB   NC126905  14.410  25.610  39.700
 1122BOLB   PO126906  14.790  25.800  39.800
 1122BOLB   GL126907  15.080  25.690  39.520
 1122BOLB   GL226908  15.280  25.970  39.450
 1122BOLB   C1A26909  15.230  25.630  39.170
 1122BOLB   C2A26910  15.570  25.490  39.040
 1122BOLB   C3A26911  15.990  25.410  39.220
 1122BOLB   C4A26912  16.220  25.120  39.310
 1122BOLB   C1B26913  15.680  25.860  39.370
 1122BOLB   C2B26914  16.020  25.680  39.670
 1122BOLB   C3B26915  16.290  25.620  40.030
 1122BOLB   C4B26916  16.620  25.290  40.130
 1122BOLB   NC226917  16.270  26.020  40.630
 1122BOLB   PO226918  15.890  25.930  40.420
 1122BOLB   GL326919  15.930  25.530  40.580
 1122BOLB   GL426920  16.050  25.440  40.880
 1122BOLB   C1C26921  16.240  25.240  40.400
 1122BOLB   C2C26922  16.280  24.800  40.310
 1122BOLB   C3C26923  16.470  24.710  39.960
 1122BOLB   C4C26924  16.400  24.760  39.560
 1122BOLB   C1D26925  16.560  25.450  40.730
 1122BOLB   C2D26926  17.040  25.460  40.650
 1122BOLB   C3D26927  17.350  25.090  40.480
 1122BOLB   C4D26928  17.710  25.080  40.240
 1123BOLB   NC126929  19.920  24.050  28.040
 1123BOLB   PO126930  19.860  23.950  27.610
 1123BOLB   GL126931  20.000  24.370  27.540
 1123BOLB   GL226932  19.800  24.460  27.190
 1123BOLB   C1A26933  20.120  24.810  27.520
 1123BOLB   C2A26934  20.120  25.280  27.270
 1123BOLB   C3A26935  20.150  25.690  27.270
 1123BOLB   C4A26936  19.930  26.060  27.400
 1123BOLB   C1B26937  19.770  24.940  27.190
 1123BOLB   C2B26938  19.830  25.260  26.850
 1123BOLB   C3B26939  19.640  25.360  26.480
 1123BOLB   C4B26940  19.520  25.220  26.070
 1123BOLB   NC226941  19.330   1.950  27.070
 1123BOLB   PO226942  19.600   1.730  26.810
 1123BOLB   GL326943  19.470   1.460  27.070
 1123BOLB   GL426944  19.290   1.480  27.250
 1123BOLB   C1C26945  19.630   1.180  27.370
 1123BOLB   C2C26946  19.880   0.870  27.530
 1123BOLB   C3C26947  20.080   0.430  27.530
 1123BOLB   C4C26948  20.180   0.010  27.430
 1123BOLB   C1D26949  19.180   1.080  27.100
 1123BOLB   C2D26950  18.990   0.910  26.680
 1123BOLB   C3D26951  18.650   0.640  26.440
 1123BOLB   C4D26952  18.130   0.360  26.510
 1124BOLB   NC126953  22.120   8.210  31.220
 1124BOLB   PO126954  22.270   8.230  30.790
 1124BOLB   GL126955  22.210   7.830  30.820
 1124BOLB   GL226956  22.330   7.690  31.070
 1124BOLB   C1A26957  22.100   7.390  30.700
 1124BOLB   C2A26958  22.150   6.970  30.770
 1124BOLB   C3A26959  22.060   6.770  31.100
 1124BOLB   C4A26960  21.960   6.360  31.090
 1124BOLB   C1B26961  22.090   7.330  31.210
 1124BOLB   C2B26962  22.000   7.180  31.540
 1124BOLB   C3B26963  21.820   7.060  31.860
 1124BOLB   C4B26964  21.350   6.960  32.070
 1124BOLB   NC226965  22.130   4.090  30.250
 1124BOLB   PO226966  21.810   4.060  30.480
 1124BOLB   GL326967  21.900   4.560  30.590
 1124BOLB   GL426968  22.200   4.500  30.600
 1124BOLB   C1C26969  21.820   4.910  30.590
 1124BOLB   C2C26970  22.000   5.330  30.520
 1124BOLB   C3C26971  21.920   5.760  30.640
 1124BOLB   C4C26972  21.780   6.040  30.860
 1124BOLB   C1D26973  22.280   4.920  30.430
 1124BOLB   C2D26974  22.480   5.270  30.290
 1124BOLB   C3D26975  22.750   5.540  30.410
 1124BOLB   C4D26976  23.060   5.920  30.330
 1125BOLB   NC126977  13.700  18.380  35.440
 1125BOLB   PO126978  13.900  17.980  35.410
 1125BOLB   GL126979  13.480  17.930  35.600
 1125BOLB   GL226980  13.130  18.190  35.550
 1125BOLB   C1A26981  13.100  17.680  35.680
 1125BOLB   C2A26982  12.740  17.400  35.710
 1125BOLB   C3A26983  12.520  16.970  35.550
 1125BOLB   C4A26984  12.350  16.570  35.750
 1125BOLB   C1B26985  12.700  17.880  35.590
 1125BOLB   C2B26986  12.260  17.700  35.770
 1125BOLB   C3B26987  11.960  17.500  35.990
 1125BOLB   C4B26988  11.610  17.340  36.180
 1125BOLB   NC226989  10.430  15.400  37.090
 1125BOLB   PO226990  10.850  15.520  37.120
 1125BOLB   GL326991  11.200  15.670  36.980
 1125BOLB   GL426992  11.080  15.970  37.040
 1125BOLB   C1C26993  11.580  15.920  36.970
 1125BOLB   C2C26994  11.870  16.170  36.740
 1125BOLB   C3C26995  11.820  16.370  36.390
 1125BOLB   C4C26996  12.020  16.300  36.030
 1125BOLB   C1D26997  11.290  16.210  37.270
 1125BOLB   C2D26998  11.710  16.310  37.270
 1125BOLB   C3D26999  12.190  16.410  37.200
 1125BOLB   C4D27000  12.460  16.280  37.540
 1126BOLB   NC127001  27.095  12.040  24.930
 1126BOLB   PO127002  27.075  11.570  24.890
 1126BOLB   GL127003  27.505  11.780  24.700
 1126BOLB   GL227004  27.465  12.040  24.650
 1126BOLB   C1A27005  27.825  11.740  24.300
 1126BOLB   C2A27006  28.035  11.650  23.940
 1126BOLB   C3A27007  28.115  11.330  23.540
 1126BOLB   C4A27008  27.965  11.380  23.180
 1126BOLB   C1B27009  27.825  12.250  24.640
 1126BOLB   C2B27010  27.955  12.510  24.330
 1126BOLB   C3B27011  28.195  12.740  24.070
 1126BOLB   C4B27012  28.545  12.950  23.860
 1126BOLB   NC227013  29.185   9.990  21.670
 1126BOLB   PO227014  28.815   9.690  21.490
 1126BOLB   GL327015  28.555   9.990  21.770
 1126BOLB   GL427016  28.685   9.910  22.070
 1126BOLB   C1C27017  28.365  10.310  22.070
 1126BOLB   C2C27018  28.585  10.720  22.300
 1126BOLB   C3C27019  28.455  10.990  22.570
 1126BOLB   C4C27020  28.155  11.210  22.780
 1126BOLB   C1D27021  28.535  10.200  22.590
 1126BOLB   C2D27022  28.615  10.560  22.930
 1126BOLB   C3D27023  28.385  10.820  23.190
 1126BOLB   C4D27024  27.985  10.890  23.170
 1127BOLB   NC127025  26.030  19.760  39.200
 1127BOLB   PO127026  25.780  19.900  39.400
 1127BOLB   GL127027  26.200  20.050  39.580
 1127BOLB   GL227028  26.565  20.030  39.250
 1127BOLB   C1A27029  26.495  20.350  39.630
 1127BOLB   C2A27030  26.665  20.850  39.480
 1127BOLB   C3A27031  26.865  21.110  39.790
 1127BOLB   C4A27032  27.225  21.190  40.030
 1127BOLB   C1B27033  26.765  20.430  39.140
 1127BOLB   C2B27034  27.015  20.730  38.880
 1127BOLB   C3B27035  27.205  21.120  38.760
 1127BOLB   C4B27036  27.625  21.090  38.370
 1127BOLB   NC227037  29.975  22.150  39.860
 1127BOLB   PO227038  29.795  21.940  39.640
 1127BOLB   GL327039  29.275  21.830  39.540
 1127BOLB   GL427040  29.195  22.040  39.260
 1127BOLB   C1C27041  28.895  21.560  39.630
 1127BOLB   C2C27042  28.475  21.360  39.810
 1127BOLB   C3C27043  28.105  21.170  39.900
 1127BOLB   C4C27044  27.575  21.140  39.950
 1127BOLB   C1D27045  28.905  21.890  39.230
 1127BOLB   C2D27046  28.775  21.540  39.190
 1127BOLB   C3D27047  28.535  21.380  39.320
 1127BOLB   C4D27048  28.265  21.040  39.420
 1128BOLB   NC127049  22.160  19.290  42.790
 1128BOLB   PO127050  22.460  19.300  42.960
 1128BOLB   GL127051  22.550  19.260  43.380
 1128BOLB   GL227052  22.460  19.590  43.490
 1128BOLB   C1A27053  22.650  19.170  43.810
 1128BOLB   C2A27054  22.790  19.180  44.150
 1128BOLB   C3A27055  23.070  18.940  44.480
 1128BOLB   C4A27056  23.380  19.240  44.680
 1128BOLB   C1B27057  22.820  19.700  43.680
 1128BOLB   C2B27058  23.140  19.820  43.900
 1128BOLB   C3B27059  23.410  19.910  44.270
 1128BOLB   C4B27060  23.610  19.590  44.320
 1128BOLB   NC227061  23.370  18.820  47.350
 1128BOLB   PO227062  23.330  19.270  47.100
 1128BOLB   GL327063  23.200  19.260  46.720
 1128BOLB   GL427064  23.120  19.530  46.560
 1128BOLB   C1C27065  23.230  19.120  46.260
 1128BOLB   C2C27066  23.560  19.310  46.000
 1128BOLB   C3C27067  23.640  19.430  45.470
 1128BOLB   C4C27068  23.500  19.450  45.060
 1128BOLB   C1D27069  23.600  19.590  46.490
 1128BOLB   C2D27070  23.780  19.840  46.130
 1128BOLB   C3D27071  23.900  19.840  45.710
 1128BOLB   C4D27072  23.900  19.830  45.290
 1129BOLB   NC127073  28.705   9.000  32.160
 1129BOLB   PO127074  28.945   9.360  32.090
 1129BOLB   GL127075  29.195   9.050  32.130
 1129BOLB   GL227076  29.515   9.240  31.980
 1129BOLB   C1A27077  29.415   8.730  32.200
 1129BOLB   C2A27078  29.695   8.400  32.360
 1129BOLB   C3A27079  30.075   8.070  32.430
 1129BOLB   C4A27080  30.255   7.610  32.510
 1129BOLB   C1B27081  29.915   9.020  32.160
 1129BOLB   C2B27082  30.225   8.900  32.070
 1129BOLB   C3B27083  30.625   8.710  31.930
 1129BOLB   C4B27084  30.915   8.500  31.620
 1129BOLB   NC227085  31.885   6.750  31.130
 1129BOLB   PO227086  32.105   6.530  31.470
 1129BOLB   GL327087  31.805   6.780  31.670
 1129BOLB   GL427088  31.945   6.870  31.900
 1129BOLB   C1C27089  31.395   6.790  31.860
 1129BOLB   C2C27090  30.975   6.800  32.020
 1129BOLB   C3C27091  30.675   6.930  32.240
 1129BOLB   C4C27092  30.395   7.150  32.470
 1129BOLB   C1D27093  31.695   7.090  32.140
 1129BOLB   C2D27094  31.455   7.350  32.450
 1129BOLB   C3D27095  31.255   7.590  32.630
 1129BOLB   C4D27096  31.085   7.960  32.570
 1130BOLB   NC127097  15.700  13.760  35.480
 1130BOLB   PO127098  15.510  14.050  35.770
 1130BOLB   GL127099  15.240  13.740  35.600
 1130BOLB   GL227100  15.080  13.760  35.200
 1130BOLB   C1A27101  14.780  13.560  35.570
 1130BOLB   C2A27102  14.320  13.320  35.600
 1130BOLB   C3A27103  13.940  13.140  35.390
 1130BOLB   C4A27104  13.460  13.080  35.300
 1130BOLB   C1B27105  14.850  13.340  35.110
 1130BOLB   C2B27106  14.640  13.090  35.350
 1130BOLB   C3B27107  14.290  12.810  35.550
 1130BOLB   C4B27108  14.070  12.510  35.390
 1130BOLB   NC227109  11.140  12.610  35.610
 1130BOLB   PO227110  11.160  12.840  36.110
 1130BOLB   GL327111  11.530  12.860  35.820
 1130BOLB   GL427112  11.500  13.160  35.740
 1130BOLB   C1C27113  11.860  12.850  35.700
 1130BOLB   C2C27114  12.240  13.070  35.500
 1130BOLB   C3C27115  12.720  12.890  35.470
 1130BOLB   C4C27116  13.140  12.880  35.370
 1130BOLB   C1D27117  11.900  13.310  35.940
 1130BOLB   C2D27118  12.340  13.520  35.820
 1130BOLB   C3D27119  12.670  13.350  35.710
 1130BOLB   C4D27120  12.920  13.320  35.340
 1131BOLB   NC127121  27.805   8.390  31.380
 1131BOLB   PO127122  28.125   8.700  31.400
 1131BOLB   GL127123  28.275   8.290  31.570
 1131BOLB   GL227124  28.235   8.070  31.260
 1131BOLB   C1A27125  28.465   7.960  31.720
 1131BOLB   C2A27126  28.765   7.570  31.750
 1131BOLB   C3A27127  28.925   7.250  31.920
 1131BOLB   C4A27128  29.255   6.960  31.970
 1131BOLB   C1B27129  28.605   7.800  31.270
 1131BOLB   C2B27130  28.945   7.480  31.250
 1131BOLB   C3B27131  29.195   7.070  31.250
 1131BOLB   C4B27132  29.185   6.640  31.030
 1131BOLB   NC227133  31.815   6.180  31.710
 1131BOLB   PO227134  31.365   6.170  31.940
 1131BOLB   GL327135  30.935   6.100  32.180
 1131BOLB   GL427136  30.775   5.900  32.020
 1131BOLB   C1C27137  30.605   6.430  32.290
 1131BOLB   C2C27138  30.225   6.610  32.360
 1131BOLB   C3C27139  29.995   6.550  32.010
 1131BOLB   C4C27140  29.595   6.660  31.950
 1131BOLB   C1D27141  30.595   6.200  31.770
 1131BOLB   C2D27142  30.485   6.610  31.830
 1131BOLB   C3D27143  30.325   6.990  31.920
 1131BOLB   C4D27144  30.235   7.320  32.000
 1132BOLB   NC127145  18.640  17.500  42.100
 1132BOLB   PO127146  18.560  17.410  42.560
 1132BOLB   GL127147  18.130  17.370  42.700
 1132BOLB   GL227148  18.060  17.650  42.740
 1132BOLB   C1A27149  17.830  17.280  42.990
 1132BOLB   C2A27150  17.530  17.280  43.200
 1132BOLB   C3A27151  17.190  17.470  43.490
 1132BOLB   C4A27152  17.100  17.700  43.900
 1132BOLB   C1B27153  17.660  17.770  43.010
 1132BOLB   C2B27154  17.240  17.790  43.110
 1132BOLB   C3B27155  16.790  17.650  42.890
 1132BOLB   C4B27156  16.560  17.550  42.440
 1132BOLB   NC227157  16.050  16.910  45.520
 1132BOLB   PO227158  16.440  16.620  45.690
 1132BOLB   GL327159  16.650  16.680  45.410
 1132BOLB   GL427160  16.890  16.960  45.300
 1132BOLB   C1C27161  16.500  16.870  45.000
 1132BOLB   C2C27162  16.590  17.240  44.890
 1132BOLB   C3C27163  16.870  17.450  44.640
 1132BOLB   C4C27164  17.100  17.580  44.370
 1132BOLB   C1D27165  16.970  16.920  44.780
 1132BOLB   C2D27166  17.040  17.040  44.320
 1132BOLB   C3D27167  17.240  17.200  43.930
 1132BOLB   C4D27168  17.180  16.980  43.520
 1133BOLB   NC127169  28.065  20.650  22.740
 1133BOLB   PO127170  27.725  20.870  22.850
 1133BOLB   GL127171  27.295  20.780  22.840
 1133BOLB   GL227172  27.095  20.900  22.710
 1133BOLB   C1A27173  27.145  20.460  23.120
 1133BOLB   C2A27174  26.805  20.200  23.070
 1133BOLB   C3A27175  26.495  19.900  23.040
 1133BOLB   C4A27176  26.050  19.900  22.910
 1133BOLB   C1B27177  26.745  20.950  22.700
 1133BOLB   C2B27178  26.390  20.670  22.780
 1133BOLB   C3B27179  26.270  20.400  23.090
 1133BOLB   C4B27180  26.475  20.150  23.460
 1133BOLB   NC227181  26.475  22.130  21.890
 1133BOLB   PO227182  26.380  21.740  21.610
 1133BOLB   GL327183  26.370  21.200  21.680
 1133BOLB   GL427184  26.370  21.020  22.060
 1133BOLB   C1C27185  26.040  20.810  21.680
 1133BOLB   C2C27186  25.880  20.570  21.970
 1133BOLB   C3C27187  25.670  20.190  22.200
 1133BOLB   C4C27188  25.760  19.950  22.540
 1133BOLB   C1D27189  26.140  21.400  22.340
 1133BOLB   C2D27190  25.740  21.430  22.410
 1133BOLB   C3D27191  25.440  21.130  22.690
 1133BOLB   C4D27192  25.120  21.040  22.980
 1134BOLB   NC127193  28.645  15.370  37.840
 1134BOLB   PO127194  28.955  15.540  37.540
 1134BOLB   GL127195  29.365  15.450  37.470
 1134BOLB   GL227196  29.475  15.730  37.610
 1134BOLB   C1A27197  29.725  15.430  37.200
 1134BOLB   C2A27198  30.055  15.710  36.980
 1134BOLB   C3A27199  30.445  15.820  36.730
 1134BOLB   C4A27200  30.685  16.040  36.870
 1134BOLB   C1B27201  29.925  15.450  37.690
 1134BOLB   C2B27202  30.265  15.390  37.850
 1134BOLB   C3B27203  30.635  15.220  38.120
 1134BOLB   C4B27204  31.015  15.380  38.410
 1134BOLB   NC227205  32.885  17.240  37.010
 1134BOLB   PO227206  33.055  16.860  36.860
 1134BOLB   GL327207  32.615  16.820  36.950
 1134BOLB   GL427208  32.525  16.480  37.040
 1134BOLB   C1C27209  32.165  16.910  37.050
 1134BOLB   C2C27210  31.805  16.850  36.990
 1134BOLB   C3C27211  31.485  16.480  36.960
 1134BOLB   C4C27212  31.145  16.200  36.970
 1134BOLB   C1D27213  32.335  16.050  36.880
 1134BOLB   C2D27214  32.165  15.810  36.540
 1134BOLB   C3D27215  31.755  15.770  36.380
 1134BOLB   C4D27216  31.415  15.570  36.270
 1135BOLB   NC127217  23.530  17.380  43.280
 1135BOLB   PO127218  23.700  17.700  43.260
 1135BOLB   GL127219  23.610  17.760  43.770
 1135BOLB   GL227220  23.660  17.550  44.130
 1135BOLB   C1A27221  23.420  18.050  44.110
 1135BOLB   C2A27222  23.440  18.350  44.380
 1135BOLB   C3A27223  23.560  18.690  44.650
 1135BOLB   C4A27224  23.710  18.760  45.040
 1135BOLB   C1B27225  23.890  17.880  44.240
 1135BOLB   C2B27226  23.870  18.210  44.520
 1135BOLB   C3B27227  24.020  18.510  44.700
 1135BOLB   C4B27228  24.260  18.520  45.090
 1135BOLB   NC227229  24.690  20.060  46.880
 1135BOLB   PO227230  24.560  19.620  46.910
 1135BOLB   GL327231  24.300  19.630  46.620
 1135BOLB   GL427232  24.180  19.900  46.460
 1135BOLB   C1C27233  24.060  19.320  46.360
 1135BOLB   C2C27234  24.080  19.390  45.970
 1135BOLB   C3C27235  24.000  19.040  45.670
 1135BOLB   C4C27236  23.820  19.090  45.250
 1135BOLB   C1D27237  24.320  19.850  46.030
 1135BOLB   C2D27238  24.420  19.670  45.670
 1135BOLB   C3D27239  24.210  19.420  45.340
 1135BOLB   C4D27240  23.980  19.540  44.960
 1136BOLB   NC127241  25.620   4.560  25.170
 1136BOLB   PO127242  25.830   4.690  25.510
 1136BOLB   GL127243  25.640   5.040  25.790
 1136BOLB   GL227244  25.580   4.930  26.150
 1136BOLB   C1A27245  25.750   5.470  26.020
 1136BOLB   C2A27246  25.700   5.690  26.400
 1136BOLB   C3A27247  25.540   5.900  26.790
 1136BOLB   C4A27248  25.820   5.910  27.200
 1136BOLB   C1B27249  25.250   5.270  26.310
 1136BOLB   C2B27250  25.300   5.670  26.080
 1136BOLB   C3B27251  25.410   6.110  25.940
 1136BOLB   C4B27252  25.190   6.460  25.890
 1136BOLB   NC227253  27.605   4.660  27.380
 1136BOLB   PO227254  27.555   4.920  26.970
 1136BOLB   GL327255  27.365   5.300  27.070
 1136BOLB   GL427256  27.385   5.200  27.350
 1136BOLB   C1C27257  27.085   5.570  27.150
 1136BOLB   C2C27258  26.855   5.970  27.120
 1136BOLB   C3C27259  26.565   6.050  27.380
 1136BOLB   C4C27260  26.080   5.910  27.400
 1136BOLB   C1D27261  27.395   5.570  27.650
 1136BOLB   C2D27262  27.715   5.840  27.790
 1136BOLB   C3D27263  27.805   5.970  28.220
 1136BOLB   C4D27264  27.475   6.110  28.460
 1137BOLB   NC127265  27.435   9.280  37.650
 1137BOLB   PO127266  27.465   9.710  37.670
 1137BOLB   GL127267  27.585   9.500  38.090
 1137BOLB   GL227268  27.275   9.560  38.310
 1137BOLB   C1A27269  27.885   9.360  38.350
 1137BOLB   C2A27270  28.215   9.350  38.630
 1137BOLB   C3A27271  28.455   9.180  38.970
 1137BOLB   C4A27272  28.485   9.290  39.350
 1137BOLB   C1B27273  27.475   9.270  38.640
 1137BOLB   C2B27274  27.845   9.050  38.780
 1137BOLB   C3B27275  28.155   8.730  38.820
 1137BOLB   C4B27276  28.355   8.380  38.840
 1137BOLB   NC227277  29.935   8.390  40.950
 1137BOLB   PO227278  29.695   8.220  41.340
 1137BOLB   GL327279  29.495   8.210  40.880
 1137BOLB   GL427280  29.695   8.240  40.500
 1137BOLB   C1C27281  29.095   8.400  40.670
 1137BOLB   C2C27282  28.835   8.510  40.320
 1137BOLB   C3C27283  28.755   8.840  39.970
 1137BOLB   C4C27284  28.615   9.160  39.750
 1137BOLB   C1D27285  29.415   8.010  40.280
 1137BOLB   C2D27286  29.175   7.650  40.250
 1137BOLB   C3D27287  29.075   7.240  40.130
 1137BOLB   C4D27288  28.715   7.230  39.970
 1138BOLB   NC127289  19.620   9.950  32.340
 1138BOLB   PO127290  19.940   9.690  32.320
 1138BOLB   GL127291  19.560   9.410  32.430
 1138BOLB   GL227292  19.390   9.170  32.110
 1138BOLB   C1A27293  19.240   9.320  32.550
 1138BOLB   C2A27294  19.130   8.930  32.580
 1138BOLB   C3A27295  19.170   8.580  32.630
 1138BOLB   C4A27296  18.940   8.170  32.800
 1138BOLB   C1B27297  18.980   9.140  32.140
 1138BOLB   C2B27298  18.670   9.000  32.000
 1138BOLB   C3B27299  18.320   8.730  31.960
 1138BOLB   C4B27300  17.990   8.390  32.120
 1138BOLB   NC227301  17.380   6.640  33.320
 1138BOLB   PO227302  17.540   6.290  33.230
 1138BOLB   GL327303  17.720   6.640  33.010
 1138BOLB   GL427304  17.760   6.630  32.600
 1138BOLB   C1C27305  18.020   7.040  33.180
 1138BOLB   C2C27306  18.230   7.340  33.320
 1138BOLB   C3C27307  18.500   7.640  33.250
 1138BOLB   C4C27308  18.820   8.010  33.150
 1138BOLB   C1D27309  18.120   6.920  32.730
 1138BOLB   C2D27310  18.330   7.330  32.770
 1138BOLB   C3D27311  18.350   7.710  32.600
 1138BOLB   C4D27312  18.410   8.090  32.920
 1139BOLB   NC127313  18.400  11.180  32.590
 1139BOLB   PO127314  17.990  11.110  32.360
 1139BOLB   GL127315  17.890  10.680  32.320
 1139BOLB   GL227316  17.920  10.740  32.030
 1139BOLB   C1A27317  17.730  10.310  32.240
 1139BOLB   C2A27318  17.440   9.990  32.350
 1139BOLB   C3A27319  17.180   9.710  32.600
 1139BOLB   C4A27320  17.020   9.340  32.590
 1139BOLB   C1B27321  17.560  10.590  31.880
 1139BOLB   C2B27322  17.150  10.320  32.110
 1139BOLB   C3B27323  16.950   9.970  32.210
 1139BOLB   C4B27324  16.680   9.660  32.390
 1139BOLB   NC227325  15.890   7.670  33.850
 1139BOLB   PO227326  15.530   7.520  33.540
 1139BOLB   GL327327  15.830   7.980  33.450
 1139BOLB   GL427328  16.190   8.050  33.570
 1139BOLB   C1C27329  15.790   8.420  33.330
 1139BOLB   C2C27330  15.840   8.850  33.060
 1139BOLB   C3C27331  16.220   9.070  32.810
 1139BOLB   C4C27332  16.650   9.320  32.840
 1139BOLB   C1D27333  16.280   8.360  33.360
 1139BOLB   C2D27334  16.190   8.810  33.350
 1139BOLB   C3D27335  16.370   9.110  33.260
 1139BOLB   C4D27336  16.620   9.460  33.310
 1140BOLB   NC127337  19.680  24.370  35.390
 1140BOLB   PO127338  19.970  24.210  35.690
 1140BOLB   GL127339  19.790  24.610  35.860
 1140BOLB   GL227340  19.970  24.900  35.840
 1140BOLB   C1A27341  19.460  25.000  35.880
 1140BOLB   C2A27342  19.460  25.250  36.150
 1140BOLB   C3A27343  19.580  25.690  36.220
 1140BOLB   C4A27344  19.640  26.140  36.030
 1140BOLB   C1B27345  19.870  25.280  35.830
 1140BOLB   C2B27346  19.840  25.710  35.710
 1140BOLB   C3B27347  20.070  26.130  35.830
 1140BOLB   C4B27348  20.490  26.230  35.750
 1140BOLB   NC227349  21.120   2.230  35.930
 1140BOLB   PO227350  21.050   1.750  36.010
 1140BOLB   GL327351  20.770   1.460  36.230
 1140BOLB   GL427352  20.780   1.160  36.200
 1140BOLB   C1C27353  20.280   1.310  36.250
 1140BOLB   C2C27354  20.210   0.820  36.180
 1140BOLB   C3C27355  20.220   0.390  36.260
 1140BOLB   C4C27356  19.930   0.060  36.120
 1140BOLB   C1D27357  20.680   0.720  36.170
 1140BOLB   C2D27358  20.690   0.270  36.050
 1140BOLB   C3D27359  20.590  26.340  36.260
 1140BOLB   C4D27360  20.910  25.950  36.390
 1141BOLB   NC127361  27.205  17.480  36.850
 1141BOLB   PO127362  27.625  17.530  37.040
 1141BOLB   GL127363  28.055  17.660  37.140
 1141BOLB   GL227364  28.245  17.700  37.410
 1141BOLB   C1A27365  28.395  17.890  36.880
 1141BOLB   C2A27366  28.705  17.860  36.530
 1141BOLB   C3A27367  29.155  18.050  36.470
 1141BOLB   C4A27368  29.495  18.260  36.370
 1141BOLB   C1B27369  28.585  17.660  37.390
 1141BOLB   C2B27370  28.995  17.810  37.360
 1141BOLB   C3B27371  29.445  17.920  37.520
 1141BOLB   C4B27372  29.595  18.180  37.770
 1141BOLB   NC227373  31.205  19.650  36.180
 1141BOLB   PO227374  31.265  19.190  36.010
 1141BOLB   GL327375  31.015  18.810  35.910
 1141BOLB   GL427376  30.925  18.740  35.590
 1141BOLB   C1C27377  30.915  18.450  36.030
 1141BOLB   C2C27378  30.775  18.370  36.430
 1141BOLB   C3C27379  30.375  18.310  36.450
 1141BOLB   C4C27380  29.885  18.260  36.460
 1141BOLB   C1D27381  30.485  18.570  35.620
 1141BOLB   C2D27382  30.115  18.430  35.620
 1141BOLB   C3D27383  29.825  18.170  35.800
 1141BOLB   C4D27384  29.705  17.870  36.130
 1142BOLB   NC127385  19.660  24.140  37.660
 1142BOLB   PO127386  19.560  24.210  37.310
 1142BOLB   GL127387  19.700  24.600  37.490
 1142BOLB   GL227388  19.600  24.640  37.810
 1142BOLB   C1A27389  19.790  25.060  37.690
 1142BOLB   C2A27390  19.700  25.580  37.610
 1142BOLB   C3A27391  19.520  25.900  37.380
 1142BOLB   C4A27392  19.160  26.160  37.450
 1142BOLB   C1B27393  19.360  25.070  38.050
 1142BOLB   C2B27394  19.120  25.420  38.340
 1142BOLB   C3B27395  18.860  25.780  38.470
 1142BOLB   C4B27396  18.490  25.850  38.560
 1142BOLB   NC227397  19.110   2.110  36.780
 1142BOLB   PO227398  19.110   2.120  37.210
 1142BOLB   GL327399  18.950   1.770  37.380
 1142BOLB   GL427400  19.220   1.740  37.590
 1142BOLB   C1C27401  18.790   1.340  37.390
 1142BOLB   C2C27402  18.880   0.880  37.310
 1142BOLB   C3C27403  18.930   0.450  37.440
 1142BOLB   C4C27404  18.930   0.040  37.390
 1142BOLB   C1D27405  19.290   1.460  37.150
 1142BOLB   C2D27406  19.280   1.080  36.830
 1142BOLB   C3D27407  19.340   0.910  36.480
 1142BOLB   C4D27408  19.240   0.660  36.110
 1143BOLB   NC127409  20.990  21.290  41.680
 1143BOLB   PO127410  20.940  21.620  41.450
 1143BOLB   GL127411  20.910  21.750  41.870
 1143BOLB   GL227412  20.660  21.590  42.050
 1143BOLB   C1A27413  20.970  22.040  42.220
 1143BOLB   C2A27414  20.630  22.350  42.480
 1143BOLB   C3A27415  20.340  22.550  42.570
 1143BOLB   C4A27416  20.140  22.980  42.660
 1143BOLB   C1B27417  20.440  22.030  42.090
 1143BOLB   C2B27418  20.150  22.350  42.010
 1143BOLB   C3B27419  19.910  22.670  42.250
 1143BOLB   C4B27420  19.760  23.020  42.150
 1143BOLB   NC227421  19.950  25.010  43.990
 1143BOLB   PO227422  19.800  24.650  43.880
 1143BOLB   GL327423  19.840  24.530  43.510
 1143BOLB   GL427424  19.900  24.670  43.240
 1143BOLB   C1C27425  19.960  24.110  43.280
 1143BOLB   C2C27426  20.060  23.940  42.830
 1143BOLB   C3C27427  20.130  23.780  42.480
 1143BOLB   C4C27428  20.110  23.370  42.320
 1143BOLB   C1D27429  19.730  24.380  42.880
 1143BOLB   C2D27430  19.580  24.190  42.480
 1143BOLB   C3D27431  19.660  23.960  42.080
 1143BOLB   C4D27432  19.870  23.980  41.570
 1144BOLB   NC127433  21.720  16.260  21.530
 1144BOLB   PO127434  21.630  16.610  21.140
 1144BOLB   GL127435  21.770  16.330  20.780
 1144BOLB   GL227436  21.440  16.350  20.650
 1144BOLB   C1A27437  22.040  16.130  20.370
 1144BOLB   C2A27438  22.290  15.980  19.920
 1144BOLB   C3A27439  22.350  15.800  19.470
 1144BOLB   C4A27440  22.350  15.690  19.020
 1144BOLB   C1B27441  21.550  16.460  20.240
 1144BOLB   C2B27442  21.850  16.520  19.940
 1144BOLB   C3B27443  21.940  16.180  19.530
 1144BOLB   C4B27444  21.930  15.810  19.240
 1144BOLB   NC227445  22.220  16.660  16.870
 1144BOLB   PO227446  21.780  16.640  17.050
 1144BOLB   GL327447  21.820  16.440  17.420
 1144BOLB   GL427448  22.160  16.560  17.480
 1144BOLB   C1C27449  21.630  16.190  17.780
 1144BOLB   C2C27450  21.680  16.120  18.200
 1144BOLB   C3C27451  22.000  15.860  18.310
 1144BOLB   C4C27452  22.230  15.620  18.570
 1144BOLB   C1D27453  22.360  16.670  17.860
 1144BOLB   C2D27454  22.530  16.470  18.170
 1144BOLB   C3D27455  22.660  16.440  18.490
 1144BOLB   C4D27456  22.560  16.500  18.830
 1145BOLB   NC127457  20.600  11.550  40.410
 1145BOLB   PO127458  20.780  11.820  40.590
 1145BOLB   GL127459  20.750  11.460  40.900
 1145BOLB   GL227460  20.980  11.400  41.140
 1145BOLB   C1A27461  20.370  11.240  41.020
 1145BOLB   C2A27462  19.980  11.150  41.280
 1145BOLB   C3A27463  19.900  10.860  41.610
 1145BOLB   C4A27464  19.650  10.880  41.950
 1145BOLB   C1B27465  20.640  11.450  41.450
 1145BOLB   C2B27466  20.290  11.250  41.630
 1145BOLB   C3B27467  20.190  11.030  41.990
 1145BOLB   C4B27468  19.970  11.160  42.230
 1145BOLB   NC227469  19.160   9.470  44.090
 1145BOLB   PO227470  18.950   9.790  43.870
 1145BOLB   GL327471  19.130   9.890  43.460
 1145BOLB   GL427472  18.840  10.210  43.270
 1145BOLB   C1C27473  19.270  10.180  43.130
 1145BOLB   C2C27474  19.450  10.490  43.030
 1145BOLB   C3C27475  19.460  10.800  42.720
 1145BOLB   C4C27476  19.520  10.750  42.370
 1145BOLB   C1D27477  18.890  10.050  42.830
 1145BOLB   C2D27478  19.050  10.130  42.410
 1145BOLB   C3D27479  19.170  10.470  42.290
 1145BOLB   C4D27480  19.180  10.770  41.900
 1146BOLB   NC127481  13.500  21.660  32.560
 1146BOLB   PO127482  13.730  22.000  32.530
 1146BOLB   GL127483  13.320  22.050  32.330
 1146BOLB   GL227484  13.030  21.860  32.530
 1146BOLB   C1A27485  12.850  22.280  32.330
 1146BOLB   C2A27486  12.430  22.570  32.160
 1146BOLB   C3A27487  12.200  22.890  32.200
 1146BOLB   C4A27488  11.990  23.070  32.480
 1146BOLB   C1B27489  12.670  22.020  32.720
 1146BOLB   C2B27490  12.230  22.030  32.540
 1146BOLB   C3B27491  11.780  22.130  32.370
 1146BOLB   C4B27492  11.320  22.210  32.490
 1146BOLB   NC227493  10.130  24.390  33.150
 1146BOLB   PO227494   9.860  24.020  33.170
 1146BOLB   GL327495  10.220  23.860  33.290
 1146BOLB   GL427496  10.450  24.160  33.470
 1146BOLB   C1C27497  10.680  23.790  33.160
 1146BOLB   C2C27498  10.960  23.440  33.160
 1146BOLB   C3C27499  11.390  23.370  33.080
 1146BOLB   C4C27500  11.710  23.160  32.920
 1146BOLB   C1D27501  10.580  23.710  33.670
 1146BOLB   C2D27502  10.950  23.630  33.610
 1146BOLB   C3D27503  11.390  23.350  33.570
 1146BOLB   C4D27504  11.770  23.390  33.430
 1147BOLB   NC127505  18.830  17.000  42.580
 1147BOLB   PO127506  18.430  17.030  42.270
 1147BOLB   GL127507  18.320  16.720  42.480
 1147BOLB   GL227508  18.340  16.890  42.750
 1147BOLB   C1A27509  18.200  16.380  42.640
 1147BOLB   C2A27510  18.000  16.170  42.930
 1147BOLB   C3A27511  17.970  16.000  43.310
 1147BOLB   C4A27512  17.820  15.980  43.800
 1147BOLB   C1B27513  17.990  16.760  43.110
 1147BOLB   C2B27514  17.800  16.700  43.480
 1147BOLB   C3B27515  17.620  17.020  43.680
 1147BOLB   C4B27516  17.680  17.350  43.690
 1147BOLB   NC227517  15.720  16.170  45.010
 1147BOLB   PO227518  15.510  15.830  44.670
 1147BOLB   GL327519  15.980  16.060  44.520
 1147BOLB   GL427520  16.260  15.770  44.580
 1147BOLB   C1C27521  16.300  16.210  44.230
 1147BOLB   C2C27522  16.750  16.100  44.120
 1147BOLB   C3C27523  17.110  16.040  43.860
 1147BOLB   C4C27524  17.530  15.910  44.060
 1147BOLB   C1D27525  16.530  15.670  44.210
 1147BOLB   C2D27526  16.410  15.600  43.750
 1147BOLB   C3D27527  16.510  15.390  43.380
 1147BOLB   C4D27528  16.480  15.420  42.880
 1148BOLB   NC127529  12.960  19.540  29.560
 1148BOLB   PO127530  13.180  19.790  29.300
 1148BOLB   GL127531  12.800  19.880  29.110
 1148BOLB   GL227532  12.660  19.920  29.470
 1148BOLB   C1A27533  12.330  19.940  28.920
 1148BOLB   C2A27534  12.010  20.190  28.830
 1148BOLB   C3A27535  11.600  20.350  28.780
 1148BOLB   C4A27536  11.270  20.490  28.510
 1148BOLB   C1B27537  12.360  20.160  29.420
 1148BOLB   C2B27538  11.910  20.280  29.270
 1148BOLB   C3B27539  11.610  20.580  29.210
 1148BOLB   C4B27540  11.330  21.000  29.280
 1148BOLB   NC227541   9.240  19.610  28.250
 1148BOLB   PO227542   9.240  19.690  27.790
 1148BOLB   GL327543   9.650  19.890  27.630
 1148BOLB   GL427544   9.850  19.670  27.370
 1148BOLB   C1C27545  10.070  19.920  27.770
 1148BOLB   C2C27546  10.390  20.200  27.890
 1148BOLB   C3C27547  10.710  20.420  27.950
 1148BOLB   C4C27548  11.070  20.430  28.190
 1148BOLB   C1D27549  10.230  19.500  27.470
 1148BOLB   C2D27550  10.700  19.580  27.370
 1148BOLB   C3D27551  11.110  19.700  27.510
 1148BOLB   C4D27552  11.380  19.880  27.760
 1149BOLB   NC127553  14.760  19.200  38.000
 1149BOLB   PO127554  14.640  18.830  37.820
 1149BOLB   GL127555  14.300  18.920  38.010
 1149BOLB   GL227556  14.200  19.310  37.990
 1149BOLB   C1A27557  13.820  19.010  38.200
 1149BOLB   C2A27558  13.490  19.330  38.230
 1149BOLB   C3A27559  13.170  19.220  38.390
 1149BOLB   C4A27560  13.140  19.200  38.810
 1149BOLB   C1B27561  13.890  19.580  38.030
 1149BOLB   C2B27562  13.650  19.800  38.160
 1149BOLB   C3B27563  13.220  19.760  38.210
 1149BOLB   C4B27564  12.930  19.820  38.560
 1149BOLB   NC227565  11.000  18.930  39.850
 1149BOLB   PO227566  11.290  19.240  40.200
 1149BOLB   GL327567  11.470  19.030  39.920
 1149BOLB   GL427568  11.490  18.800  39.660
 1149BOLB   C1C27569  11.860  19.130  39.610
 1149BOLB   C2C27570  12.180  19.240  39.510
 1149BOLB   C3C27571  12.570  19.100  39.460
 1149BOLB   C4C27572  12.770  19.280  39.180
 1149BOLB   C1D27573  11.770  18.330  39.640
 1149BOLB   C2D27574  12.170  18.250  39.550
 1149BOLB   C3D27575  12.580  18.480  39.650
 1149BOLB   C4D27576  12.950  18.700  39.760
 1150BOLB   NC127577  19.860   9.650  34.500
 1150BOLB   PO127578  20.240   9.350  34.630
 1150BOLB   GL127579  20.050   8.970  34.620
 1150BOLB   GL227580  20.290   8.800  34.630
 1150BOLB   C1A27581  19.680   8.830  34.910
 1150BOLB   C2A27582  19.420   8.770  35.240
 1150BOLB   C3A27583  19.440   8.390  35.580
 1150BOLB   C4A27584  19.470   8.010  35.790
 1150BOLB   C1B27585  19.940   8.500  34.580
 1150BOLB   C2B27586  19.770   8.160  34.760
 1150BOLB   C3B27587  19.940   7.920  35.060
 1150BOLB   C4B27588  20.160   7.560  35.320
 1150BOLB   NC227589  18.360   6.070  36.080
 1150BOLB   PO227590  18.110   6.420  36.240
 1150BOLB   GL327591  18.580   6.460  36.300
 1150BOLB   GL427592  18.630   6.490  35.950
 1150BOLB   C1C27593  18.970   6.730  36.300
 1150BOLB   C2C27594  19.230   7.010  36.270
 1150BOLB   C3C27595  19.370   7.410  36.110
 1150BOLB   C4C27596  19.500   7.730  36.020
 1150BOLB   C1D27597  18.850   6.830  35.840
 1150BOLB   C2D27598  18.890   7.280  35.920
 1150BOLB   C3D27599  18.990   7.690  35.890
 1150BOLB   C4D27600  19.040   8.030  35.450
 1151BOLB   NC127601  15.360  14.330  31.150
 1151BOLB   PO127602  14.930  14.580  31.280
 1151BOLB   GL127603  14.710  14.380  31.450
 1151BOLB   GL227604  14.560  14.710  31.580
 1151BOLB   C1A27605  14.460  13.970  31.400
 1151BOLB   C2A27606  14.020  13.860  31.300
 1151BOLB   C3A27607  13.640  13.900  31.290
 1151BOLB   C4A27608  13.280  13.660  31.210
 1151BOLB   C1B27609  14.220  14.430  31.450
 1151BOLB   C2B27610  13.800  14.360  31.250
 1151BOLB   C3B27611  13.310  14.300  31.140
 1151BOLB   C4B27612  13.070  14.100  31.390
 1151BOLB   NC227613  12.010  11.400  31.840
 1151BOLB   PO227614  12.030  11.750  31.520
 1151BOLB   GL327615  12.280  12.130  31.720
 1151BOLB   GL427616  12.140  12.270  32.050
 1151BOLB   C1C27617  12.630  12.350  31.450
 1151BOLB   C2C27618  12.560  12.600  31.150
 1151BOLB   C3C27619  12.660  13.050  31.110
 1151BOLB   C4C27620  12.840  13.490  31.190
 1151BOLB   C1D27621  12.540  12.480  32.020
 1151BOLB   C2D27622  12.940  12.610  32.050
 1151BOLB   C3D27623  13.220  12.910  31.940
 1151BOLB   C4D27624  13.170  13.250  31.710
 1152BOLB   NC127625  19.710  19.340  21.860
 1152BOLB   PO127626  19.890  19.400  21.420
 1152BOLB   GL127627  19.860  19.680  21.060
 1152BOLB   GL227628  20.130  19.770  21.010
 1152BOLB   C1A27629  19.640  20.030  20.800
 1152BOLB   C2A27630  19.590  20.470  20.600
 1152BOLB   C3A27631  19.220  20.540  20.310
 1152BOLB   C4A27632  18.920  20.760  20.030
 1152BOLB   C1B27633  20.160  20.070  20.670
 1152BOLB   C2B27634  20.330  20.130  20.300
 1152BOLB   C3B27635  20.590  20.000  19.930
 1152BOLB   C4B27636  20.810  19.660  19.650
 1152BOLB   NC227637  18.610  21.850  18.180
 1152BOLB   PO227638  18.360  22.150  18.350
 1152BOLB   GL327639  18.230  21.720  18.450
 1152BOLB   GL427640  17.880  21.580  18.380
 1152BOLB   C1C27641  18.320  21.740  18.870
 1152BOLB   C2C27642  18.410  21.660  19.300
 1152BOLB   C3C27643  18.510  21.410  19.730
 1152BOLB   C4C27644  18.680  21.070  19.990
 1152BOLB   C1D27645  18.310  21.280  18.650
 1152BOLB   C2D27646  18.560  21.250  19.020
 1152BOLB   C3D27647  18.860  21.440  19.410
 1152BOLB   C4D27648  18.920  21.560  19.860
 1153BOLB   NC127649  29.085  12.730  29.570
 1153BOLB   PO127650  29.385  12.790  29.800
 1153BOLB   GL127651  29.765  12.600  29.700
 1153BOLB   GL227652  29.885  12.820  29.980
 1153BOLB   C1A27653  30.105  12.410  29.560
 1153BOLB   C2A27654  30.535  12.310  29.500
 1153BOLB   C3A27655  30.855  12.510  29.570
 1153BOLB   C4A27656  31.175  12.720  29.520
 1153BOLB   C1B27657  30.305  13.000  30.130
 1153BOLB   C2B27658  30.615  13.220  30.210
 1153BOLB   C3B27659  31.015  13.420  30.390
 1153BOLB   C4B27660  31.115  13.670  30.690
 1153BOLB   NC227661  32.875  12.230  28.410
 1153BOLB   PO227662  33.115  12.370  28.860
 1153BOLB   GL327663  32.855  12.020  28.930
 1153BOLB   GL427664  32.575  11.950  28.720
 1153BOLB   C1C27665  32.455  12.120  29.120
 1153BOLB   C2C27666  32.245  12.300  29.290
 1153BOLB   C3C27667  32.085  12.560  29.560
 1153BOLB   C4C27668  31.625  12.730  29.590
 1153BOLB   C1D27669  32.115  11.880  28.620
 1153BOLB   C2D27670  31.745  12.020  28.660
 1153BOLB   C3D27671  31.315  12.230  28.750
 1153BOLB   C4D27672  30.965  12.300  28.480
 1154BOLB   NC127673  20.830  22.800  26.280
 1154BOLB   PO127674  21.100  22.380  26.200
 1154BOLB   GL127675  21.310  22.730  26.120
 1154BOLB   GL227676  21.550  22.820  26.340
 1154BOLB   C1A27677  21.610  23.080  25.970
 1154BOLB   C2A27678  21.820  23.190  25.590
 1154BOLB   C3A27679  22.230  23.130  25.200
 1154BOLB   C4A27680  22.600  23.320  25.340
 1154BOLB   C1B27681  21.640  23.280  26.410
 1154BOLB   C2B27682  21.540  23.690  26.530
 1154BOLB   C3B27683  21.460  24.150  26.440
 1154BOLB   C4B27684  21.620  24.420  26.700
 1154BOLB   NC227685  23.980  26.010  24.920
 1154BOLB   PO227686  23.830  25.610  24.960
 1154BOLB   GL327687  23.710  25.140  25.050
 1154BOLB   GL427688  23.680  25.000  24.800
 1154BOLB   C1C27689  23.490  24.770  25.260
 1154BOLB   C2C27690  23.260  24.320  25.430
 1154BOLB   C3C27691  23.150  23.900  25.300
 1154BOLB   C4C27692  23.050  23.480  25.310
 1154BOLB   C1D27693  23.480  24.570  24.840
 1154BOLB   C2D27694  23.360  24.130  24.940
 1154BOLB   C3D27695  23.500  23.740  24.980
 1154BOLB   C4D27696  23.690  23.420  25.170
 1155BOLB   NC127697  24.600  19.480  41.870
 1155BOLB   PO127698  24.810  19.860  41.770
 1155BOLB   GL127699  24.870  19.840  42.210
 1155BOLB   GL227700  24.950  19.600  42.440
 1155BOLB   C1A27701  25.170  20.060  42.420
 1155BOLB   C2A27702  25.260  20.510  42.510
 1155BOLB   C3A27703  25.380  20.980  42.480
 1155BOLB   C4A27704  25.540  21.350  42.280
 1155BOLB   C1B27705  25.150  19.720  42.870
 1155BOLB   C2B27706  25.110  19.730  43.400
 1155BOLB   C3B27707  24.900  19.890  43.700
 1155BOLB   C4B27708  24.690  20.130  43.980
 1155BOLB   NC227709  25.730  24.180  42.680
 1155BOLB   PO227710  25.600  23.830  42.500
 1155BOLB   GL327711  25.580  23.420  42.480
 1155BOLB   GL427712  25.450  23.270  42.280
 1155BOLB   C1C27713  25.560  22.950  42.610
 1155BOLB   C2C27714  25.490  22.520  42.370
 1155BOLB   C3C27715  25.430  22.170  42.120
 1155BOLB   C4C27716  25.560  21.760  42.150
 1155BOLB   C1D27717  25.310  22.970  42.080
 1155BOLB   C2D27718  25.190  22.580  41.850
 1155BOLB   C3D27719  25.100  22.020  41.710
 1155BOLB   C4D27720  24.750  21.780  41.610
 1156BOLB   NC127721  13.860  19.180  26.930
 1156BOLB   PO127722  13.910  19.000  26.470
 1156BOLB   GL127723  13.630  19.210  26.260
 1156BOLB   GL227724  13.750  19.340  25.940
 1156BOLB   C1A27725  13.260  19.240  25.900
 1156BOLB   C2A27726  13.030  19.350  25.630
 1156BOLB   C3A27727  12.770  19.500  25.290
 1156BOLB   C4A27728  12.310  19.660  25.250
 1156BOLB   C1B27729  13.590  19.430  25.540
 1156BOLB   C2B27730  13.280  19.520  25.220
 1156BOLB   C3B27731  13.040  19.900  25.140
 1156BOLB   C4B27732  12.730  19.990  25.170
 1156BOLB   NC227733  10.440  19.660  24.440
 1156BOLB   PO227734  10.260  19.180  24.400
 1156BOLB   GL327735  10.770  19.200  24.280
 1156BOLB   GL427736  10.910  19.580  24.200
 1156BOLB   C1C27737  11.090  19.190  24.490
 1156BOLB   C2C27738  11.360  19.540  24.670
 1156BOLB   C3C27739  11.630  19.820  24.830
 1156BOLB   C4C27740  12.050  19.850  25.050
 1156BOLB   C1D27741  11.310  19.930  24.270
 1156BOLB   C2D27742  11.690  20.190  24.440
 1156BOLB   C3D27743  12.150  20.280  24.430
 1156BOLB   C4D27744  12.550  20.530  24.320
 1157BOLB   NC127745  22.940  16.840  43.540
 1157BOLB   PO127746  23.020  17.240  43.380
 1157BOLB   GL127747  23.350  17.160  43.670
 1157BOLB   GL227748  23.710  17.050  43.640
 1157BOLB   C1A27749  23.290  17.120  44.120
 1157BOLB   C2A27750  23.570  17.230  44.520
 1157BOLB   C3A27751  23.560  17.260  44.960
 1157BOLB   C4A27752  23.750  17.090  45.280
 1157BOLB   C1B27753  23.740  17.030  44.030
 1157BOLB   C2B27754  24.060  17.060  44.350
 1157BOLB   C3B27755  24.350  16.840  44.530
 1157BOLB   C4B27756  24.530  16.580  44.860
 1157BOLB   NC227757  24.130  17.610  47.330
 1157BOLB   PO227758  24.350  18.020  47.200
 1157BOLB   GL327759  24.070  17.850  46.880
 1157BOLB   GL427760  24.080  18.030  46.610
 1157BOLB   C1C27761  23.940  17.540  46.740
 1157BOLB   C2C27762  23.980  17.290  46.440
 1157BOLB   C3C27763  23.950  17.290  45.990
 1157BOLB   C4C27764  23.740  17.240  45.670
 1157BOLB   C1D27765  23.960  17.740  46.280
 1157BOLB   C2D27766  23.780  17.760  45.990
 1157BOLB   C3D27767  23.600  17.720  45.580
 1157BOLB   C4D27768  23.400  17.680  45.150
 1158BOLB   NC127769  27.355   9.600  27.640
 1158BOLB   PO127770  27.705   9.710  27.470
 1158BOLB   GL127771  28.155   9.530  27.530
 1158BOLB   GL227772  28.515   9.670  27.670
 1158BOLB   C1A27773  28.385   9.200  27.440
 1158BOLB   C2A27774  28.655   8.910  27.410
 1158BOLB   C3A27775  28.955   8.720  27.640
 1158BOLB   C4A27776  29.395   8.580  27.590
 1158BOLB   C1B27777  28.815   9.390  27.400
 1158BOLB   C2B27778  29.215   9.380  27.280
 1158BOLB   C3B27779  29.575   9.190  27.210
 1158BOLB   C4B27780  29.825   9.270  26.820
 1158BOLB   NC227781  31.585   7.560  26.920
 1158BOLB   PO227782  31.195   7.340  26.870
 1158BOLB   GL327783  30.955   7.340  27.240
 1158BOLB   GL427784  30.765   7.070  27.400
 1158BOLB   C1C27785  30.955   7.650  27.610
 1158BOLB   C2C27786  30.575   7.910  27.760
 1158BOLB   C3C27787  30.135   8.120  27.760
 1158BOLB   C4C27788  29.845   8.420  27.630
 1158BOLB   C1D27789  30.525   7.450  27.500
 1158BOLB   C2D27790  30.275   7.750  27.320
 1158BOLB   C3D27791  30.225   8.190  27.220
 1158BOLB   C4D27792  29.925   8.580  27.130
 1159BOLB   NC127793  15.970  13.270  30.080
 1159BOLB   PO127794  16.130  13.060  29.680
 1159BOLB   GL127795  15.790  12.620  29.810
 1159BOLB   GL227796  15.740  12.610  30.070
 1159BOLB   C1A27797  15.300  12.490  29.800
 1159BOLB   C2A27798  14.870  12.600  29.840
 1159BOLB   C3A27799  14.430  12.620  30.030
 1159BOLB   C4A27800  14.030  12.730  30.090
 1159BOLB   C1B27801  15.640  12.220  30.330
 1159BOLB   C2B27802  15.340  11.890  30.240
 1159BOLB   C3B27803  15.080  11.560  29.900
 1159BOLB   C4B27804  14.670  11.490  29.600
 1159BOLB   NC227805  12.410  11.420  29.190
 1159BOLB   PO227806  12.270  11.120  29.550
 1159BOLB   GL327807  12.620  11.410  29.620
 1159BOLB   GL427808  12.840  11.360  29.530
 1159BOLB   C1C27809  12.780  11.710  29.890
 1159BOLB   C2C27810  13.040  11.900  30.010
 1159BOLB   C3C27811  13.310  12.260  29.930
 1159BOLB   C4C27812  13.660  12.550  29.910
 1159BOLB   C1D27813  13.150  11.720  29.520
 1159BOLB   C2D27814  13.470  12.080  29.490
 1159BOLB   C3D27815  13.790  12.060  29.760
 1159BOLB   C4D27816  14.200  12.210  29.970
 1160BOLB   NC127817  25.340  10.040  39.240
 1160BOLB   PO127818  25.070   9.890  39.550
 1160BOLB   GL127819  25.030   9.720  39.900
 1160BOLB   GL227820  24.670   9.860  40.110
 1160BOLB   C1A27821  24.950   9.400  40.210
 1160BOLB   C2A27822  24.760   9.100  40.450
 1160BOLB   C3A27823  24.630   8.610  40.530
 1160BOLB   C4A27824  24.840   8.210  40.440
 1160BOLB   C1B27825  24.710   9.700  40.490
 1160BOLB   C2B27826  24.870   9.490  40.730
 1160BOLB   C3B27827  25.190   9.160  40.810
 1160BOLB   C4B27828  25.510   8.860  40.830
 1160BOLB   NC227829  24.960   5.860  40.890
 1160BOLB   PO227830  24.530   5.900  40.930
 1160BOLB   GL327831  24.310   6.330  40.970
 1160BOLB   GL427832  23.970   6.520  41.020
 1160BOLB   C1C27833  24.470   6.780  41.030
 1160BOLB   C2C27834  24.600   7.010  40.790
 1160BOLB   C3C27835  24.840   7.350  40.690
 1160BOLB   C4C27836  24.880   7.780  40.550
 1160BOLB   C1D27837  24.040   6.610  40.560
 1160BOLB   C2D27838  23.960   6.680  40.240
 1160BOLB   C3D27839  24.330   6.700  39.890
 1160BOLB   C4D27840  24.610   6.710  39.610
 1161BOLB   NC127841  15.590  23.220  25.180
 1161BOLB   PO127842  15.600  22.970  24.890
 1161BOLB   GL127843  15.370  23.400  24.780
 1161BOLB   GL227844  15.550  23.460  24.500
 1161BOLB   C1A27845  15.130  23.640  24.760
 1161BOLB   C2A27846  14.700  23.670  24.540
 1161BOLB   C3A27847  14.440  23.810  24.160
 1161BOLB   C4A27848  14.150  24.090  24.130
 1161BOLB   C1B27849  15.310  23.490  24.080
 1161BOLB   C2B27850  15.280  23.480  23.610
 1161BOLB   C3B27851  15.170  23.490  23.120
 1161BOLB   C4B27852  15.190  23.820  22.840
 1161BOLB   NC227853  11.620  24.360  24.160
 1161BOLB   PO227854  11.830  24.560  24.360
 1161BOLB   GL327855  12.190  24.530  24.610
 1161BOLB   GL427856  12.410  24.630  24.880
 1161BOLB   C1C27857  12.710  24.540  24.390
 1161BOLB   C2C27858  13.040  24.640  24.180
 1161BOLB   C3C27859  13.460  24.500  24.110
 1161BOLB   C4C27860  13.860  24.310  23.930
 1161BOLB   C1D27861  12.390  24.700  25.370
 1161BOLB   C2D27862  12.470  25.010  25.810
 1161BOLB   C3D27863  12.550  24.640  26.110
 1161BOLB   C4D27864  12.420  24.220  26.150
 1162BOLB   NC127865  18.140  10.940  31.650
 1162BOLB   PO127866  18.420  10.740  31.920
 1162BOLB   GL127867  18.210  10.460  31.540
 1162BOLB   GL227868  18.160  10.560  31.200
 1162BOLB   C1A27869  17.890  10.300  31.540
 1162BOLB   C2A27870  17.430  10.080  31.740
 1162BOLB   C3A27871  17.310   9.720  31.970
 1162BOLB   C4A27872  17.050   9.500  32.100
 1162BOLB   C1B27873  17.970  10.510  30.870
 1162BOLB   C2B27874  17.590  10.380  30.630
 1162BOLB   C3B27875  17.230  10.230  30.290
 1162BOLB   C4B27876  17.150   9.870  30.150
 1162BOLB   NC227877  15.170   8.650  31.470
 1162BOLB   PO227878  15.320   8.230  31.360
 1162BOLB   GL327879  15.650   8.450  31.680
 1162BOLB   GL427880  15.600   8.460  32.090
 1162BOLB   C1C27881  16.010   8.720  31.980
 1162BOLB   C2C27882  16.310   8.790  32.330
 1162BOLB   C3C27883  16.740   8.920  32.380
 1162BOLB   C4C27884  16.760   9.180  32.210
 1162BOLB   C1D27885  15.950   8.330  32.290
 1162BOLB   C2D27886  16.420   8.220  32.420
 1162BOLB   C3D27887  16.830   8.480  32.440
 1162BOLB   C4D27888  17.210   8.510  32.380
 1163BOLB   NC127889  26.755  16.520  25.950
 1163BOLB   PO127890  26.765  16.530  25.500
 1163BOLB   GL127891  27.115  16.600  25.200
 1163BOLB   GL227892  27.095  16.800  24.880
 1163BOLB   C1A27893  27.585  16.670  25.000
 1163BOLB   C2A27894  28.055  16.890  24.850
 1163BOLB   C3A27895  28.295  16.960  24.420
 1163BOLB   C4A27896  28.395  17.400  24.120
 1163BOLB   C1B27897  27.305  17.020  24.600
 1163BOLB   C2B27898  27.595  17.210  24.470
 1163BOLB   C3B27899  27.975  17.370  24.520
 1163BOLB   C4B27900  28.305  17.710  24.650
 1163BOLB   NC227901  29.795  19.170  23.060
 1163BOLB   PO227902  29.685  18.670  22.950
 1163BOLB   GL327903  29.295  18.430  23.010
 1163BOLB   GL427904  29.025  18.620  23.080
 1163BOLB   C1C27905  29.005  18.050  22.920
 1163BOLB   C2C27906  28.585  17.840  23.000
 1163BOLB   C3C27907  28.485  17.530  23.220
 1163BOLB   C4C27908  28.305  17.540  23.680
 1163BOLB   C1D27909  28.745  18.260  23.340
 1163BOLB   C2D27910  28.495  17.980  23.490
 1163BOLB   C3D27911  28.135  17.910  23.470
 1163BOLB   C4D27912  27.655  17.920  23.540
 1164BOLB   NC127913  22.310  14.540  21.860
 1164BOLB   PO127914  22.710  14.500  21.430
 1164BOLB   GL127915  22.750  14.630  20.980
 1164BOLB   GL227916  22.820  14.260  20.850
 1164BOLB   C1A27917  22.650  14.720  20.470
 1164BOLB   C2A27918  22.760  14.820  20.040
 1164BOLB   C3A27919  22.680  15.060  19.730
 1164BOLB   C4A27920  22.790  15.460  19.590
 1164BOLB   C1B27921  22.940  14.130  20.390
 1164BOLB   C2B27922  23.260  13.700  20.400
 1164BOLB   C3B27923  23.490  13.310  20.170
 1164BOLB   C4B27924  23.310  13.370  19.700
 1164BOLB   NC227925  23.640  14.910  17.380
 1164BOLB   PO227926  23.330  15.310  17.460
 1164BOLB   GL327927  23.240  15.350  17.970
 1164BOLB   GL427928  23.090  15.120  18.160
 1164BOLB   C1C27929  23.350  15.670  18.160
 1164BOLB   C2C27930  23.240  15.570  18.590
 1164BOLB   C3C27931  23.330  15.670  19.020
 1164BOLB   C4C27932  23.100  15.670  19.330
 1164BOLB   C1D27933  22.890  15.250  18.550
 1164BOLB   C2D27934  22.710  15.580  18.670
 1164BOLB   C3D27935  22.840  15.820  18.940
 1164BOLB   C4D27936  22.760  16.060  19.200
 1165BOLB   NC127937  14.650  21.450  26.460
 1165BOLB   PO127938  14.370  21.860  26.440
 1165BOLB   GL127939  14.010  22.030  26.240
 1165BOLB   GL227940  13.800  22.030  26.520
 1165BOLB   C1A27941  13.690  22.010  26.060
 1165BOLB   C2A27942  13.240  22.070  26.060
 1165BOLB   C3A27943  12.960  22.310  25.800
 1165BOLB   C4A27944  12.850  22.720  25.880
 1165BOLB   C1B27945  13.490  22.290  26.450
 1165BOLB   C2B27946  13.390  22.770  26.380
 1165BOLB   C3B27947  13.500  23.080  26.190
 1165BOLB   C4B27948  13.360  23.480  26.190
 1165BOLB   NC227949  12.140  25.090  24.740
 1165BOLB   PO227950  11.760  24.830  24.800
 1165BOLB   GL327951  11.790  24.410  24.960
 1165BOLB   GL427952  11.660  24.210  25.060
 1165BOLB   C1C27953  12.210  24.260  25.220
 1165BOLB   C2C27954  12.320  23.850  25.390
 1165BOLB   C3C27955  12.480  23.460  25.690
 1165BOLB   C4C27956  12.650  23.110  25.770
 1165BOLB   C1D27957  11.820  23.890  25.420
 1165BOLB   C2D27958  12.150  23.880  25.830
 1165BOLB   C3D27959  12.410  23.680  26.150
 1165BOLB   C4D27960  12.690  23.680  26.490
 1166BOLB   NC127961  26.825  17.070  27.550
 1166BOLB   PO127962  27.025  17.370  27.780
 1166BOLB   GL127963  27.295  17.640  27.760
 1166BOLB   GL227964  27.225  17.800  27.630
 1166BOLB   C1A27965  27.405  17.890  28.130
 1166BOLB   C2A27966  27.375  18.340  28.270
 1166BOLB   C3A27967  27.525  18.710  28.260
 1166BOLB   C4A27968  27.755  19.070  28.190
 1166BOLB   C1B27969  27.505  18.060  27.600
 1166BOLB   C2B27970  27.705  18.320  27.300
 1166BOLB   C3B27971  28.125  18.310  27.400
 1166BOLB   C4B27972  28.355  18.370  27.830
 1166BOLB   NC227973  28.835  20.260  29.800
 1166BOLB   PO227974  28.835  20.560  29.440
 1166BOLB   GL327975  28.555  20.380  29.250
 1166BOLB   GL427976  28.175  20.580  29.250
 1166BOLB   C1C27977  28.435  20.030  29.140
 1166BOLB   C2C27978  28.435  19.600  28.910
 1166BOLB   C3C27979  28.305  19.590  28.530
 1166BOLB   C4C27980  28.155  19.170  28.270
 1166BOLB   C1D27981  27.995  20.200  29.240
 1166BOLB   C2D27982  27.985  19.820  29.290
 1166BOLB   C3D27983  27.695  19.400  29.440
 1166BOLB   C4D27984  27.565  19.020  29.400
 1167BOLB   NC127985  28.635  12.940  38.540
 1167BOLB   PO127986  28.805  13.020  38.030
 1167BOLB   GL127987  29.265  12.890  38.120
 1167BOLB   GL227988  29.145  12.890  38.340
 1167BOLB   C1A27989  29.785  12.730  38.110
 1167BOLB   C2A27990  30.205  12.720  38.290
 1167BOLB   C3A27991  30.475  12.720  38.600
 1167BOLB   C4A27992  30.635  12.800  38.980
 1167BOLB   C1B27993  29.595  12.810  38.620
 1167BOLB   C2B27994  30.035  12.820  38.850
 1167BOLB   C3B27995  30.245  13.100  39.150
 1167BOLB   C4B27996  30.425  13.120  39.650
 1167BOLB   NC227997  31.515  12.540  41.420
 1167BOLB   PO227998  31.685  12.950  41.170
 1167BOLB   GL327999  31.415  13.090  40.860
 1167BOLB   GL428000  31.395  12.900  40.580
 1167BOLB   C1C28001  31.105  13.280  40.750
 1167BOLB   C2C28002  30.985  13.150  40.260
 1167BOLB   C3C28003  30.845  13.160  39.890
 1167BOLB   C4C28004  30.815  12.970  39.400
 1167BOLB   C1D28005  31.215  12.670  40.330
 1167BOLB   C2D28006  30.965  12.540  39.960
 1167BOLB   C3D28007  30.625  12.200  39.800
 1167BOLB   C4D28008  30.205  12.250  39.490
 1168BOLB   NC128009  15.990  22.850  38.100
 1168BOLB   PO128010  15.760  22.550  37.900
 1168BOLB   GL128011  15.590  23.000  37.840
 1168BOLB   GL228012  15.360  22.890  37.790
 1168BOLB   C1A28013  15.520  23.300  38.110
 1168BOLB   C2A28014  15.820  23.520  38.220
 1168BOLB   C3A28015  15.920  23.990  38.470
 1168BOLB   C4A28016  16.000  24.410  38.670
 1168BOLB   C1B28017  15.010  23.190  38.030
 1168BOLB   C2B28018  14.840  23.220  38.460
 1168BOLB   C3B28019  14.690  23.060  38.810
 1168BOLB   C4B28020  14.310  23.100  39.100
 1168BOLB   NC228021  15.070  25.700  41.190
 1168BOLB   PO228022  15.150  25.300  41.100
 1168BOLB   GL328023  15.420  25.100  40.780
 1168BOLB   GL428024  15.420  25.340  40.600
 1168BOLB   C1C28025  15.790  25.020  40.440
 1168BOLB   C2C28026  15.890  24.830  40.000
 1168BOLB   C3C28027  15.900  24.660  39.530
 1168BOLB   C4C28028  16.080  24.570  39.080
 1168BOLB   C1D28029  15.520  25.430  40.270
 1168BOLB   C2D28030  15.840  25.290  40.000
 1168BOLB   C3D28031  16.290  25.200  39.780
 1168BOLB   C4D28032  16.720  25.090  39.690
 1169BOLB   NC128033  13.980  22.360  27.980
 1169BOLB   PO128034  14.340  22.470  27.680
 1169BOLB   GL128035  14.070  22.800  27.780
 1169BOLB   GL228036  13.800  22.830  27.690
 1169BOLB   C1A28037  14.020  23.240  27.700
 1169BOLB   C2A28038  13.870  23.670  27.500
 1169BOLB   C3A28039  13.970  24.000  27.560
 1169BOLB   C4A28040  13.770  24.340  27.890
 1169BOLB   C1B28041  13.510  22.870  27.320
 1169BOLB   C2B28042  13.140  23.180  27.300
 1169BOLB   C3B28043  12.740  23.340  27.460
 1169BOLB   C4B28044  12.520  23.820  27.660
 1169BOLB   NC228045  12.440   0.080  27.930
 1169BOLB   PO228046  12.380   0.030  27.420
 1169BOLB   GL328047  12.670  26.070  27.370
 1169BOLB   GL428048  12.950  26.300  27.170
 1169BOLB   C1C28049  12.880  25.690  27.500
 1169BOLB   C2C28050  13.100  25.370  27.810
 1169BOLB   C3C28051  13.290  24.980  27.880
 1169BOLB   C4C28052  13.500  24.580  27.850
 1169BOLB   C1D28053  13.170  26.100  27.550
 1169BOLB   C2D28054  13.400  25.710  27.650
 1169BOLB   C3D28055  13.710  25.410  27.750
 1169BOLB   C4D28056  14.140  25.210  27.770
 1170BOLB   NC128057  18.440  22.350  39.920
 1170BOLB   PO128058  18.220  22.040  40.130
 1170BOLB   GL128059  18.090  22.350  40.350
 1170BOLB   GL228060  17.770  22.350  40.370
 1170BOLB   C1A28061  18.030  22.740  40.600
 1170BOLB   C2A28062  18.030  22.770  41.070
 1170BOLB   C3A28063  17.900  23.040  41.280
 1170BOLB   C4A28064  17.920  23.210  41.580
 1170BOLB   C1B28065  17.610  22.470  40.790
 1170BOLB   C2B28066  17.650  22.340  41.210
 1170BOLB   C3B28067  17.680  22.410  41.540
 1170BOLB   C4B28068  18.010  22.760  41.680
 1170BOLB   NC228069  16.770  24.770  43.330
 1170BOLB   PO228070  17.120  25.080  43.390
 1170BOLB   GL328071  17.300  24.700  43.150
 1170BOLB   GL428072  17.070  24.880  42.880
 1170BOLB   C1C28073  17.320  24.230  42.930
 1170BOLB   C2C28074  17.340  24.070  42.540
 1170BOLB   C3C28075  17.540  23.920  42.020
 1170BOLB   C4C28076  17.740  23.600  41.810
 1170BOLB   C1D28077  17.230  24.560  42.600
 1170BOLB   C2D28078  17.480  24.450  42.250
 1170BOLB   C3D28079  17.620  24.380  41.800
 1170BOLB   C4D28080  17.650  24.150  41.410
 1171BOLB   NC128081  27.705  17.370  36.550
 1171BOLB   PO128082  27.975  17.060  36.680
 1171BOLB   GL128083  28.315  17.290  36.860
 1171BOLB   GL228084  28.535  17.180  36.630
 1171BOLB   C1A28085  28.785  17.490  36.940
 1171BOLB   C2A28086  29.145  17.690  36.890
 1171BOLB   C3A28087  29.375  18.030  37.030
 1171BOLB   C4A28088  29.735  18.270  37.150
 1171BOLB   C1B28089  29.055  17.240  36.560
 1171BOLB   C2B28090  29.415  17.470  36.370
 1171BOLB   C3B28091  29.695  17.700  36.650
 1171BOLB   C4B28092  29.845  17.790  36.950
 1171BOLB   NC228093  31.695  17.940  38.430
 1171BOLB   PO228094  31.625  18.410  38.260
 1171BOLB   GL328095  31.225  18.300  38.070
 1171BOLB   GL428096  31.135  18.110  37.750
 1171BOLB   C1C28097  31.055  18.630  37.690
 1171BOLB   C2C28098  30.785  18.910  37.450
 1171BOLB   C3C28099  30.325  18.820  37.320
 1171BOLB   C4C28100  29.995  18.530  37.160
 1171BOLB   C1D28101  30.735  17.980  37.420
 1171BOLB   C2D28102  30.215  18.020  37.280
 1171BOLB   C3D28103  29.925  17.910  37.470
 1171BOLB   C4D28104  30.045  17.560  37.800
 1172BOLB   NC128105  21.690  23.110  36.810
 1172BOLB   PO128106  21.790  23.260  36.460
 1172BOLB   GL128107  22.090  23.660  36.530
 1172BOLB   GL228108  21.850  23.860  36.660
 1172BOLB   C1A28109  22.300  23.820  36.910
 1172BOLB   C2A28110  22.450  24.230  36.940
 1172BOLB   C3A28111  22.510  24.660  37.170
 1172BOLB   C4A28112  22.570  24.900  37.550
 1172BOLB   C1B28113  22.030  24.270  36.600
 1172BOLB   C2B28114  22.330  24.600  36.560
 1172BOLB   C3B28115  22.600  24.880  36.610
 1172BOLB   C4B28116  22.900  25.200  36.550
 1172BOLB   NC228117  23.840   1.020  37.960
 1172BOLB   PO228118  23.540   0.620  37.990
 1172BOLB   GL328119  23.470   0.180  37.960
 1172BOLB   GL428120  23.600   0.030  37.670
 1172BOLB   C1C28121  23.180  26.320  38.120
 1172BOLB   C2C28122  22.930  25.950  38.010
 1172BOLB   C3C28123  22.730  25.560  38.000
 1172BOLB   C4C28124  22.520  25.220  37.840
 1172BOLB   C1D28125  23.650  26.140  37.930
 1172BOLB   C2D28126  23.520  25.780  37.870
 1172BOLB   C3D28127  23.230  25.570  37.630
 1172BOLB   C4D28128  22.830  25.390  37.500
 1173BOLB   NC128129  28.515  11.130  38.040
 1173BOLB   PO128130  28.245  10.800  38.210
 1173BOLB   GL128131  28.545  10.500  38.300
 1173BOLB   GL228132  28.935  10.590  38.200
 1173BOLB   C1A28133  28.735  10.270  38.580
 1173BOLB   C2A28134  28.765   9.880  38.650
 1173BOLB   C3A28135  28.715   9.500  38.470
 1173BOLB   C4A28136  28.895   9.090  38.510
 1173BOLB   C1B28137  29.195  10.500  38.570
 1173BOLB   C2B28138  29.115  10.340  38.960
 1173BOLB   C3B28139  29.105  10.300  39.490
 1173BOLB   C4B28140  29.295  10.470  39.840
 1173BOLB   NC228141  30.455   7.650  39.490
 1173BOLB   PO228142  30.405   7.850  39.880
 1173BOLB   GL328143  30.175   8.100  39.630
 1173BOLB   GL428144  30.265   8.390  39.570
 1173BOLB   C1C28145  29.925   8.100  39.230
 1173BOLB   C2C28146  29.615   8.240  38.940
 1173BOLB   C3C28147  29.335   8.440  38.640
 1173BOLB   C4C28148  29.035   8.660  38.370
 1173BOLB   C1D28149  29.845   8.520  39.550
 1173BOLB   C2D28150  29.445   8.550  39.500
 1173BOLB   C3D28151  29.225   8.720  39.110
 1173BOLB   C4D28152  28.935   9.040  39.050
 1174BOLB   NC128153  22.660   8.440  35.780
 1174BOLB   PO128154  22.240   8.230  35.730
 1174BOLB   GL128155  22.310   8.000  36.120
 1174BOLB   GL228156  22.430   7.750  35.950
 1174BOLB   C1A28157  22.360   7.580  36.420
 1174BOLB   C2A28158  22.240   7.310  36.700
 1174BOLB   C3A28159  22.050   6.950  36.740
 1174BOLB   C4A28160  21.870   6.550  36.910
 1174BOLB   C1B28161  22.370   7.310  36.030
 1174BOLB   C2B28162  22.130   7.040  36.290
 1174BOLB   C3B28163  21.970   6.650  36.360
 1174BOLB   C4B28164  21.920   6.240  36.390
 1174BOLB   NC228165  20.860   5.350  37.930
 1174BOLB   PO228166  21.070   5.530  38.260
 1174BOLB   GL328167  21.150   5.850  37.850
 1174BOLB   GL428168  21.070   6.180  37.840
 1174BOLB   C1C28169  21.340   5.710  37.590
 1174BOLB   C2C28170  21.730   5.650  37.390
 1174BOLB   C3C28171  21.910   5.730  36.960
 1174BOLB   C4C28172  21.890   6.070  36.850
 1174BOLB   C1D28173  21.040   6.580  37.620
 1174BOLB   C2D28174  21.190   7.030  37.490
 1174BOLB   C3D28175  21.190   7.420  37.690
 1174BOLB   C4D28176  21.060   7.620  38.130
 1175BOLB   NC128177  24.640  15.710  22.200
 1175BOLB   PO128178  25.080  15.650  22.130
 1175BOLB   GL128179  25.280  15.430  21.780
 1175BOLB   GL228180  25.470  15.320  21.910
 1175BOLB   C1A28181  25.490  15.390  21.440
 1175BOLB   C2A28182  25.620  15.290  21.110
 1175BOLB   C3A28183  26.020  15.110  21.110
 1175BOLB   C4A28184  26.410  15.020  20.900
 1175BOLB   C1B28185  25.830  15.330  21.880
 1175BOLB   C2B28186  26.030  15.430  21.580
 1175BOLB   C3B28187  26.120  15.600  21.150
 1175BOLB   C4B28188  26.370  15.580  20.650
 1175BOLB   NC228189  28.705  15.910  19.450
 1175BOLB   PO228190  28.365  15.710  19.730
 1175BOLB   GL328191  28.265  15.830  20.160
 1175BOLB   GL428192  28.415  15.690  20.380
 1175BOLB   C1C28193  27.845  15.670  20.240
 1175BOLB   C2C28194  27.625  15.440  20.550
 1175BOLB   C3C28195  27.305  15.190  20.830
 1175BOLB   C4C28196  26.835  15.180  20.750
 1175BOLB   C1D28197  28.095  15.620  20.720
 1175BOLB   C2D28198  27.835  15.480  20.980
 1175BOLB   C3D28199  27.605  15.340  21.310
 1175BOLB   C4D28200  27.135  15.330  21.340
 1176BOLB   NC128201  19.060  18.600  43.060
 1176BOLB   PO128202  19.350  18.370  43.290
 1176BOLB   GL128203  19.470  18.280  43.720
 1176BOLB   GL228204  19.210  18.090  43.880
 1176BOLB   C1A28205  19.570  18.450  44.010
 1176BOLB   C2A28206  19.660  18.430  44.470
 1176BOLB   C3A28207  19.690  18.400  44.880
 1176BOLB   C4A28208  19.480  18.350  45.350
 1176BOLB   C1B28209  19.290  17.690  44.140
 1176BOLB   C2B28210  19.540  17.460  44.220
 1176BOLB   C3B28211  19.930  17.550  44.510
 1176BOLB   C4B28212  20.120  17.720  44.180
 1176BOLB   NC228213  17.790  17.930  47.100
 1176BOLB   PO228214  17.840  18.140  46.820
 1176BOLB   GL328215  18.120  18.070  46.400
 1176BOLB   GL428216  18.050  17.730  46.270
 1176BOLB   C1C28217  18.490  18.080  46.210
 1176BOLB   C2C28218  18.950  18.140  46.240
 1176BOLB   C3C28219  19.410  18.220  46.130
 1176BOLB   C4C28220  19.560  18.210  45.700
 1176BOLB   C1D28221  18.310  17.510  45.940
 1176BOLB   C2D28222  18.270  17.420  45.460
 1176BOLB   C3D28223  18.270  17.640  45.200
 1176BOLB   C4D28224  18.030  17.570  44.810
 1177BOLB   NC128225  25.010  19.360  33.590
 1177BOLB   PO128226  25.080  19.120  33.290
 1177BOLB   GL128227  25.340  19.440  33.260
 1177BOLB   GL228228  25.550  19.290  33.410
 1177BOLB   C1A28229  25.610  19.830  33.120
 1177BOLB   C2A28230  25.990  20.020  32.880
 1177BOLB   C3A28231  26.330  20.070  32.570
 1177BOLB   C4A28232  26.170  20.290  32.280
 1177BOLB   C1B28233  25.610  19.280  32.930
 1177BOLB   C2B28234  25.780  19.600  32.680
 1177BOLB   C3B28235  25.970  19.850  32.340
 1177BOLB   C4B28236  25.860  20.040  31.960
 1177BOLB   NC228237  27.905  20.850  30.790
 1177BOLB   PO228238  27.625  20.990  30.890
 1177BOLB   GL328239  27.305  20.680  30.960
 1177BOLB   GL428240  27.555  20.490  30.840
 1177BOLB   C1C28241  26.965  20.460  31.190
 1177BOLB   C2C28242  26.545  20.300  31.270
 1177BOLB   C3C28243  26.280  20.410  31.540
 1177BOLB   C4C28244  26.000  20.550  31.920
 1177BOLB   C1D28245  27.375  20.140  31.010
 1177BOLB   C2D28246  26.995  19.980  31.100
 1177BOLB   C3D28247  26.635  19.830  31.040
 1177BOLB   C4D28248  26.240  19.580  31.040
 1178BOLB   NC128249  15.650  21.150  38.790
 1178BOLB   PO128250  15.590  20.660  38.780
 1178BOLB   GL128251  15.200  20.920  38.790
 1178BOLB   GL228252  15.040  21.120  38.610
 1178BOLB   C1A28253  14.870  20.850  39.140
 1178BOLB   C2A28254  14.370  21.010  39.160
 1178BOLB   C3A28255  13.870  21.120  39.190
 1178BOLB   C4A28256  13.620  20.960  38.840
 1178BOLB   C1B28257  14.650  21.250  38.770
 1178BOLB   C2B28258  14.230  21.130  38.690
 1178BOLB   C3B28259  13.950  21.280  38.420
 1178BOLB   C4B28260  13.620  21.450  38.060
 1178BOLB   NC228261  11.290  20.740  40.270
 1178BOLB   PO228262  11.560  21.050  40.060
 1178BOLB   GL328263  11.760  20.930  39.750
 1178BOLB   GL428264  12.070  21.060  40.010
 1178BOLB   C1C28265  12.080  20.780  39.420
 1178BOLB   C2C28266  12.370  20.870  39.120
 1178BOLB   C3C28267  12.780  20.810  38.980
 1178BOLB   C4C28268  13.170  20.840  38.840
 1178BOLB   C1D28269  12.230  20.700  39.890
 1178BOLB   C2D28270  12.660  20.650  39.930
 1178BOLB   C3D28271  13.080  20.510  39.900
 1178BOLB   C4D28272  13.300  20.200  39.780
 1179BOLB   NC128273  12.960  21.540  30.900
 1179BOLB   PO128274  13.220  21.800  30.690
 1179BOLB   GL128275  12.730  21.780  30.530
 1179BOLB   GL228276  12.620  21.890  30.890
 1179BOLB   C1A28277  12.240  21.600  30.470
 1179BOLB   C2A28278  11.840  21.530  30.330
 1179BOLB   C3A28279  11.460  21.250  30.360
 1179BOLB   C4A28280  11.090  21.430  30.250
 1179BOLB   C1B28281  12.240  22.190  31.030
 1179BOLB   C2B28282  11.980  22.320  31.330
 1179BOLB   C3B28283  11.590  22.520  31.420
 1179BOLB   C4B28284  11.420  22.890  31.520
 1179BOLB   NC228285   8.940  20.010  29.970
 1179BOLB   PO228286   8.850  20.540  29.890
 1179BOLB   GL328287   9.270  20.570  29.930
 1179BOLB   GL428288   9.390  20.290  30.050
 1179BOLB   C1C28289   9.630  20.630  29.800
 1179BOLB   C2C28290   9.910  21.010  29.940
 1179BOLB   C3C28291  10.320  21.270  29.890
 1179BOLB   C4C28292  10.760  21.320  29.950
 1179BOLB   C1D28293   9.610  20.430  30.400
 1179BOLB   C2D28294   9.960  20.560  30.720
 1179BOLB   C3D28295  10.250  20.860  30.840
 1179BOLB   C4D28296  10.540  21.120  30.970
 1180BOLB   NC128297  29.635  10.320  32.740
 1180BOLB   PO128298  29.315  10.240  32.440
 1180BOLB   GL128299  29.635  10.030  32.270
 1180BOLB   GL228300  29.845  10.050  31.980
 1180BOLB   C1A28301  29.945   9.630  32.200
 1180BOLB   C2A28302  30.175   9.420  31.920
 1180BOLB   C3A28303  30.515   9.220  31.760
 1180BOLB   C4A28304  30.905   9.060  31.710
 1180BOLB   C1B28305  30.255   9.910  31.960
 1180BOLB   C2B28306  30.585   9.710  31.820
 1180BOLB   C3B28307  31.035   9.590  31.710
 1180BOLB   C4B28308  31.455   9.750  31.650
 1180BOLB   NC228309  32.965   8.800  30.420
 1180BOLB   PO228310  32.635   8.520  30.280
 1180BOLB   GL328311  32.415   8.630  30.650
 1180BOLB   GL428312  32.505   8.950  30.750
 1180BOLB   C1C28313  32.415   8.590  31.090
 1180BOLB   C2C28314  32.135   8.630  31.410
 1180BOLB   C3C28315  31.665   8.730  31.580
 1180BOLB   C4C28316  31.275   8.850  31.600
 1180BOLB   C1D28317  32.155   9.030  30.930
 1180BOLB   C2D28318  31.955   9.080  31.230
 1180BOLB   C3D28319  31.525   9.260  31.050
 1180BOLB   C4D28320  31.135   9.260  30.780
 1181BOLB   NC128321  22.990  23.030  36.400
 1181BOLB   PO128322  23.080  22.820  36.800
 1181BOLB   GL128323  23.200  23.160  36.860
 1181BOLB   GL228324  22.990  23.370  36.840
 1181BOLB   C1A28325  23.670  23.250  36.770
 1181BOLB   C2A28326  24.090  23.150  36.680
 1181BOLB   C3A28327  24.520  23.120  36.860
 1181BOLB   C4A28328  24.810  23.500  36.730
 1181BOLB   C1B28329  23.220  23.650  37.120
 1181BOLB   C2B28330  23.480  24.020  37.140
 1181BOLB   C3B28331  23.920  24.050  37.300
 1181BOLB   C4B28332  24.350  23.910  37.350
 1181BOLB   NC228333  27.365  24.210  37.280
 1181BOLB   PO228334  27.145  24.510  37.030
 1181BOLB   GL328335  26.845  24.210  37.030
 1181BOLB   GL428336  26.825  24.030  37.230
 1181BOLB   C1C28337  26.380  24.100  36.950
 1181BOLB   C2C28338  25.980  23.900  36.760
 1181BOLB   C3C28339  25.490  23.610  36.790
 1181BOLB   C4C28340  25.050  23.780  36.650
 1181BOLB   C1D28341  26.625  23.660  37.100
 1181BOLB   C2D28342  26.300  23.570  36.980
 1181BOLB   C3D28343  25.960  23.390  36.950
 1181BOLB   C4D28344  25.610  23.260  37.080
 1182BOLB   NC128345  14.990  19.310  38.860
 1182BOLB   PO128346  15.120  19.170  39.310
 1182BOLB   GL128347  15.030  19.040  39.790
 1182BOLB   GL228348  15.230  19.190  39.960
 1182BOLB   C1A28349  14.640  19.040  39.940
 1182BOLB   C2A28350  14.420  18.950  40.220
 1182BOLB   C3A28351  14.250  18.920  40.610
 1182BOLB   C4A28352  14.400  19.100  41.030
 1182BOLB   C1B28353  14.890  19.270  40.290
 1182BOLB   C2B28354  14.850  19.690  40.450
 1182BOLB   C3B28355  14.460  19.930  40.550
 1182BOLB   C4B28356  14.490  20.380  40.690
 1182BOLB   NC228357  12.990  19.130  42.620
 1182BOLB   PO228358  12.920  19.580  42.620
 1182BOLB   GL328359  13.250  19.640  42.370
 1182BOLB   GL428360  13.380  19.900  42.160
 1182BOLB   C1C28361  13.460  19.420  42.210
 1182BOLB   C2C28362  13.820  19.570  42.020
 1182BOLB   C3C28363  14.060  19.600  41.640
 1182BOLB   C4C28364  14.160  19.390  41.280
 1182BOLB   C1D28365  13.760  19.920  42.400
 1182BOLB   C2D28366  14.260  19.930  42.550
 1182BOLB   C3D28367  14.360  20.260  42.860
 1182BOLB   C4D28368  14.680  20.260  43.220
 1183BOLB   NC128369  19.750  16.040  21.840
 1183BOLB   PO128370  19.480  15.590  22.010
 1183BOLB   GL128371  19.100  15.580  21.770
 1183BOLB   GL228372  18.940  15.740  21.620
 1183BOLB   C1A28373  18.730  15.350  21.380
 1183BOLB   C2A28374  18.620  15.140  21.100
 1183BOLB   C3A28375  18.650  14.900  20.770
 1183BOLB   C4A28376  18.280  14.780  20.540
 1183BOLB   C1B28377  18.950  15.880  21.240
 1183BOLB   C2B28378  18.950  15.590  20.900
 1183BOLB   C3B28379  18.850  15.400  20.540
 1183BOLB   C4B28380  18.560  15.150  20.280
 1183BOLB   NC228381  16.840  13.970  18.680
 1183BOLB   PO228382  17.130  13.680  18.900
 1183BOLB   GL328383  17.270  14.030  19.130
 1183BOLB   GL428384  17.360  14.340  18.990
 1183BOLB   C1C28385  17.590  14.230  19.430
 1183BOLB   C2C28386  17.710  14.350  19.760
 1183BOLB   C3C28387  17.930  14.590  19.990
 1183BOLB   C4C28388  18.080  14.890  20.210
 1183BOLB   C1D28389  17.480  14.700  19.300
 1183BOLB   C2D28390  17.470  14.940  19.730
 1183BOLB   C3D28391  17.550  14.890  20.150
 1183BOLB   C4D28392  17.730  14.570  20.470
 1184BOLB   NC128393  25.760  13.600  41.970
 1184BOLB   PO128394  25.930  13.390  41.830
 1184BOLB   GL128395  26.150  13.060  42.070
 1184BOLB   GL228396  26.100  12.850  41.810
 1184BOLB   C1A28397  26.280  12.880  42.400
 1184BOLB   C2A28398  26.420  12.620  42.560
 1184BOLB   C3A28399  26.725  12.370  42.700
 1184BOLB   C4A28400  27.075  12.150  42.760
 1184BOLB   C1B28401  26.210  12.440  42.030
 1184BOLB   C2B28402  26.390  12.180  42.320
 1184BOLB   C3B28403  26.645  11.860  42.270
 1184BOLB   C4B28404  26.565  11.430  42.460
 1184BOLB   NC228405  28.615  10.540  44.060
 1184BOLB   PO228406  28.565  10.940  43.880
 1184BOLB   GL328407  28.295  10.810  43.560
 1184BOLB   GL428408  28.275  10.520  43.510
 1184BOLB   C1C28409  27.805  10.980  43.520
 1184BOLB   C2C28410  27.595  11.370  43.250
 1184BOLB   C3C28411  27.375  11.480  42.870
 1184BOLB   C4C28412  27.045  11.740  42.650
 1184BOLB   C1D28413  28.385  10.570  43.050
 1184BOLB   C2D28414  28.225  10.580  42.600
 1184BOLB   C3D28415  28.265  10.880  42.310
 1184BOLB   C4D28416  28.135  11.350  42.420
 1185BOLB   NC128417  19.350  11.270  35.290
 1185BOLB   PO128418  19.100  10.790  35.490
 1185BOLB   GL128419  18.710  10.480  35.490
 1185BOLB   GL228420  18.510  10.420  35.910
 1185BOLB   C1A28421  18.460  10.090  35.520
 1185BOLB   C2A28422  18.010  10.000  35.560
 1185BOLB   C3A28423  17.670   9.830  35.500
 1185BOLB   C4A28424  17.500   9.500  35.210
 1185BOLB   C1B28425  18.120  10.280  35.980
 1185BOLB   C2B28426  17.860   9.930  36.020
 1185BOLB   C3B28427  17.840   9.480  36.230
 1185BOLB   C4B28428  17.760   8.970  36.150
 1185BOLB   NC228429  15.350   8.120  35.120
 1185BOLB   PO228430  15.670   8.000  34.780
 1185BOLB   GL328431  16.000   8.300  34.810
 1185BOLB   GL428432  16.210   8.030  34.900
 1185BOLB   C1C28433  16.350   8.560  34.940
 1185BOLB   C2C28434  16.630   8.890  34.990
 1185BOLB   C3C28435  16.920   9.140  34.900
 1185BOLB   C4C28436  17.270   9.230  35.000
 1185BOLB   C1D28437  16.580   8.100  35.050
 1185BOLB   C2D28438  16.860   8.320  34.930
 1185BOLB   C3D28439  17.300   8.670  34.900
 1185BOLB   C4D28440  17.580   8.840  34.700
 1186BOLB   NC128441  13.890  19.250  35.300
 1186BOLB   PO128442  13.890  18.810  35.190
 1186BOLB   GL128443  13.480  18.850  35.320
 1186BOLB   GL228444  13.310  19.000  35.010
 1186BOLB   C1A28445  13.070  18.660  35.500
 1186BOLB   C2A28446  12.730  18.630  35.390
 1186BOLB   C3A28447  12.330  18.360  35.490
 1186BOLB   C4A28448  12.080  18.140  35.670
 1186BOLB   C1B28449  12.970  18.870  35.040
 1186BOLB   C2B28450  12.610  19.020  35.030
 1186BOLB   C3B28451  12.200  18.920  35.240
 1186BOLB   C4B28452  11.950  18.720  35.490
 1186BOLB   NC228453   9.810  17.190  36.440
 1186BOLB   PO228454   9.920  17.570  36.650
 1186BOLB   GL328455  10.230  17.740  36.200
 1186BOLB   GL428456  10.090  18.030  36.040
 1186BOLB   C1C28457  10.590  17.750  35.970
 1186BOLB   C2C28458  11.050  17.850  35.950
 1186BOLB   C3C28459  11.420  17.800  36.140
 1186BOLB   C4C28460  11.750  18.010  36.010
 1186BOLB   C1D28461  10.520  18.200  36.120
 1186BOLB   C2D28462  10.820  18.300  36.020
 1186BOLB   C3D28463  11.070  18.720  35.980
 1186BOLB   C4D28464  11.370  19.020  35.760
 1187BOLB   NC128465  21.720  20.640  23.930
 1187BOLB   PO128466  21.920  20.760  23.450
 1187BOLB   GL128467  22.130  20.960  23.130
 1187BOLB   GL228468  22.490  20.830  23.140
 1187BOLB   C1A28469  22.070  21.390  22.870
 1187BOLB   C2A28470  22.100  21.560  22.470
 1187BOLB   C3A28471  22.190  21.800  22.070
 1187BOLB   C4A28472  21.910  21.970  21.880
 1187BOLB   C1B28473  22.540  21.240  23.000
 1187BOLB   C2B28474  22.670  21.540  22.850
 1187BOLB   C3B28475  22.960  21.820  22.620
 1187BOLB   C4B28476  23.290  21.870  22.200
 1187BOLB   NC228477  23.270  23.050  19.850
 1187BOLB   PO228478  22.920  22.830  19.960
 1187BOLB   GL328479  22.690  22.880  20.210
 1187BOLB   GL428480  22.460  23.150  20.150
 1187BOLB   C1C28481  22.340  22.890  20.540
 1187BOLB   C2C28482  22.250  22.510  20.890
 1187BOLB   C3C28483  22.060  22.150  21.090
 1187BOLB   C4C28484  21.880  22.090  21.490
 1187BOLB   C1D28485  22.030  23.100  20.120
 1187BOLB   C2D28486  21.670  23.070  20.370
 1187BOLB   C3D28487  21.410  22.960  20.580
 1187BOLB   C4D28488  21.420  22.830  21.070
 1188BOLB   NC128489  19.630  12.360  24.990
 1188BOLB   PO128490  19.560  11.830  24.880
 1188BOLB   GL128491  19.400  11.530  24.670
 1188BOLB   GL228492  19.190  11.680  24.440
 1188BOLB   C1A28493  19.380  11.160  24.400
 1188BOLB   C2A28494  19.310  10.830  24.210
 1188BOLB   C3A28495  19.040  10.480  24.030
 1188BOLB   C4A28496  18.720  10.230  23.760
 1188BOLB   C1B28497  19.060  11.490  24.000
 1188BOLB   C2B28498  18.970  11.390  23.580
 1188BOLB   C3B28499  18.620  11.160  23.360
 1188BOLB   C4B28500  18.180  11.350  23.370
 1188BOLB   NC228501  17.540   9.140  22.270
 1188BOLB   PO228502  17.190   9.440  22.330
 1188BOLB   GL328503  17.400   9.720  22.620
 1188BOLB   GL428504  17.240   9.960  22.580
 1188BOLB   C1C28505  17.790   9.820  22.730
 1188BOLB   C2C28506  18.210   9.760  22.710
 1188BOLB   C3C28507  18.410  10.000  22.990
 1188BOLB   C4C28508  18.530  10.290  23.340
 1188BOLB   C1D28509  17.580  10.230  22.550
 1188BOLB   C2D28510  17.770  10.450  22.970
 1188BOLB   C3D28511  17.910  10.870  23.210
 1188BOLB   C4D28512  17.660  11.190  23.450
 1189BOLB   NC128513  19.570   4.890  32.930
 1189BOLB   PO128514  19.480   5.270  32.700
 1189BOLB   GL128515  19.590   5.540  32.660
 1189BOLB   GL228516  19.530   5.700  32.350
 1189BOLB   C1A28517  19.850   5.950  32.880
 1189BOLB   C2A28518  19.970   6.230  32.930
 1189BOLB   C3A28519  20.090   6.630  32.910
 1189BOLB   C4A28520  19.860   7.020  32.730
 1189BOLB   C1B28521  19.890   5.880  32.400
 1189BOLB   C2B28522  20.000   6.420  32.450
 1189BOLB   C3B28523  19.720   6.730  32.310
 1189BOLB   C4B28524  19.460   6.660  31.930
 1189BOLB   NC228525  17.900   5.630  32.590
 1189BOLB   PO228526  18.050   5.750  32.930
 1189BOLB   GL328527  18.090   6.280  32.970
 1189BOLB   GL428528  18.260   6.500  33.040
 1189BOLB   C1C28529  18.410   6.500  32.620
 1189BOLB   C2C28530  18.690   6.740  32.520
 1189BOLB   C3C28531  19.040   7.100  32.640
 1189BOLB   C4C28532  19.490   7.050  32.590
 1189BOLB   C1D28533  18.520   6.820  32.990
 1189BOLB   C2D28534  18.660   7.160  33.140
 1189BOLB   C3D28535  18.850   7.430  32.940
 1189BOLB   C4D28536  18.880   7.670  32.700
 1190BOLB   NC128537  20.200  22.700  38.430
 1190BOLB   PO128538  20.120  23.110  38.500
 1190BOLB   GL128539  20.020  23.550  38.700
 1190BOLB   GL228540  20.160  23.740  38.480
 1190BOLB   C1A28541  19.870  23.850  39.040
 1190BOLB   C2A28542  20.060  24.230  39.240
 1190BOLB   C3A28543  20.120  24.300  39.720
 1190BOLB   C4A28544  20.140  24.690  39.820
 1190BOLB   C1B28545  20.400  24.100  38.630
 1190BOLB   C2B28546  20.350  24.520  38.750
 1190BOLB   C3B28547  20.100  24.700  39.130
 1190BOLB   C4B28548  19.900  24.890  39.450
 1190BOLB   NC228549  20.050   0.820  39.530
 1190BOLB   PO228550  20.370   0.600  39.610
 1190BOLB   GL328551  20.500   0.160  39.670
 1190BOLB   GL428552  20.880   0.090  39.510
 1190BOLB   C1C28553  20.530  26.280  39.900
 1190BOLB   C2C28554  20.510  25.850  39.740
 1190BOLB   C3C28555  20.320  25.440  39.770
 1190BOLB   C4C28556  20.260  25.030  39.760
 1190BOLB   C1D28557  20.730  26.120  39.390
 1190BOLB   C2D28558  20.720  25.720  39.150
 1190BOLB   C3D28559  20.670  25.400  38.830
 1190BOLB   C4D28560  20.520  24.950  38.760
 1191BOLB   NC128561  29.125  15.070  34.430
 1191BOLB   PO128562  29.295  14.660  34.560
 1191BOLB   GL128563  29.555  14.910  34.740
 1191BOLB   GL228564  29.715  15.010  34.480
 1191BOLB   C1A28565  29.955  15.080  34.920
 1191BOLB   C2A28566  30.255  15.450  34.960
 1191BOLB   C3A28567  30.625  15.710  34.840
 1191BOLB   C4A28568  30.985  15.970  34.940
 1191BOLB   C1B28569  30.175  15.160  34.400
 1191BOLB   C2B28570  30.485  15.220  34.200
 1191BOLB   C3B28571  30.895  15.250  34.010
 1191BOLB   C4B28572  31.355  15.270  33.910
 1191BOLB   NC228573  32.695  17.520  34.830
 1191BOLB   PO228574  32.625  17.540  35.260
 1191BOLB   GL328575  32.225  17.570  35.420
 1191BOLB   GL428576  32.365  17.670  35.860
 1191BOLB   C1C28577  31.965  17.250  35.280
 1191BOLB   C2C28578  31.795  16.900  35.390
 1191BOLB   C3C28579  31.635  16.510  35.140
 1191BOLB   C4C28580  31.315  16.140  34.970
 1191BOLB   C1D28581  31.925  17.690  35.830
 1191BOLB   C2D28582  31.585  17.680  36.080
 1191BOLB   C3D28583  31.175  17.660  36.260
 1191BOLB   C4D28584  30.845  17.380  36.260
 1192BOLB   NC128585  16.280  18.610  40.090
 1192BOLB   PO128586  15.900  18.630  39.860
 1192BOLB   GL128587  15.580  18.780  40.010
 1192BOLB   GL228588  15.320  18.660  40.030
 1192BOLB   C1A28589  15.400  19.030  40.450
 1192BOLB   C2A28590  15.290  18.900  40.840
 1192BOLB   C3A28591  15.190  19.050  41.230
 1192BOLB   C4A28592  14.950  18.930  41.590
 1192BOLB   C1B28593  15.000  18.750  40.300
 1192BOLB   C2B28594  14.790  18.870  40.650
 1192BOLB   C3B28595  14.800  18.750  41.100
 1192BOLB   C4B28596  14.700  18.550  41.470
 1192BOLB   NC228597  13.370  18.600  43.410
 1192BOLB   PO228598  13.420  19.020  43.330
 1192BOLB   GL328599  13.470  19.060  42.840
 1192BOLB   GL428600  13.600  19.330  42.700
 1192BOLB   C1C28601  13.660  18.890  42.620
 1192BOLB   C2C28602  14.100  18.770  42.510
 1192BOLB   C3C28603  14.380  18.820  42.260
 1192BOLB   C4C28604  14.630  18.880  41.880
 1192BOLB   C1D28605  13.950  19.380  42.420
 1192BOLB   C2D28606  14.340  19.310  42.330
 1192BOLB   C3D28607  14.740  19.210  42.270
 1192BOLB   C4D28608  14.960  19.460  41.960
 1193BOLB   NC128609  14.340  21.780  34.880
 1193BOLB   PO128610  14.370  22.290  34.840
 1193BOLB   GL128611  14.180  22.560  35.030
 1193BOLB   GL228612  13.970  22.640  34.960
 1193BOLB   C1A28613  14.130  22.690  35.490
 1193BOLB   C2A28614  14.140  22.950  35.770
 1193BOLB   C3A28615  13.830  23.090  36.020
 1193BOLB   C4A28616  13.560  23.240  36.230
 1193BOLB   C1B28617  13.650  22.980  35.120
 1193BOLB   C2B28618  13.230  23.120  34.970
 1193BOLB   C3B28619  12.860  23.270  34.810
 1193BOLB   C4B28620  12.530  23.120  34.720
 1193BOLB   NC228621  11.480  24.150  37.090
 1193BOLB   PO228622  11.410  24.100  36.640
 1193BOLB   GL328623  11.880  24.010  36.660
 1193BOLB   GL428624  11.780  23.820  36.930
 1193BOLB   C1C28625  12.300  23.880  36.600
 1193BOLB   C2C28626  12.580  23.690  36.740
 1193BOLB   C3C28627  13.050  23.720  36.680
 1193BOLB   C4C28628  13.490  23.580  36.560
 1193BOLB   C1D28629  12.050  23.450  37.270
 1193BOLB   C2D28630  12.370  23.310  37.130
 1193BOLB   C3D28631  12.800  23.070  37.020
 1193BOLB   C4D28632  13.260  23.180  37.030
 1194BOLB   NC128633  28.365   9.420  32.940
 1194BOLB   PO128634  28.545   8.980  32.720
 1194BOLB   GL128635  28.655   8.590  32.550
 1194BOLB   GL228636  28.565   8.480  32.290
 1194BOLB   C1A28637  29.025   8.360  32.370
 1194BOLB   C2A28638  29.235   8.060  32.340
 1194BOLB   C3A28639  29.625   7.890  32.580
 1194BOLB   C4A28640  29.745   7.480  32.590
 1194BOLB   C1B28641  28.665   8.060  32.350
 1194BOLB   C2B28642  28.785   7.610  32.430
 1194BOLB   C3B28643  28.895   7.170  32.410
 1194BOLB   C4B28644  28.995   6.790  32.590
 1194BOLB   NC228645  30.875   5.220  32.680
 1194BOLB   PO228646  31.245   5.340  32.950
 1194BOLB   GL328647  31.035   5.800  32.860
 1194BOLB   GL428648  30.805   5.750  32.600
 1194BOLB   C1C28649  30.865   6.230  32.850
 1194BOLB   C2C28650  30.495   6.430  32.820
 1194BOLB   C3C28651  30.195   6.800  32.810
 1194BOLB   C4C28652  29.865   7.160  32.730
 1194BOLB   C1D28653  30.335   5.970  32.410
 1194BOLB   C2D28654  30.175   6.070  32.060
 1194BOLB   C3D28655  29.885   6.010  31.720
 1194BOLB   C4D28656  29.545   6.350  31.550
 1195BOLB   NC128657  15.380  23.390  26.840
 1195BOLB   PO128658  15.750  23.580  27.020
 1195BOLB   GL128659  15.520  23.880  26.750
 1195BOLB   GL228660  15.190  23.820  26.770
 1195BOLB   C1A28661  15.410  24.280  26.790
 1195BOLB   C2A28662  15.410  24.740  26.650
 1195BOLB   C3A28663  15.150  25.050  26.500
 1195BOLB   C4A28664  14.930  25.350  26.610
 1195BOLB   C1B28665  14.930  24.150  26.600
 1195BOLB   C2B28666  14.940  24.590  26.820
 1195BOLB   C3B28667  14.660  24.950  26.960
 1195BOLB   C4B28668  14.540  25.330  26.960
 1195BOLB   NC228669  14.970   1.540  27.020
 1195BOLB   PO228670  14.600   1.270  27.030
 1195BOLB   GL328671  14.840   0.860  27.010
 1195BOLB   GL428672  15.080   1.060  27.150
 1195BOLB   C1C28673  14.940   0.510  26.890
 1195BOLB   C2C28674  14.930   0.110  26.750
 1195BOLB   C3C28675  14.950  26.130  26.870
 1195BOLB   C4C28676  14.770  25.740  26.630
 1195BOLB   C1D28677  15.260   0.750  27.240
 1195BOLB   C2D28678  15.550   0.410  27.540
 1195BOLB   C3D28679  15.840   0.450  27.950
 1195BOLB   C4D28680  16.040   0.810  28.010
 1196BOLB   NC128681  21.610   8.720  34.350
 1196BOLB   PO128682  21.520   8.750  33.920
 1196BOLB   GL128683  21.520   8.290  34.060
 1196BOLB   GL228684  21.690   8.230  34.370
 1196BOLB   C1A28685  21.240   8.130  34.300
 1196BOLB   C2A28686  20.990   7.860  34.500
 1196BOLB   C3A28687  20.930   7.430  34.710
 1196BOLB   C4A28688  20.840   7.110  34.510
 1196BOLB   C1B28689  21.520   7.740  34.290
 1196BOLB   C2B28690  21.310   7.350  34.400
 1196BOLB   C3B28691  21.250   6.920  34.340
 1196BOLB   C4B28692  21.050   6.600  34.580
 1196BOLB   NC228693  19.570   4.900  34.580
 1196BOLB   PO228694  19.380   5.040  34.930
 1196BOLB   GL328695  19.350   5.450  34.750
 1196BOLB   GL428696  19.500   5.530  34.970
 1196BOLB   C1C28697  19.670   5.800  34.540
 1196BOLB   C2C28698  19.860   6.160  34.630
 1196BOLB   C3C28699  20.140   6.510  34.490
 1196BOLB   C4C28700  20.580   6.720  34.420
 1196BOLB   C1D28701  19.550   6.010  35.100
 1196BOLB   C2D28702  19.560   6.240  35.530
 1196BOLB   C3D28703  19.800   6.460  35.970
 1196BOLB   C4D28704  20.200   6.510  36.190
 1197BOLB   NC128705  33.375  12.390  26.060
 1197BOLB   PO128706  32.925  12.360  26.340
 1197BOLB   GL128707  32.525  12.250  26.590
 1197BOLB   GL228708  32.285  12.560  26.520
 1197BOLB   C1A28709  32.185  12.150  26.880
 1197BOLB   C2A28710  31.815  12.110  27.090
 1197BOLB   C3A28711  31.385  11.770  27.030
 1197BOLB   C4A28712  30.905  11.940  26.850
 1197BOLB   C1B28713  31.815  12.520  26.760
 1197BOLB   C2B28714  31.605  12.700  27.140
 1197BOLB   C3B28715  31.445  12.850  27.500
 1197BOLB   C4B28716  31.615  12.840  27.880
 1197BOLB   NC228717  31.945  12.570  24.380
 1197BOLB   PO228718  31.905  12.860  24.680
 1197BOLB   GL328719  31.625  12.940  25.000
 1197BOLB   GL428720  31.585  13.150  25.100
 1197BOLB   C1C28721  31.445  12.660  25.240
 1197BOLB   C2C28722  31.175  12.580  25.650
 1197BOLB   C3C28723  31.155  12.470  26.010
 1197BOLB   C4C28724  30.945  12.190  26.480
 1197BOLB   C1D28725  31.375  13.070  25.540
 1197BOLB   C2D28726  31.385  12.900  26.030
 1197BOLB   C3D28727  31.755  12.640  26.250
 1197BOLB   C4D28728  31.865  12.180  26.340
 1198BOLB   NC128729  24.580  14.280  21.850
 1198BOLB   PO128730  24.900  13.920  21.930
 1198BOLB   GL128731  25.050  13.780  21.670
 1198BOLB   GL228732  24.780  13.500  21.690
 1198BOLB   C1A28733  25.400  13.880  21.300
 1198BOLB   C2A28734  25.420  13.890  20.850
 1198BOLB   C3A28735  25.280  14.070  20.460
 1198BOLB   C4A28736  24.910  13.870  20.210
 1198BOLB   C1B28737  25.060  13.460  21.330
 1198BOLB   C2B28738  25.380  13.360  21.010
 1198BOLB   C3B28739  25.560  13.100  20.580
 1198BOLB   C4B28740  25.950  13.020  20.430
 1198BOLB   NC228741  25.100  13.800  17.890
 1198BOLB   PO228742  24.760  13.920  17.870
 1198BOLB   GL328743  24.630  14.280  18.270
 1198BOLB   GL428744  24.650  14.620  18.130
 1198BOLB   C1C28745  24.600  14.030  18.660
 1198BOLB   C2C28746  24.700  13.910  19.020
 1198BOLB   C3C28747  24.970  13.890  19.390
 1198BOLB   C4C28748  24.970  13.700  19.750
 1198BOLB   C1D28749  24.740  14.600  18.630
 1198BOLB   C2D28750  24.820  14.400  18.930
 1198BOLB   C3D28751  24.700  14.410  19.360
 1198BOLB   C4D28752  24.860  14.490  19.820
 1199BOLB   NC128753  25.970   8.390  27.330
 1199BOLB   PO128754  26.020   8.410  27.730
 1199BOLB   GL128755  26.190   8.000  27.640
 1199BOLB   GL228756  26.170   7.850  27.410
 1199BOLB   C1A28757  26.030   7.580  27.850
 1199BOLB   C2A28758  26.060   7.150  27.850
 1199BOLB   C3A28759  26.280   6.840  27.940
 1199BOLB   C4A28760  26.495   6.510  28.180
 1199BOLB   C1B28761  26.290   7.710  27.040
 1199BOLB   C2B28762  26.635   7.640  26.730
 1199BOLB   C3B28763  27.025   7.420  26.730
 1199BOLB   C4B28764  27.455   7.340  26.620
 1199BOLB   NC228765  26.905   4.230  27.480
 1199BOLB   PO228766  27.115   4.150  27.160
 1199BOLB   GL328767  27.155   4.650  27.240
 1199BOLB   GL428768  27.055   4.810  27.000
 1199BOLB   C1C28769  26.955   5.070  27.470
 1199BOLB   C2C28770  26.865   5.450  27.650
 1199BOLB   C3C28771  26.915   5.830  27.690
 1199BOLB   C4C28772  26.745   6.160  27.980
 1199BOLB   C1D28773  26.805   5.190  26.990
 1199BOLB   C2D28774  26.625   5.480  26.700
 1199BOLB   C3D28775  26.725   5.880  26.580
 1199BOLB   C4D28776  26.955   6.090  26.320
 1200BOLB   NC128777  22.580   5.550  22.920
 1200BOLB   PO128778  22.730   5.940  23.190
 1200BOLB   GL128779  22.830   6.260  23.370
 1200BOLB   GL228780  22.530   6.350  23.510
 1200BOLB   C1A28781  23.160   6.510  23.670
 1200BOLB   C2A28782  23.370   6.670  24.020
 1200BOLB   C3A28783  23.500   6.550  24.380
 1200BOLB   C4A28784  23.520   6.870  24.580
 1200BOLB   C1B28785  22.560   6.650  23.640
 1200BOLB   C2B28786  22.840   6.770  24.010
 1200BOLB   C3B28787  23.200   7.120  24.190
 1200BOLB   C4B28788  23.440   7.450  23.940
 1200BOLB   NC228789  22.970   9.540  25.400
 1200BOLB   PO228790  23.350   9.370  25.160
 1200BOLB   GL328791  23.570   9.110  24.930
 1200BOLB   GL428792  23.540   9.110  24.650
 1200BOLB   C1C28793  23.650   8.620  24.980
 1200BOLB   C2C28794  23.580   8.210  24.920
 1200BOLB   C3C28795  23.500   7.670  24.920
 1200BOLB   C4C28796  23.500   7.280  24.740
 1200BOLB   C1D28797  23.480   8.830  24.280
 1200BOLB   C2D28798  23.340   8.540  24.090
 1200BOLB   C3D28799  23.080   8.430  23.860
 1200BOLB   C4D28800  22.750   8.240  23.810
 1201BOLB   NC128801  22.550  12.320  21.760
 1201BOLB   PO128802  22.930  12.050  21.870
 1201BOLB   GL128803  22.880  11.910  21.440
 1201BOLB   GL228804  22.680  12.170  21.150
 1201BOLB   C1A28805  22.670  11.560  21.230
 1201BOLB   C2A28806  22.680  11.110  21.410
 1201BOLB   C3A28807  22.620  10.730  21.070
 1201BOLB   C4A28808  22.980  10.630  20.930
 1201BOLB   C1B28809  22.880  12.090  20.810
 1201BOLB   C2B28810  23.300  12.000  20.590
 1201BOLB   C3B28811  23.630  12.120  20.520
 1201BOLB   C4B28812  24.010  12.320  20.280
 1201BOLB   NC228813  23.290   8.220  20.470
 1201BOLB   PO228814  23.010   8.560  20.390
 1201BOLB   GL328815  23.110   8.980  20.590
 1201BOLB   GL428816  23.380   9.210  20.610
 1201BOLB   C1C28817  23.150   9.100  21.030
 1201BOLB   C2C28818  23.150   9.440  21.230
 1201BOLB   C3C28819  23.180   9.840  21.000
 1201BOLB   C4C28820  23.170  10.310  20.850
 1201BOLB   C1D28821  22.920   9.480  20.690
 1201BOLB   C2D28822  22.710   9.690  21.030
 1201BOLB   C3D28823  22.330   9.890  21.340
 1201BOLB   C4D28824  22.330  10.080  21.730
 1202BOLB   NC128825  22.780  15.390  21.330
 1202BOLB   PO128826  23.120  15.540  21.430
 1202BOLB   GL128827  23.200  15.860  21.060
 1202BOLB   GL228828  23.020  16.010  21.030
 1202BOLB   C1A28829  23.370  15.920  20.670
 1202BOLB   C2A28830  23.680  15.980  20.220
 1202BOLB   C3A28831  24.090  16.170  20.070
 1202BOLB   C4A28832  24.180  16.470  19.870
 1202BOLB   C1B28833  22.950  16.080  20.570
 1202BOLB   C2B28834  23.110  16.010  20.210
 1202BOLB   C3B28835  23.380  16.280  19.910
 1202BOLB   C4B28836  23.750  16.280  19.700
 1202BOLB   NC228837  24.310  17.800  17.820
 1202BOLB   PO228838  24.620  17.520  17.640
 1202BOLB   GL328839  24.300  17.360  18.080
 1202BOLB   GL428840  24.320  17.010  18.110
 1202BOLB   C1C28841  24.240  17.290  18.500
 1202BOLB   C2C28842  24.460  17.190  18.870
 1202BOLB   C3C28843  24.490  16.970  19.310
 1202BOLB   C4C28844  24.220  16.850  19.790
 1202BOLB   C1D28845  24.140  16.750  18.440
 1202BOLB   C2D28846  23.980  16.360  18.720
 1202BOLB   C3D28847  24.070  16.080  19.000
 1202BOLB   C4D28848  24.010  15.670  19.150
 1203BOLB   NC128849  20.030  14.770  41.850
 1203BOLB   PO128850  19.580  14.500  41.760
 1203BOLB   GL128851  19.290  14.310  42.140
 1203BOLB   GL228852  19.200  13.960  42.080
 1203BOLB   C1A28853  18.900  14.040  42.450
 1203BOLB   C2A28854  18.680  13.620  42.550
 1203BOLB   C3A28855  18.510  13.240  42.580
 1203BOLB   C4A28856  18.280  12.950  42.850
 1203BOLB   C1B28857  18.780  13.830  42.020
 1203BOLB   C2B28858  18.660  13.420  42.110
 1203BOLB   C3B28859  18.670  12.930  42.250
 1203BOLB   C4B28860  18.670  12.730  42.570
 1203BOLB   NC228861  16.450  11.620  43.660
 1203BOLB   PO228862  16.810  11.650  43.980
 1203BOLB   GL328863  17.070  11.690  43.610
 1203BOLB   GL428864  16.850  11.420  43.440
 1203BOLB   C1C28865  17.220  12.000  43.350
 1203BOLB   C2C28866  17.350  12.240  43.020
 1203BOLB   C3C28867  17.580  12.520  42.880
 1203BOLB   C4C28868  17.940  12.780  43.000
 1203BOLB   C1D28869  16.950  11.640  43.120
 1203BOLB   C2D28870  17.230  11.800  42.830
 1203BOLB   C3D28871  17.480  12.030  42.490
 1203BOLB   C4D28872  17.520  12.440  42.410
 1204BOLB   NC128873  18.050  12.010  37.920
 1204BOLB   PO128874  17.720  12.190  37.790
 1204BOLB   GL128875  17.400  11.880  37.790
 1204BOLB   GL228876  17.140  11.910  37.500
 1204BOLB   C1A28877  17.210  11.480  37.930
 1204BOLB   C2A28878  17.130  11.190  38.230
 1204BOLB   C3A28879  16.940  11.180  38.660
 1204BOLB   C4A28880  16.670  11.340  38.970
 1204BOLB   C1B28881  16.850  11.860  37.820
 1204BOLB   C2B28882  16.530  11.690  38.030
 1204BOLB   C3B28883  16.140  11.550  38.210
 1204BOLB   C4B28884  15.770  11.450  38.180
 1204BOLB   NC228885  15.220   9.420  39.710
 1204BOLB   PO228886  15.190   9.810  39.930
 1204BOLB   GL328887  15.370  10.240  39.840
 1204BOLB   GL428888  15.160  10.390  39.730
 1204BOLB   C1C28889  15.550  10.470  39.500
 1204BOLB   C2C28890  15.520  10.740  39.170
 1204BOLB   C3C28891  15.940  10.900  38.910
 1204BOLB   C4C28892  16.300  11.120  38.980
 1204BOLB   C1D28893  15.050  10.340  39.230
 1204BOLB   C2D28894  14.950  10.180  38.830
 1204BOLB   C3D28895  15.160  10.380  38.430
 1204BOLB   C4D28896  15.370  10.320  38.080
 1205BOLB   NC128897  14.440  16.310  36.970
 1205BOLB   PO128898  14.380  16.690  37.230
 1205BOLB   GL128899  13.970  16.460  37.460
 1205BOLB   GL228900  14.030  16.200  37.250
 1205BOLB   C1A28901  13.900  16.670  37.840
 1205BOLB   C2A28902  13.660  16.720  38.160
 1205BOLB   C3A28903  13.690  16.710  38.570
 1205BOLB   C4A28904  13.350  16.640  38.860
 1205BOLB   C1B28905  13.590  16.280  37.180
 1205BOLB   C2B28906  13.260  16.100  37.440
 1205BOLB   C3B28907  13.090  16.000  37.830
 1205BOLB   C4B28908  12.650  15.880  38.020
 1205BOLB   NC228909  11.250  15.160  39.800
 1205BOLB   PO228910  11.650  15.390  39.690
 1205BOLB   GL328911  11.740  15.550  39.300
 1205BOLB   GL428912  11.670  15.350  39.010
 1205BOLB   C1C28913  12.010  15.710  38.940
 1205BOLB   C2C28914  12.490  15.950  38.920
 1205BOLB   C3C28915  12.670  16.270  38.980
 1205BOLB   C4C28916  12.920  16.580  38.820
 1205BOLB   C1D28917  12.050  15.160  38.760
 1205BOLB   C2D28918  12.570  15.190  38.620
 1205BOLB   C3D28919  12.560  15.570  38.450
 1205BOLB   C4D28920  12.350  15.890  38.450
 1206BOLB   NC128921  24.330   8.300  27.440
 1206BOLB   PO128922  24.660   8.080  27.490
 1206BOLB   GL128923  24.660   7.710  27.370
 1206BOLB   GL228924  24.380   7.610  27.210
 1206BOLB   C1A28925  24.740   7.260  27.330
 1206BOLB   C2A28926  25.020   7.080  27.020
 1206BOLB   C3A28927  25.030   6.910  26.590
 1206BOLB   C4A28928  25.220   6.500  26.340
 1206BOLB   C1B28929  24.320   7.270  26.980
 1206BOLB   C2B28930  24.270   6.820  26.790
 1206BOLB   C3B28931  24.160   6.300  26.790
 1206BOLB   C4B28932  24.140   6.040  26.530
 1206BOLB   NC228933  24.270   4.530  25.510
 1206BOLB   PO228934  23.850   4.720  25.660
 1206BOLB   GL328935  24.110   5.100  25.720
 1206BOLB   GL428936  24.180   5.340  25.520
 1206BOLB   C1C28937  24.500   5.290  25.900
 1206BOLB   C2C28938  24.770   5.530  26.040
 1206BOLB   C3C28939  24.870   5.740  26.330
 1206BOLB   C4C28940  25.240   6.050  26.470
 1206BOLB   C1D28941  24.170   5.700  25.840
 1206BOLB   C2D28942  24.400   6.050  26.030
 1206BOLB   C3D28943  24.580   6.320  26.420
 1206BOLB   C4D28944  24.990   6.460  26.790
 1207BOLB   NC128945  29.215  13.840  29.030
 1207BOLB   PO128946  29.215  13.620  29.440
 1207BOLB   GL128947  29.675  13.680  29.320
 1207BOLB   GL228948  29.755  13.770  29.000
 1207BOLB   C1A28949  30.105  13.840  29.630
 1207BOLB   C2A28950  30.445  13.880  29.930
 1207BOLB   C3A28951  30.895  13.770  30.050
 1207BOLB   C4A28952  31.005  13.420  29.900
 1207BOLB   C1B28953  30.055  13.690  28.720
 1207BOLB   C2B28954  30.425  13.980  28.610
 1207BOLB   C3B28955  30.775  14.090  28.690
 1207BOLB   C4B28956  30.865  14.280  28.880
 1207BOLB   NC228957  33.735  13.410  28.980
 1207BOLB   PO228958  33.325  13.300  29.190
 1207BOLB   GL328959  32.875  13.290  29.260
 1207BOLB   GL428960  32.815  13.580  29.350
 1207BOLB   C1C28961  32.495  13.190  29.520
 1207BOLB   C2C28962  32.075  13.040  29.580
 1207BOLB   C3C28963  31.785  13.160  29.560
 1207BOLB   C4C28964  31.345  13.200  29.770
 1207BOLB   C1D28965  32.785  13.440  29.780
 1207BOLB   C2D28966  32.365  13.430  29.980
 1207BOLB   C3D28967  31.955  13.610  30.010
 1207BOLB   C4D28968  31.495  13.590  30.180
 1208BOLB   NC128969  20.290  17.950  21.070
 1208BOLB   PO128970  20.650  18.140  20.950
 1208BOLB   GL128971  20.740  18.010  20.580
 1208BOLB   GL228972  20.580  18.120  20.280
 1208BOLB   C1A28973  21.100  17.950  20.330
 1208BOLB   C2A28974  21.250  17.940  19.810
 1208BOLB   C3A28975  21.060  17.890  19.440
 1208BOLB   C4A28976  21.080  17.590  19.150
 1208BOLB   C1B28977  20.780  17.900  19.960
 1208BOLB   C2B28978  20.750  17.580  19.670
 1208BOLB   C3B28979  20.330  17.240  19.650
 1208BOLB   C4B28980  20.260  16.880  19.480
 1208BOLB   NC228981  20.260  18.120  16.760
 1208BOLB   PO228982  20.650  18.040  17.060
 1208BOLB   GL328983  20.770  18.270  17.510
 1208BOLB   GL428984  20.910  18.610  17.540
 1208BOLB   C1C28985  20.920  17.990  18.000
 1208BOLB   C2C28986  20.860  17.560  18.040
 1208BOLB   C3C28987  21.030  17.270  18.320
 1208BOLB   C4C28988  21.170  17.480  18.690
 1208BOLB   C1D28989  20.940  18.570  17.900
 1208BOLB   C2D28990  20.790  18.440  18.230
 1208BOLB   C3D28991  20.590  18.410  18.670
 1208BOLB   C4D28992  20.380  18.480  19.180
 1209BOLB   NC128993  16.880  12.090  30.890
 1209BOLB   PO128994  16.980  11.920  30.530
 1209BOLB   GL128995  16.970  11.590  30.390
 1209BOLB   GL228996  16.660  11.550  30.290
 1209BOLB   C1A28997  16.940  11.130  30.520
 1209BOLB   C2A28998  16.780  10.740  30.340
 1209BOLB   C3A28999  16.760  10.250  30.350
 1209BOLB   C4A29000  16.660   9.940  30.740
 1209BOLB   C1B29001  16.220  11.370  30.280
 1209BOLB   C2B29002  15.870  11.030  30.120
 1209BOLB   C3B29003  15.860  10.670  30.140
 1209BOLB   C4B29004  15.630  10.470  30.390
 1209BOLB   NC229005  15.440   8.310  30.370
 1209BOLB   PO229006  15.630   8.390  30.810
 1209BOLB   GL329007  15.930   8.400  30.920
 1209BOLB   GL429008  15.800   8.470  31.230
 1209BOLB   C1C29009  16.400   8.440  30.910
 1209BOLB   C2C29010  16.670   8.740  30.940
 1209BOLB   C3C29011  16.560   9.170  30.910
 1209BOLB   C4C29012  16.460   9.500  30.670
 1209BOLB   C1D29013  16.170   8.470  31.490
 1209BOLB   C2D29014  16.680   8.510  31.490
 1209BOLB   C3D29015  17.140   8.470  31.510
 1209BOLB   C4D29016  17.330   8.860  31.400
 1210BOLB   NC129017  13.110  18.940  33.100
 1210BOLB   PO129018  13.000  18.690  32.810
 1210BOLB   GL129019  12.720  18.510  32.680
 1210BOLB   GL229020  12.730  18.410  32.420
 1210BOLB   C1A29021  12.300  18.440  32.720
 1210BOLB   C2A29022  11.880  18.540  32.650
 1210BOLB   C3A29023  11.450  18.460  32.580
 1210BOLB   C4A29024  11.180  18.150  32.860
 1210BOLB   C1B29025  12.420  18.060  32.370
 1210BOLB   C2B29026  12.350  17.920  31.970
 1210BOLB   C3B29027  12.130  17.690  31.710
 1210BOLB   C4B29028  12.080  17.460  31.390
 1210BOLB   NC229029   8.770  17.430  32.090
 1210BOLB   PO229030   9.020  17.830  32.220
 1210BOLB   GL329031   9.440  18.010  32.370
 1210BOLB   GL429032   9.680  18.180  32.220
 1210BOLB   C1C29033   9.870  17.950  32.630
 1210BOLB   C2C29034  10.210  18.090  32.680
 1210BOLB   C3C29035  10.520  17.830  32.720
 1210BOLB   C4C29036  10.810  17.910  32.880
 1210BOLB   C1D29037  10.180  18.090  32.220
 1210BOLB   C2D29038  10.560  18.240  32.200
 1210BOLB   C3D29039  10.950  18.110  32.410
 1210BOLB   C4D29040  11.290  17.780  32.460
 1211BOLB   NC129041  22.820   7.940  31.770
 1211BOLB   PO129042  22.780   7.920  32.190
 1211BOLB   GL129043  22.600   7.640  32.130
 1211BOLB   GL229044  22.220   7.740  32.140
 1211BOLB   C1A29045  22.280   7.230  32.250
 1211BOLB   C2A29046  21.890   6.900  32.320
 1211BOLB   C3A29047  21.640   6.620  32.380
 1211BOLB   C4A29048  21.180   6.360  32.280
 1211BOLB   C1B29049  21.780   7.640  32.170
 1211BOLB   C2B29050  21.580   7.300  32.390
 1211BOLB   C3B29051  21.380   7.010  32.680
 1211BOLB   C4B29052  21.020   7.020  32.940
 1211BOLB   NC229053  19.610   4.400  31.620
 1211BOLB   PO229054  19.940   4.670  31.660
 1211BOLB   GL329055  20.220   4.910  31.770
 1211BOLB   GL429056  20.110   5.280  31.970
 1211BOLB   C1C29057  20.570   5.170  31.760
 1211BOLB   C2C29058  20.760   5.580  31.970
 1211BOLB   C3C29059  20.790   5.820  32.240
 1211BOLB   C4C29060  21.010   6.000  32.480
 1211BOLB   C1D29061  20.270   5.580  32.060
 1211BOLB   C2D29062  20.410   6.110  32.160
 1211BOLB   C3D29063  20.630   6.530  32.170
 1211BOLB   C4D29064  20.910   6.860  31.940
 1212BOLB   NC129065  28.935  10.630  36.480
 1212BOLB   PO129066  29.265  10.970  36.560
 1212BOLB   GL129067  29.475  10.620  36.700
 1212BOLB   GL229068  29.545  10.370  36.460
 1212BOLB   C1A29069  29.755  10.430  37.020
 1212BOLB   C2A29070  30.155  10.210  37.060
 1212BOLB   C3A29071  30.555   9.960  36.940
 1212BOLB   C4A29072  30.965   9.830  37.080
 1212BOLB   C1B29073  29.815  10.120  36.670
 1212BOLB   C2B29074  30.265  10.140  36.560
 1212BOLB   C3B29075  30.525  10.460  36.790
 1212BOLB   C4B29076  30.705  10.730  37.130
 1212BOLB   NC229077  33.445   9.760  36.910
 1212BOLB   PO229078  33.285   9.300  37.090
 1212BOLB   GL329079  32.825   9.180  37.020
 1212BOLB   GL429080  32.635   9.020  37.210
 1212BOLB   C1C29081  32.465   9.180  36.770
 1212BOLB   C2C29082  32.065   9.300  36.840
 1212BOLB   C3C29083  31.825   9.680  36.980
 1212BOLB   C4C29084  31.415   9.860  37.010
 1212BOLB   C1D29085  32.215   9.030  37.400
 1212BOLB   C2D29086  31.835   8.770  37.370
 1212BOLB   C3D29087  31.395   8.680  37.420
 1212BOLB   C4D29088  31.215   8.420  37.320
 1213BOLB   NC129089  30.935  20.140  40.040
 1213BOLB   PO129090  30.605  20.420  39.930
 1213BOLB   GL129091  30.435  20.070  39.820
 1213BOLB   GL229092  30.425  19.920  39.500
 1213BOLB   C1A29093  30.065  19.830  39.870
 1213BOLB   C2A29094  29.805  19.520  39.740
 1213BOLB   C3A29095  29.405  19.610  39.730
 1213BOLB   C4A29096  29.065  19.570  40.030
 1213BOLB   C1B29097  30.055  19.790  39.410
 1213BOLB   C2B29098  29.625  19.760  39.270
 1213BOLB   C3B29099  29.255  19.690  39.240
 1213BOLB   C4B29100  28.975  19.460  39.500
 1213BOLB   NC229101  30.305  19.190  41.440
 1213BOLB   PO229102  30.155  18.890  41.800
 1213BOLB   GL329103  29.785  18.900  41.580
 1213BOLB   GL429104  29.925  18.760  41.360
 1213BOLB   C1C29105  29.495  18.970  41.280
 1213BOLB   C2C29106  29.465  18.870  40.880
 1213BOLB   C3C29107  29.295  18.970  40.530
 1213BOLB   C4C29108  29.135  19.240  40.260
 1213BOLB   C1D29109  29.995  18.400  41.000
 1213BOLB   C2D29110  29.705  18.040  41.040
 1213BOLB   C3D29111  29.355  17.900  40.910
 1213BOLB   C4D29112  29.135  17.740  40.590
 1214BOLB   NC129113  26.330  10.000  39.040
 1214BOLB   PO129114  26.585   9.920  38.780
 1214BOLB   GL129115  26.665   9.610  39.040
 1214BOLB   GL229116  26.675   9.710  39.330
 1214BOLB   C1A29117  26.935   9.220  39.000
 1214BOLB   C2A29118  27.085   8.960  39.320
 1214BOLB   C3A29119  27.035   8.530  39.520
 1214BOLB   C4A29120  27.055   8.200  39.820
 1214BOLB   C1B29121  26.775   9.370  39.520
 1214BOLB   C2B29122  26.725   8.970  39.760
 1214BOLB   C3B29123  26.835   8.660  39.950
 1214BOLB   C4B29124  26.765   8.490  40.260
 1214BOLB   NC229125  27.475   6.690  41.640
 1214BOLB   PO229126  27.035   6.590  41.440
 1214BOLB   GL329127  27.185   6.770  41.140
 1214BOLB   GL429128  27.245   6.600  40.910
 1214BOLB   C1C29129  26.985   7.100  40.910
 1214BOLB   C2C29130  27.025   7.060  40.370
 1214BOLB   C3C29131  27.185   7.350  40.040
 1214BOLB   C4C29132  27.155   7.760  39.900
 1214BOLB   C1D29133  27.445   6.890  40.670
 1214BOLB   C2D29134  27.645   7.150  40.430
 1214BOLB   C3D29135  27.625   7.570  40.230
 1214BOLB   C4D29136  27.625   7.970  40.040
 1215BOLB   NC129137  21.240  15.260  21.840
 1215BOLB   PO129138  21.190  15.000  21.470
 1215BOLB   GL129139  21.070  14.980  21.020
 1215BOLB   GL229140  20.660  14.930  21.040
 1215BOLB   C1A29141  20.830  15.320  20.730
 1215BOLB   C2A29142  20.800  15.230  20.410
 1215BOLB   C3A29143  20.700  14.910  19.980
 1215BOLB   C4A29144  20.650  14.850  19.510
 1215BOLB   C1B29145  20.560  14.610  20.740
 1215BOLB   C2B29146  20.160  14.540  20.530
 1215BOLB   C3B29147  20.100  14.200  20.360
 1215BOLB   C4B29148  20.190  13.900  20.100
 1215BOLB   NC229149  21.180  14.380  17.120
 1215BOLB   PO229150  20.800  14.410  17.340
 1215BOLB   GL329151  21.140  14.630  17.650
 1215BOLB   GL429152  21.430  14.670  17.590
 1215BOLB   C1C29153  21.060  14.770  18.030
 1215BOLB   C2C29154  20.860  14.640  18.470
 1215BOLB   C3C29155  20.620  14.870  18.770
 1215BOLB   C4C29156  20.600  14.790  19.160
 1215BOLB   C1D29157  21.530  14.420  18.030
 1215BOLB   C2D29158  21.640  14.500  18.400
 1215BOLB   C3D29159  21.460  14.720  18.740
 1215BOLB   C4D29160  21.610  14.870  19.030
 1216BOLB   NC129161  22.770  17.620  21.690
 1216BOLB   PO129162  22.780  17.290  21.340
 1216BOLB   GL129163  22.630  17.520  21.080
 1216BOLB   GL229164  22.560  17.300  20.870
 1216BOLB   C1A29165  22.750  17.900  20.940
 1216BOLB   C2A29166  22.910  18.410  20.810
 1216BOLB   C3A29167  22.860  18.680  20.430
 1216BOLB   C4A29168  22.770  18.890  20.080
 1216BOLB   C1B29169  22.300  17.440  20.680
 1216BOLB   C2B29170  22.070  17.640  20.420
 1216BOLB   C3B29171  22.010  18.080  20.240
 1216BOLB   C4B29172  21.990  18.480  20.560
 1216BOLB   NC229173  25.070  18.730  18.410
 1216BOLB   PO229174  24.770  19.120  18.500
 1216BOLB   GL329175  24.460  19.030  18.750
 1216BOLB   GL429176  24.540  19.030  18.980
 1216BOLB   C1C29177  24.080  19.030  19.080
 1216BOLB   C2C29178  23.840  19.020  19.450
 1216BOLB   C3C29179  23.490  19.010  19.790
 1216BOLB   C4C29180  23.030  19.030  19.770
 1216BOLB   C1D29181  24.300  18.610  19.050
 1216BOLB   C2D29182  24.350  18.210  19.200
 1216BOLB   C3D29183  24.170  17.810  19.410
 1216BOLB   C4D29184  23.820  17.690  19.480
 1217BOLB   NC129185  28.975  11.810  29.180
 1217BOLB   PO129186  29.045  11.380  29.360
 1217BOLB   GL129187  29.435  11.380  29.220
 1217BOLB   GL229188  29.515  11.740  29.130
 1217BOLB   C1A29189  29.725  11.310  29.000
 1217BOLB   C2A29190  30.175  11.290  28.850
 1217BOLB   C3A29191  30.575  11.380  28.630
 1217BOLB   C4A29192  30.755  11.390  28.230
 1217BOLB   C1B29193  29.915  11.810  29.010
 1217BOLB   C2B29194  30.285  11.740  28.720
 1217BOLB   C3B29195  30.505  11.930  28.390
 1217BOLB   C4B29196  30.595  12.300  28.180
 1217BOLB   NC229197  33.275  10.900  28.240
 1217BOLB   PO229198  33.075  10.980  27.750
 1217BOLB   GL329199  32.535  10.860  27.830
 1217BOLB   GL429200  32.415  10.540  27.970
 1217BOLB   C1C29201  32.165  10.980  27.930
 1217BOLB   C2C29202  31.755  10.830  27.990
 1217BOLB   C3C29203  31.375  10.790  27.820
 1217BOLB   C4C29204  30.945  11.030  27.950
 1217BOLB   C1D29205  32.005  10.320  27.870
 1217BOLB   C2D29206  31.545  10.330  27.810
 1217BOLB   C3D29207  31.255  10.080  28.030
 1217BOLB   C4D29208  31.025   9.990  28.330
 1218BOLB   NC129209  24.730  15.240  42.940
 1218BOLB   PO129210  24.440  15.600  42.870
 1218BOLB   GL129211  24.560  15.530  43.310
 1218BOLB   GL229212  24.900  15.570  43.340
 1218BOLB   C1A29213  24.680  15.430  43.710
 1218BOLB   C2A29214  24.950  15.290  44.030
 1218BOLB   C3A29215  24.910  14.970  44.420
 1218BOLB   C4A29216  25.110  14.970  44.830
 1218BOLB   C1B29217  25.220  15.580  43.670
 1218BOLB   C2B29218  25.440  15.310  43.930
 1218BOLB   C3B29219  25.890  15.190  44.150
 1218BOLB   C4B29220  26.280  15.060  44.490
 1218BOLB   NC229221  25.780  14.080  47.190
 1218BOLB   PO229222  25.310  14.060  47.040
 1218BOLB   GL329223  25.480  14.330  46.730
 1218BOLB   GL429224  25.230  14.380  46.550
 1218BOLB   C1C29225  25.600  14.610  46.360
 1218BOLB   C2C29226  25.520  14.830  46.020
 1218BOLB   C3C29227  25.590  14.910  45.490
 1218BOLB   C4C29228  25.410  14.940  45.110
 1218BOLB   C1D29229  25.250  14.300  46.200
 1218BOLB   C2D29230  25.240  13.980  45.870
 1218BOLB   C3D29231  25.260  14.090  45.330
 1218BOLB   C4D29232  25.090  14.120  44.900
 1219BOLB   NC129233  23.260  19.880  42.120
 1219BOLB   PO129234  23.240  20.330  42.060
 1219BOLB   GL129235  23.150  20.550  42.480
 1219BOLB   GL229236  23.180  20.300  42.660
 1219BOLB   C1A29237  23.200  20.960  42.620
 1219BOLB   C2A29238  23.190  21.400  42.880
 1219BOLB   C3A29239  23.330  21.750  43.070
 1219BOLB   C4A29240  23.570  21.850  43.390
 1219BOLB   C1B29241  23.430  20.540  42.960
 1219BOLB   C2B29242  23.240  20.930  43.130
 1219BOLB   C3B29243  23.060  21.140  43.440
 1219BOLB   C4B29244  22.990  21.190  43.850
 1219BOLB   NC229245  25.990  22.730  44.440
 1219BOLB   PO229246  25.880  22.700  43.990
 1219BOLB   GL329247  25.480  22.630  43.850
 1219BOLB   GL429248  25.530  22.400  43.670
 1219BOLB   C1C29249  25.090  22.420  44.040
 1219BOLB   C2C29250  24.580  22.340  43.860
 1219BOLB   C3C29251  24.260  22.080  43.800
 1219BOLB   C4C29252  23.780  22.010  43.740
 1219BOLB   C1D29253  25.140  22.250  43.570
 1219BOLB   C2D29254  24.720  22.320  43.370
 1219BOLB   C3D29255  24.410  22.400  42.960
 1219BOLB   C4D29256  24.170  22.090  42.670
 1220BOLB   NC129257  18.390  13.110  24.720
 1220BOLB   PO129258  18.430  12.780  24.710
 1220BOLB   GL129259  18.260  12.800  24.320
 1220BOLB   GL229260  18.060  12.560  24.450
 1220BOLB   C1A29261  18.180  12.780  23.840
 1220BOLB   C2A29262  17.980  12.560  23.500
 1220BOLB   C3A29263  17.740  12.170  23.300
 1220BOLB   C4A29264  17.440  12.050  22.980
 1220BOLB   C1B29265  17.850  12.280  24.050
 1220BOLB   C2B29266  17.550  12.100  23.770
 1220BOLB   C3B29267  17.250  12.170  23.410
 1220BOLB   C4B29268  16.790  12.040  23.210
 1220BOLB   NC229269  16.870  10.260  21.650
 1220BOLB   PO229270  16.380  10.320  21.740
 1220BOLB   GL329271  16.630  10.610  21.930
 1220BOLB   GL429272  16.990  10.760  21.810
 1220BOLB   C1C29273  16.610  10.850  22.240
 1220BOLB   C2C29274  16.690  11.200  22.470
 1220BOLB   C3C29275  16.940  11.500  22.700
 1220BOLB   C4C29276  17.140  11.860  22.950
 1220BOLB   C1D29277  17.100  11.100  22.050
 1220BOLB   C2D29278  17.440  11.360  21.980
 1220BOLB   C3D29279  17.830  11.430  22.250
 1220BOLB   C4D29280  18.200  11.500  22.230
 1221BOLB   NC129281  24.120   7.360  34.070
 1221BOLB   PO129282  23.740   7.580  34.200
 1221BOLB   GL129283  23.560   7.270  34.030
 1221BOLB   GL229284  23.280   7.210  34.340
 1221BOLB   C1A29285  23.180   6.970  33.920
 1221BOLB   C2A29286  23.020   6.530  33.950
 1221BOLB   C3A29287  23.140   6.110  33.930
 1221BOLB   C4A29288  23.130   5.750  33.430
 1221BOLB   C1B29289  23.270   6.800  34.410
 1221BOLB   C2B29290  23.120   6.370  34.490
 1221BOLB   C3B29291  22.880   6.060  34.660
 1221BOLB   C4B29292  22.660   5.870  34.320
 1221BOLB   NC229293  23.400   3.470  32.380
 1221BOLB   PO229294  23.190   3.460  32.740
 1221BOLB   GL329295  23.360   3.830  32.980
 1221BOLB   GL429296  23.270   3.990  32.710
 1221BOLB   C1C29297  23.140   4.200  33.220
 1221BOLB   C2C29298  23.030   4.630  33.140
 1221BOLB   C3C29299  22.870   5.100  33.040
 1221BOLB   C4C29300  22.980   5.420  33.280
 1221BOLB   C1D29301  23.350   4.390  32.790
 1221BOLB   C2D29302  23.470   4.860  32.760
 1221BOLB   C3D29303  23.620   5.220  32.400
 1221BOLB   C4D29304  23.630   5.630  32.260
 1222BOLB   NC129305  14.880  23.240  29.330
 1222BOLB   PO129306  15.230  23.530  29.250
 1222BOLB   GL129307  14.900  23.730  29.320
 1222BOLB   GL229308  14.650  23.640  29.170
 1222BOLB   C1A29309  14.620  24.070  29.360
 1222BOLB   C2A29310  14.330  24.240  29.310
 1222BOLB   C3A29311  13.840  24.190  29.310
 1222BOLB   C4A29312  13.430  24.500  29.340
 1222BOLB   C1B29313  14.350  23.890  28.930
 1222BOLB   C2B29314  14.130  24.290  28.860
 1222BOLB   C3B29315  14.250  24.760  28.780
 1222BOLB   C4B29316  14.190  24.910  28.360
 1222BOLB   NC229317  11.740   0.130  28.990
 1222BOLB   PO229318  12.110   0.030  29.200
 1222BOLB   GL329319  12.320  26.210  29.230
 1222BOLB   GL429320  12.390  26.050  29.070
 1222BOLB   C1C29321  12.660  25.930  29.470
 1222BOLB   C2C29322  12.950  25.650  29.420
 1222BOLB   C3C29323  13.130  25.360  29.330
 1222BOLB   C4C29324  13.410  24.950  29.310
 1222BOLB   C1D29325  12.760  25.840  28.960
 1222BOLB   C2D29326  13.220  25.580  28.880
 1222BOLB   C3D29327  13.560  25.410  28.630
 1222BOLB   C4D29328  13.790  25.060  28.570
 1223BOLB   NC129329  20.230  24.530  35.430
 1223BOLB   PO129330  20.290  24.500  35.890
 1223BOLB   GL129331  20.420  24.720  36.240
 1223BOLB   GL229332  20.210  24.780  36.510
 1223BOLB   C1A29333  20.460  25.160  36.340
 1223BOLB   C2A29334  20.520  25.580  36.430
 1223BOLB   C3A29335  20.450  25.970  36.650
 1223BOLB   C4A29336  20.300  26.180  37.010
 1223BOLB   C1B29337  20.220  24.990  36.790
 1223BOLB   C2B29338  20.410  25.370  36.900
 1223BOLB   C3B29339  20.480  25.700  37.100
 1223BOLB   C4B29340  20.570  26.050  37.380
 1223BOLB   NC229341  19.450   2.010  38.580
 1223BOLB   PO229342  19.710   1.680  38.470
 1223BOLB   GL329343  19.540   1.270  38.210
 1223BOLB   GL429344  19.650   1.330  37.960
 1223BOLB   C1C29345  19.360   0.860  38.040
 1223BOLB   C2C29346  19.620   0.500  37.910
 1223BOLB   C3C29347  19.980   0.290  37.760
 1223BOLB   C4C29348  20.170   0.030  37.430
 1223BOLB   C1D29349  19.520   1.070  37.540
 1223BOLB   C2D29350  19.370   0.640  37.480
 1223BOLB   C3D29351  19.400   0.210  37.620
 1223BOLB   C4D29352  19.660  26.370  37.480
 1224BOLB   NC129353  26.030  19.380  37.170
 1224BOLB   PO129354  26.160  19.490  36.670
 1224BOLB   GL129355  26.565  19.670  36.500
 1224BOLB   GL229356  26.695  19.920  36.800
 1224BOLB   C1A29357  26.855  19.910  36.320
 1224BOLB   C2A29358  26.985  20.390  36.360
 1224BOLB   C3A29359  27.155  20.900  36.190
 1224BOLB   C4A29360  27.255  21.230  36.160
 1224BOLB   C1B29361  27.095  20.060  36.780
 1224BOLB   C2B29362  27.505  20.290  36.600
 1224BOLB   C3B29363  27.845  20.440  36.220
 1224BOLB   C4B29364  28.155  20.420  36.010
 1224BOLB   NC229365  29.265  22.570  36.130
 1224BOLB   PO229366  29.045  22.530  36.580
 1224BOLB   GL329367  28.725  22.270  36.370
 1224BOLB   GL429368  28.745  22.550  36.110
 1224BOLB   C1C29369  28.345  22.200  36.060
 1224BOLB   C2C29370  27.945  22.140  35.680
 1224BOLB   C3C29371  27.705  21.810  35.880
 1224BOLB   C4C29372  27.585  21.490  36.090
 1224BOLB   C1D29373  28.295  22.700  36.090
 1224BOLB   C2D29374  27.895  22.530  36.080
 1224BOLB   C3D29375  27.555  22.280  35.970
 1224BOLB   C4D29376  27.335  22.010  36.240
 1225BOLB   NC129377  11.220  24.250  23.530
 1225BOLB   PO129378  11.690  24.400  23.670
 1225BOLB   GL129379  12.030  24.230  23.830
 1225BOLB   GL229380  12.180  24.250  24.170
 1225BOLB   C1A29381  12.240  23.790  23.970
 1225BOLB   C2A29382  12.680  23.620  24.030
 1225BOLB   C3A29383  13.160  23.360  23.880
 1225BOLB   C4A29384  13.580  23.590  23.950
 1225BOLB   C1B29385  12.520  23.960  24.420
 1225BOLB   C2B29386  12.920  23.970  24.610
 1225BOLB   C3B29387  13.240  24.100  24.980
 1225BOLB   C4B29388  13.320  24.440  25.280
 1225BOLB   NC229389  12.220  25.890  25.160
 1225BOLB   PO229390  12.460  25.480  25.010
 1225BOLB   GL329391  12.570  25.040  25.070
 1225BOLB   GL429392  12.910  25.200  24.970
 1225BOLB   C1C29393  12.880  24.730  24.970
 1225BOLB   C2C29394  13.130  24.460  24.620
 1225BOLB   C3C29395  13.420  24.130  24.480
 1225BOLB   C4C29396  13.630  23.930  24.180
 1225BOLB   C1D29397  13.220  25.060  25.130
 1225BOLB   C2D29398  13.650  24.910  25.120
 1225BOLB   C3D29399  14.070  25.120  25.070
 1225BOLB   C4D29400  14.400  25.360  25.130
 1226BOLB   NC129401  17.930  15.320  23.200
 1226BOLB   PO129402  18.030  15.000  23.020
 1226BOLB   GL129403  18.090  14.670  22.870
 1226BOLB   GL229404  17.790  14.390  22.860
 1226BOLB   C1A29405  18.180  14.500  22.490
 1226BOLB   C2A29406  18.000  14.330  22.100
 1226BOLB   C3A29407  17.540  14.230  22.160
 1226BOLB   C4A29408  17.270  14.010  21.980
 1226BOLB   C1B29409  17.430  14.260  22.660
 1226BOLB   C2B29410  17.060  14.230  22.420
 1226BOLB   C3B29411  16.790  14.150  22.130
 1226BOLB   C4B29412  16.550  14.400  21.910
 1226BOLB   NC229413  15.110  13.260  20.280
 1226BOLB   PO229414  15.450  13.100  20.360
 1226BOLB   GL329415  15.680  13.290  20.670
 1226BOLB   GL429416  15.800  13.550  20.610
 1226BOLB   C1C29417  15.900  13.350  21.120
 1226BOLB   C2C29418  16.160  13.510  21.520
 1226BOLB   C3C29419  16.550  13.550  21.730
 1226BOLB   C4C29420  16.950  13.750  21.860
 1226BOLB   C1D29421  15.810  13.810  20.970
 1226BOLB   C2D29422  15.970  13.940  21.340
 1226BOLB   C3D29423  16.290  14.000  21.740
 1226BOLB   C4D29424  16.370  13.750  22.150
 1227BOLB   NC129425  17.010  24.540  36.210
 1227BOLB   PO129426  17.050  24.330  36.620
 1227BOLB   GL129427  17.240  24.620  36.810
 1227BOLB   GL229428  17.270  24.780  36.580
 1227BOLB   C1A29429  16.990  24.800  37.040
 1227BOLB   C2A29430  16.550  24.960  37.230
 1227BOLB   C3A29431  16.410  25.380  37.240
 1227BOLB   C4A29432  16.380  25.750  37.400
 1227BOLB   C1B29433  17.240  25.100  36.310
 1227BOLB   C2B29434  17.140  25.490  36.410
 1227BOLB   C3B29435  16.840  25.610  36.650
 1227BOLB   C4B29436  16.680  25.910  36.840
 1227BOLB   NC229437  15.020   1.560  37.450
 1227BOLB   PO229438  15.300   1.350  37.690
 1227BOLB   GL329439  15.580   1.050  37.480
 1227BOLB   GL429440  15.460   0.750  37.510
 1227BOLB   C1C29441  15.940   0.810  37.610
 1227BOLB   C2C29442  16.100   0.360  37.660
 1227BOLB   C3C29443  16.370   0.040  37.520
 1227BOLB   C4C29444  16.490  26.080  37.590
 1227BOLB   C1D29445  15.500   0.360  37.330
 1227BOLB   C2D29446  15.630   0.280  36.890
 1227BOLB   C3D29447  15.720  26.445  36.520
 1227BOLB   C4D29448  15.960  26.170  36.260
 1228BOLB   NC129449  17.220  11.790  33.370
 1228BOLB   PO129450  17.500  11.820  33.670
 1228BOLB   GL129451  17.150  11.640  33.830
 1228BOLB   GL229452  16.800  11.650  33.640
 1228BOLB   C1A29453  16.860  11.270  33.950
 1228BOLB   C2A29454  16.430  11.430  34.090
 1228BOLB   C3A29455  16.220  11.200  34.470
 1228BOLB   C4A29456  15.860  10.930  34.500
 1228BOLB   C1B29457  16.450  11.280  33.540
 1228BOLB   C2B29458  16.490  10.870  33.500
 1228BOLB   C3B29459  16.410  10.430  33.290
 1228BOLB   C4B29460  16.310  10.080  33.200
 1228BOLB   NC229461  14.230   9.160  34.620
 1228BOLB   PO229462  13.880   9.350  34.800
 1228BOLB   GL329463  14.280   9.660  34.890
 1228BOLB   GL429464  14.520   9.560  34.870
 1228BOLB   C1C29465  14.450  10.040  34.650
 1228BOLB   C2C29466  14.770  10.330  34.780
 1228BOLB   C3C29467  15.310  10.390  34.800
 1228BOLB   C4C29468  15.700  10.600  34.580
 1228BOLB   C1D29469  14.900   9.730  34.950
 1228BOLB   C2D29470  15.190   9.940  34.580
 1228BOLB   C3D29471  15.170  10.300  34.280
 1228BOLB   C4D29472  15.060  10.690  34.050
 1229BOLB   NC129473  28.185   8.530  33.930
 1229BOLB   PO129474  28.185   8.560  34.360
 1229BOLB   GL129475  28.405   8.200  34.270
 1229BOLB   GL229476  28.665   8.190  34.180
 1229BOLB   C1A29477  28.485   7.770  34.440
 1229BOLB   C2A29478  28.585   7.420  34.530
 1229BOLB   C3A29479  28.535   6.930  34.550
 1229BOLB   C4A29480  28.375   6.520  34.480
 1229BOLB   C1B29481  28.915   7.840  34.100
 1229BOLB   C2B29482  29.245   7.740  33.900
 1229BOLB   C3B29483  29.615   7.700  34.070
 1229BOLB   C4B29484  29.945   7.600  34.430
 1229BOLB   NC229485  28.545   4.120  34.290
 1229BOLB   PO229486  28.795   4.240  33.910
 1229BOLB   GL329487  28.535   4.670  33.770
 1229BOLB   GL429488  28.445   4.870  33.460
 1229BOLB   C1C29489  28.535   5.060  34.040
 1229BOLB   C2C29490  28.275   5.320  34.230
 1229BOLB   C3C29491  28.245   5.660  34.490
 1229BOLB   C4C29492  28.425   6.130  34.580
 1229BOLB   C1D29493  28.605   5.220  33.550
 1229BOLB   C2D29494  28.685   5.600  33.900
 1229BOLB   C3D29495  28.365   5.910  34.020
 1229BOLB   C4D29496  28.065   6.240  34.220
 1230BOLB   NC129497  26.180  19.470  35.740
 1230BOLB   PO129498  26.290  19.440  36.130
 1230BOLB   GL129499  26.635  19.610  36.030
 1230BOLB   GL229500  26.440  19.970  36.000
 1230BOLB   C1A29501  26.955  19.780  35.840
 1230BOLB   C2A29502  27.025  20.160  35.590
 1230BOLB   C3A29503  27.145  20.440  35.330
 1230BOLB   C4A29504  27.225  20.940  35.110
 1230BOLB   C1B29505  26.735  20.280  35.910
 1230BOLB   C2B29506  26.935  20.670  35.800
 1230BOLB   C3B29507  27.245  20.960  35.600
 1230BOLB   C4B29508  27.555  21.220  35.640
 1230BOLB   NC229509  29.055  22.000  33.250
 1230BOLB   PO229510  28.955  21.900  33.630
 1230BOLB   GL329511  28.845  21.920  34.100
 1230BOLB   GL429512  28.715  21.640  34.000
 1230BOLB   C1C29513  28.415  21.970  34.420
 1230BOLB   C2C29514  28.165  21.670  34.680
 1230BOLB   C3C29515  27.755  21.530  34.900
 1230BOLB   C4C29516  27.395  21.280  35.160
 1230BOLB   C1D29517  28.405  21.330  34.180
 1230BOLB   C2D29518  28.025  21.220  34.250
 1230BOLB   C3D29519  27.635  21.080  34.310
 1230BOLB   C4D29520  27.365  20.820  34.460
 1231BOLB   NC129521  21.550  11.740  40.850
 1231BOLB   PO129522  21.870  11.780  41.130
 1231BOLB   GL129523  21.700  11.530  41.460
 1231BOLB   GL229524  21.540  11.420  41.240
 1231BOLB   C1A29525  21.540  11.310  41.790
 1231BOLB   C2A29526  21.320  10.990  41.920
 1231BOLB   C3A29527  21.060  10.800  42.100
 1231BOLB   C4A29528  20.940  10.490  42.310
 1231BOLB   C1B29529  21.340  11.040  41.380
 1231BOLB   C2B29530  21.000  10.690  41.630
 1231BOLB   C3B29531  20.630  10.700  41.800
 1231BOLB   C4B29532  20.350  10.460  41.920
 1231BOLB   NC229533  19.940   9.200  44.110
 1231BOLB   PO229534  19.650   9.510  44.050
 1231BOLB   GL329535  19.980   9.670  43.850
 1231BOLB   GL429536  20.320   9.510  43.800
 1231BOLB   C1C29537  20.140   9.890  43.500
 1231BOLB   C2C29538  20.300  10.170  43.120
 1231BOLB   C3C29539  20.340  10.490  42.870
 1231BOLB   C4C29540  20.640  10.440  42.610
 1231BOLB   C1D29541  20.540   9.630  43.270
 1231BOLB   C2D29542  20.820  10.090  43.040
 1231BOLB   C3D29543  21.130  10.190  42.720
 1231BOLB   C4D29544  21.490  10.130  42.550
 1232BOLB   NC129545  25.230   8.050  32.390
 1232BOLB   PO129546  25.530   7.840  32.720
 1232BOLB   GL129547  25.760   7.440  32.740
 1232BOLB   GL229548  25.520   7.240  32.690
 1232BOLB   C1A29549  25.920   7.050  32.850
 1232BOLB   C2A29550  26.300   6.820  32.900
 1232BOLB   C3A29551  26.310   6.330  32.910
 1232BOLB   C4A29552  26.260   5.810  33.040
 1232BOLB   C1B29553  25.460   6.800  32.760
 1232BOLB   C2B29554  25.570   6.470  33.130
 1232BOLB   C3B29555  25.580   6.040  33.350
 1232BOLB   C4B29556  25.870   5.680  33.420
 1232BOLB   NC229557  27.475   3.710  33.730
 1232BOLB   PO229558  27.555   3.790  33.320
 1232BOLB   GL329559  27.285   4.020  33.060
 1232BOLB   GL429560  27.455   4.090  32.770
 1232BOLB   C1C29561  26.875   4.430  33.120
 1232BOLB   C2C29562  26.855   4.720  33.450
 1232BOLB   C3C29563  26.625   5.100  33.510
 1232BOLB   C4C29564  26.290   5.480  33.350
 1232BOLB   C1D29565  27.295   4.500  32.630
 1232BOLB   C2D29566  27.085   4.790  32.820
 1232BOLB   C3D29567  27.125   5.260  32.790
 1232BOLB   C4D29568  26.995   5.530  32.370
 1233BOLB   NC129569  26.420   7.540  31.720
 1233BOLB   PO129570  26.090   7.220  31.910
 1233BOLB   GL129571  26.430   7.040  31.970
 1233BOLB   GL229572  26.615   7.250  32.120
 1233BOLB   C1A29573  26.390   6.660  32.020
 1233BOLB   C2A29574  26.380   6.350  32.330
 1233BOLB   C3A29575  26.340   6.010  32.530
 1233BOLB   C4A29576  26.515   5.590  32.700
 1233BOLB   C1B29577  26.925   6.860  31.980
 1233BOLB   C2B29578  27.225   6.600  31.940
 1233BOLB   C3B29579  27.605   6.260  32.130
 1233BOLB   C4B29580  27.955   6.030  32.140
 1233BOLB   NC229581  25.410   3.340  32.670
 1233BOLB   PO229582  25.580   3.260  33.050
 1233BOLB   GL329583  25.720   3.590  33.110
 1233BOLB   GL429584  25.540   3.660  33.370
 1233BOLB   C1C29585  25.840   4.070  33.060
 1233BOLB   C2C29586  25.900   4.480  33.060
 1233BOLB   C3C29587  26.110   4.830  32.790
 1233BOLB   C4C29588  26.300   5.280  32.830
 1233BOLB   C1D29589  25.350   3.920  33.120
 1233BOLB   C2D29590  25.160   4.200  32.830
 1233BOLB   C3D29591  24.920   4.280  32.620
 1233BOLB   C4D29592  24.650   4.580  32.570
 1234BOLB   NC129593  22.230  14.820  20.970
 1234BOLB   PO129594  21.780  14.800  20.990
 1234BOLB   GL129595  21.540  14.850  20.700
 1234BOLB   GL229596  21.180  14.820  20.570
 1234BOLB   C1A29597  21.580  14.760  20.270
 1234BOLB   C2A29598  21.670  14.700  19.780
 1234BOLB   C3A29599  21.470  14.560  19.440
 1234BOLB   C4A29600  21.450  14.410  19.120
 1234BOLB   C1B29601  21.070  14.600  20.220
 1234BOLB   C2B29602  21.330  14.370  19.960
 1234BOLB   C3B29603  21.540  14.140  19.770
 1234BOLB   C4B29604  22.010  14.390  19.780
 1234BOLB   NC229605  22.240  13.470  17.380
 1234BOLB   PO229606  22.000  13.830  17.220
 1234BOLB   GL329607  22.010  13.800  17.640
 1234BOLB   GL429608  21.860  13.980  17.870
 1234BOLB   C1C29609  22.010  13.570  18.050
 1234BOLB   C2C29610  21.970  13.600  18.470
 1234BOLB   C3C29611  21.690  14.010  18.480
 1234BOLB   C4C29612  21.350  14.120  18.790
 1234BOLB   C1D29613  22.110  14.050  18.170
 1234BOLB   C2D29614  22.130  14.440  18.480
 1234BOLB   C3D29615  22.120  14.780  18.770
 1234BOLB   C4D29616  22.370  15.190  18.830
 1235BOLB   NC129617  17.290  20.870  22.370
 1235BOLB   PO129618  17.030  20.800  22.740
 1235BOLB   GL129619  16.840  21.120  22.450
 1235BOLB   GL229620  16.720  21.380  22.650
 1235BOLB   C1A29621  16.810  21.400  22.050
 1235BOLB   C2A29622  16.380  21.370  21.780
 1235BOLB   C3A29623  16.130  21.270  21.380
 1235BOLB   C4A29624  15.750  21.310  21.070
 1235BOLB   C1B29625  16.340  21.270  22.340
 1235BOLB   C2B29626  16.250  21.700  22.130
 1235BOLB   C3B29627  16.150  22.050  22.200
 1235BOLB   C4B29628  15.850  22.250  22.460
 1235BOLB   NC229629  14.470  22.010  18.980
 1235BOLB   PO229630  14.630  22.130  19.340
 1235BOLB   GL329631  14.920  21.970  19.600
 1235BOLB   GL429632  14.900  21.700  19.480
 1235BOLB   C1C29633  14.920  22.010  20.000
 1235BOLB   C2C29634  14.890  22.150  20.450
 1235BOLB   C3C29635  15.140  21.970  20.820
 1235BOLB   C4C29636  15.410  21.660  21.030
 1235BOLB   C1D29637  15.010  21.510  19.830
 1235BOLB   C2D29638  15.020  21.530  20.280
 1235BOLB   C3D29639  15.080  21.500  20.730
 1235BOLB   C4D29640  15.040  21.450  21.220
 1236BOLB   NC129641  23.750  13.590  41.870
 1236BOLB   PO129642  24.020  13.280  42.160
 1236BOLB   GL129643  24.040  13.100  42.540
 1236BOLB   GL229644  23.970  12.780  42.540
 1236BOLB   C1A29645  23.860  12.890  42.980
 1236BOLB   C2A29646  23.860  12.590  43.320
 1236BOLB   C3A29647  23.540  12.560  43.590
 1236BOLB   C4A29648  23.570  12.280  43.900
 1236BOLB   C1B29649  23.650  12.470  42.840
 1236BOLB   C2B29650  23.320  12.460  43.160
 1236BOLB   C3B29651  23.370  12.010  43.480
 1236BOLB   C4B29652  23.410  11.730  43.880
 1236BOLB   NC229653  23.640   9.660  44.880
 1236BOLB   PO229654  23.900  10.000  44.820
 1236BOLB   GL329655  23.950  10.450  44.750
 1236BOLB   GL429656  23.910  10.380  44.410
 1236BOLB   C1C29657  23.850  10.880  44.910
 1236BOLB   C2C29658  23.980  11.240  44.720
 1236BOLB   C3C29659  24.000  11.660  44.360
 1236BOLB   C4C29660  23.860  12.030  44.150
 1236BOLB   C1D29661  23.880  10.780  44.320
 1236BOLB   C2D29662  23.760  10.990  43.970
 1236BOLB   C3D29663  23.430  11.280  43.900
 1236BOLB   C4D29664  23.280  11.410  43.490
 1237BOLB   NC129665  21.020  23.550  32.100
 1237BOLB   PO129666  21.060  23.630  31.670
 1237BOLB   GL129667  21.120  24.030  31.930
 1237BOLB   GL229668  21.450  24.030  31.720
 1237BOLB   C1A29669  21.420  24.320  32.130
 1237BOLB   C2A29670  21.260  24.740  32.230
 1237BOLB   C3A29671  21.430  25.060  32.150
 1237BOLB   C4A29672  21.400  25.530  32.030
 1237BOLB   C1B29673  21.770  24.230  31.750
 1237BOLB   C2B29674  22.170  24.390  31.800
 1237BOLB   C3B29675  22.380  24.770  32.030
 1237BOLB   C4B29676  22.590  24.930  32.350
 1237BOLB   NC229677  22.570   0.820  32.810
 1237BOLB   PO229678  22.740   1.050  32.480
 1237BOLB   GL329679  22.410   0.890  32.280
 1237BOLB   GL429680  22.050   1.080  32.360
 1237BOLB   C1C29681  22.340   0.430  32.280
 1237BOLB   C2C29682  22.030   0.010  32.340
 1237BOLB   C3C29683  21.730  26.130  32.300
 1237BOLB   C4C29684  21.520  25.870  32.030
 1237BOLB   C1D29685  22.010   0.710  32.550
 1237BOLB   C2D29686  22.160   0.280  32.790
 1237BOLB   C3D29687  22.200  26.340  33.130
 1237BOLB   C4D29688  22.060  25.960  33.330
 1238BOLB   NC129689  13.620  17.470  32.900
 1238BOLB   PO129690  13.560  17.910  32.870
 1238BOLB   GL129691  13.130  17.790  32.810
 1238BOLB   GL229692  13.150  17.450  32.860
 1238BOLB   C1A29693  12.720  17.900  32.890
 1238BOLB   C2A29694  12.300  17.970  32.900
 1238BOLB   C3A29695  11.930  18.040  32.770
 1238BOLB   C4A29696  11.630  18.340  33.120
 1238BOLB   C1B29697  12.850  17.420  33.220
 1238BOLB   C2B29698  12.460  17.550  33.180
 1238BOLB   C3B29699  11.970  17.430  33.280
 1238BOLB   C4B29700  11.810  17.070  33.080
 1238BOLB   NC229701   9.090  17.310  33.310
 1238BOLB   PO229702   9.560  17.250  33.440
 1238BOLB   GL329703   9.950  17.470  33.440
 1238BOLB   GL429704  10.000  17.600  33.080
 1238BOLB   C1C29705  10.140  17.850  33.470
 1238BOLB   C2C29706  10.390  18.120  33.660
 1238BOLB   C3C29707  10.910  18.280  33.750
 1238BOLB   C4C29708  11.250  18.390  33.440
 1238BOLB   C1D29709  10.350  17.580  33.090
 1238BOLB   C2D29710  10.590  17.710  33.310
 1238BOLB   C3D29711  10.750  17.710  33.740
 1238BOLB   C4D29712  11.200  17.860  33.820
 1239BOLB   NC129713  17.090  19.170  17.640
 1239BOLB   PO129714  17.480  19.200  17.690
 1239BOLB   GL129715  17.540  19.040  18.080
 1239BOLB   GL229716  17.260  19.080  18.170
 1239BOLB   C1A29717  17.650  18.820  18.560
 1239BOLB   C2A29718  17.800  18.980  19.020
 1239BOLB   C3A29719  18.160  18.920  19.110
 1239BOLB   C4A29720  18.560  18.890  19.160
 1239BOLB   C1B29721  17.310  19.310  18.550
 1239BOLB   C2B29722  17.580  19.470  18.880
 1239BOLB   C3B29723  17.880  19.820  19.270
 1239BOLB   C4B29724  18.190  19.580  19.560
 1239BOLB   NC229725  19.010  17.370  17.120
 1239BOLB   PO229726  18.920  17.280  17.560
 1239BOLB   GL329727  19.040  17.440  17.970
 1239BOLB   GL429728  19.270  17.140  18.000
 1239BOLB   C1C29729  18.980  17.620  18.380
 1239BOLB   C2C29730  19.060  17.920  18.650
 1239BOLB   C3C29731  19.140  18.280  18.960
 1239BOLB   C4C29732  18.800  18.470  19.110
 1239BOLB   C1D29733  19.650  17.090  18.130
 1239BOLB   C2D29734  20.030  17.130  18.370
 1239BOLB   C3D29735  20.160  17.340  18.740
 1239BOLB   C4D29736  20.050  17.580  19.030
 1240BOLB   NC129737  16.590  22.660  38.230
 1240BOLB   PO129738  17.010  22.530  38.380
 1240BOLB   GL129739  16.930  22.860  38.580
 1240BOLB   GL229740  16.700  22.790  38.750
 1240BOLB   C1A29741  16.690  23.260  38.910
 1240BOLB   C2A29742  16.420  23.220  39.340
 1240BOLB   C3A29743  16.350  23.330  39.800
 1240BOLB   C4A29744  16.490  23.520  40.080
 1240BOLB   C1B29745  16.930  22.780  39.110
 1240BOLB   C2B29746  16.930  23.100  39.330
 1240BOLB   C3B29747  16.790  23.500  39.620
 1240BOLB   C4B29748  16.940  23.950  39.700
 1240BOLB   NC229749  15.370  24.820  41.290
 1240BOLB   PO229750  15.440  24.380  41.440
 1240BOLB   GL329751  15.770  24.280  41.230
 1240BOLB   GL429752  15.700  24.370  40.990
 1240BOLB   C1C29753  15.940  23.960  41.200
 1240BOLB   C2C29754  16.280  23.950  41.080
 1240BOLB   C3C29755  16.270  23.630  40.860
 1240BOLB   C4C29756  16.440  23.530  40.530
 1240BOLB   C1D29757  15.900  24.100  40.710
 1240BOLB   C2D29758  16.200  24.140  40.480
 1240BOLB   C3D29759  16.540  24.160  40.110
 1240BOLB   C4D29760  16.570  24.300  39.690
 1241BOLB   NC129761  20.660  20.040  43.210
 1241BOLB   PO129762  20.970  20.360  42.970
 1241BOLB   GL129763  20.990  20.430  43.410
 1241BOLB   GL229764  20.990  20.170  43.570
 1241BOLB   C1A29765  20.800  20.690  43.690
 1241BOLB   C2A29766  20.430  20.720  43.700
 1241BOLB   C3A29767  20.300  20.790  44.080
 1241BOLB   C4A29768  19.910  20.900  44.200
 1241BOLB   C1B29769  21.130  20.340  43.880
 1241BOLB   C2B29770  21.300  20.530  44.280
 1241BOLB   C3B29771  21.650  20.500  44.580
 1241BOLB   C4B29772  21.950  20.210  44.420
 1241BOLB   NC229773  19.130  22.350  45.740
 1241BOLB   PO229774  18.680  22.430  45.730
 1241BOLB   GL329775  18.730  22.140  45.440
 1241BOLB   GL429776  18.650  22.300  45.070
 1241BOLB   C1C29777  19.040  21.860  45.190
 1241BOLB   C2C29778  19.330  21.560  44.950
 1241BOLB   C3C29779  19.670  21.500  44.550
 1241BOLB   C4C29780  19.960  21.270  44.430
 1241BOLB   C1D29781  18.790  22.060  44.670
 1241BOLB   C2D29782  18.510  21.830  44.370
 1241BOLB   C3D29783  18.660  21.580  44.050
 1241BOLB   C4D29784  19.040  21.330  43.860
 1242BOLB   NC129785  25.310   4.430  38.820
 1242BOLB   PO129786  24.860   4.520  38.660
 1242BOLB   GL129787  25.250   4.590  38.280
 1242BOLB   GL229788  25.460   4.490  38.250
 1242BOLB   C1A29789  25.270   4.970  38.130
 1242BOLB   C2A29790  25.470   5.360  37.980
 1242BOLB   C3A29791  25.610   5.780  37.960
 1242BOLB   C4A29792  25.640   6.260  38.090
 1242BOLB   C1B29793  25.580   4.700  37.840
 1242BOLB   C2B29794  25.500   5.040  37.600
 1242BOLB   C3B29795  25.360   5.310  37.290
 1242BOLB   C4B29796  25.320   5.420  36.890
 1242BOLB   NC229797  25.570   5.260  40.350
 1242BOLB   PO229798  25.940   5.130  40.070
 1242BOLB   GL329799  25.780   5.580  39.900
 1242BOLB   GL429800  25.560   5.810  40.180
 1242BOLB   C1C29801  25.730   5.920  39.540
 1242BOLB   C2C29802  26.040   6.170  39.270
 1242BOLB   C3C29803  26.030   6.250  38.820
 1242BOLB   C4C29804  25.840   6.320  38.510
 1242BOLB   C1D29805  25.540   6.170  39.950
 1242BOLB   C2D29806  25.620   6.620  40.080
 1242BOLB   C3D29807  25.770   7.040  39.830
 1242BOLB   C4D29808  25.900   7.350  39.630
 1243BOLB   NC129809  17.940  11.050  34.230
 1243BOLB   PO129810  18.070  11.280  33.930
 1243BOLB   GL129811  17.810  10.940  33.810
 1243BOLB   GL229812  17.440  10.980  34.030
 1243BOLB   C1A29813  17.540  10.640  33.660
 1243BOLB   C2A29814  17.110  10.370  33.610
 1243BOLB   C3A29815  16.890  10.020  33.860
 1243BOLB   C4A29816  16.650   9.950  34.160
 1243BOLB   C1B29817  17.200  10.590  34.060
 1243BOLB   C2B29818  16.980  10.330  34.270
 1243BOLB   C3B29819  16.550  10.410  34.350
 1243BOLB   C4B29820  16.100  10.090  34.290
 1243BOLB   NC229821  15.030   8.230  34.300
 1243BOLB   PO229822  14.980   8.100  34.750
 1243BOLB   GL329823  15.350   8.470  34.650
 1243BOLB   GL429824  15.530   8.530  34.990
 1243BOLB   C1C29825  15.550   8.750  34.560
 1243BOLB   C2C29826  15.830   8.990  34.180
 1243BOLB   C3C29827  16.180   9.240  34.180
 1243BOLB   C4C29828  16.320   9.620  34.250
 1243BOLB   C1D29829  15.900   8.740  35.110
 1243BOLB   C2D29830  16.060   9.100  35.010
 1243BOLB   C3D29831  16.400   9.350  35.100
 1243BOLB   C4D29832  16.560   9.610  35.490
 1244BOLB   NC129833  20.690  16.820  43.450
 1244BOLB   PO129834  20.430  16.540  43.240
 1244BOLB   GL129835  20.120  16.270  43.370
 1244BOLB   GL229836  20.060  15.930  43.360
 1244BOLB   C1A29837  19.800  16.210  43.710
 1244BOLB   C2A29838  19.500  16.190  44.070
 1244BOLB   C3A29839  19.180  16.400  44.340
 1244BOLB   C4A29840  19.140  16.170  44.700
 1244BOLB   C1B29841  19.910  15.600  43.600
 1244BOLB   C2B29842  19.700  15.580  43.930
 1244BOLB   C3B29843  19.760  15.400  44.180
 1244BOLB   C4B29844  19.680  15.360  44.550
 1244BOLB   NC229845  19.330  14.500  46.550
 1244BOLB   PO229846  19.070  14.820  46.470
 1244BOLB   GL329847  19.370  15.070  46.190
 1244BOLB   GL429848  19.680  15.190  46.220
 1244BOLB   C1C29849  19.440  15.210  45.770
 1244BOLB   C2C29850  19.470  15.410  45.400
 1244BOLB   C3C29851  19.350  15.880  45.450
 1244BOLB   C4C29852  19.090  16.130  45.090
 1244BOLB   C1D29853  20.150  15.100  46.170
 1244BOLB   C2D29854  20.390  14.810  45.920
 1244BOLB   C3D29855  20.730  14.680  45.650
 1244BOLB   C4D29856  21.030  14.880  45.450
 1245BOLB   NC129857  14.160  17.540  27.550
 1245BOLB   PO129858  14.460  17.270  27.340
 1245BOLB   GL129859  14.060  17.230  27.060
 1245BOLB   GL229860  14.060  17.050  26.760
 1245BOLB   C1A29861  13.630  17.260  27.240
 1245BOLB   C2A29862  13.280  17.200  27.200
 1245BOLB   C3A29863  12.890  17.290  26.890
 1245BOLB   C4A29864  12.500  17.110  26.790
 1245BOLB   C1B29865  13.770  16.690  26.500
 1245BOLB   C2B29866  13.610  16.370  26.260
 1245BOLB   C3B29867  13.440  16.050  26.060
 1245BOLB   C4B29868  12.990  15.990  26.130
 1245BOLB   NC229869  10.180  16.610  26.940
 1245BOLB   PO229870  10.310  16.340  26.640
 1245BOLB   GL329871  10.640  16.500  26.750
 1245BOLB   GL429872  10.770  16.660  27.080
 1245BOLB   C1C29873  11.090  16.420  26.720
 1245BOLB   C2C29874  11.430  16.610  26.660
 1245BOLB   C3C29875  11.700  16.920  26.690
 1245BOLB   C4C29876  12.090  17.110  26.800
 1245BOLB   C1D29877  11.230  16.750  27.120
 1245BOLB   C2D29878  11.590  16.980  27.200
 1245BOLB   C3D29879  11.970  17.100  27.390
 1245BOLB   C4D29880  12.350  17.350  27.580
 1246BOLB   NC129881  17.970  11.530  27.830
 1246BOLB   PO129882  17.590  11.560  27.850
 1246BOLB   GL129883  17.320  11.360  27.730
 1246BOLB   GL229884  17.150  11.190  27.990
 1246BOLB   C1A29885  17.150  11.050  27.470
 1246BOLB   C2A29886  16.970  10.770  27.300
 1246BOLB   C3A29887  16.940  10.260  27.140
 1246BOLB   C4A29888  16.800   9.830  27.060
 1246BOLB   C1B29889  16.980  10.850  28.060
 1246BOLB   C2B29890  16.890  10.520  27.860
 1246BOLB   C3B29891  16.880  10.290  27.650
 1246BOLB   C4B29892  16.880   9.920  27.600
 1246BOLB   NC229893  15.550   8.960  25.080
 1246BOLB   PO229894  15.540   8.760  25.460
 1246BOLB   GL329895  15.930   9.020  25.680
 1246BOLB   GL429896  16.220   9.150  25.690
 1246BOLB   C1C29897  16.120   8.910  26.140
 1246BOLB   C2C29898  16.470   9.140  26.380
 1246BOLB   C3C29899  16.340   9.250  26.850
 1246BOLB   C4C29900  16.640   9.420  27.050
 1246BOLB   C1D29901  16.210   9.470  25.510
 1246BOLB   C2D29902  16.270   9.880  25.720
 1246BOLB   C3D29903  16.370  10.190  25.980
 1246BOLB   C4D29904  16.580  10.330  26.250
 1247BOLB   NC129905  14.610  17.580  30.010
 1247BOLB   PO129906  14.120  17.420  30.140
 1247BOLB   GL129907  13.660  17.260  30.120
 1247BOLB   GL229908  13.490  17.350  29.910
 1247BOLB   C1A29909  13.180  17.140  30.310
 1247BOLB   C2A29910  12.750  17.000  30.200
 1247BOLB   C3A29911  12.410  17.260  30.160
 1247BOLB   C4A29912  12.090  17.210  30.480
 1247BOLB   C1B29913  13.110  17.260  29.850
 1247BOLB   C2B29914  12.690  17.230  29.740
 1247BOLB   C3B29915  12.240  17.190  29.610
 1247BOLB   C4B29916  11.840  17.310  29.600
 1247BOLB   NC229917   9.800  15.990  30.730
 1247BOLB   PO229918   9.750  16.330  30.540
 1247BOLB   GL329919  10.180  16.270  30.490
 1247BOLB   GL429920  10.180  16.540  30.510
 1247BOLB   C1C29921  10.600  16.260  30.610
 1247BOLB   C2C29922  10.840  16.730  30.660
 1247BOLB   C3C29923  11.310  16.960  30.700
 1247BOLB   C4C29924  11.720  16.960  30.620
 1247BOLB   C1D29925  10.280  16.770  30.860
 1247BOLB   C2D29926  10.590  17.180  30.990
 1247BOLB   C3D29927  10.900  17.300  31.330
 1247BOLB   C4D29928  11.250  17.260  31.610
 1248BOLB   NC129929  29.395   9.470  32.470
 1248BOLB   PO129930  29.355   9.420  32.890
 1248BOLB   GL129931  29.725   9.210  32.760
 1248BOLB   GL229932  29.615   9.000  32.520
 1248BOLB   C1A29933  30.135   9.240  32.500
 1248BOLB   C2A29934  30.465   9.010  32.470
 1248BOLB   C3A29935  30.735   8.690  32.510
 1248BOLB   C4A29936  31.155   8.490  32.570
 1248BOLB   C1B29937  29.975   8.810  32.610
 1248BOLB   C2B29938  30.285   8.470  32.540
 1248BOLB   C3B29939  30.605   8.120  32.530
 1248BOLB   C4B29940  30.705   7.880  32.160
 1248BOLB   NC229941  33.385   7.370  32.650
 1248BOLB   PO229942  33.155   7.520  32.300
 1248BOLB   GL329943  32.775   7.650  32.480
 1248BOLB   GL429944  32.675   7.790  32.880
 1248BOLB   C1C29945  32.435   7.460  32.620
 1248BOLB   C2C29946  32.175   7.690  32.830
 1248BOLB   C3C29947  31.885   8.080  32.960
 1248BOLB   C4C29948  31.425   8.110  32.880
 1248BOLB   C1D29949  32.495   7.830  33.240
 1248BOLB   C2D29950  32.175   8.020  33.340
 1248BOLB   C3D29951  32.025   8.450  33.280
 1248BOLB   C4D29952  31.985   8.810  33.240
 1249BOLB   NC129953  16.610  20.370  39.770
 1249BOLB   PO129954  16.430  20.520  39.410
 1249BOLB   GL129955  16.110  20.620  39.640
 1249BOLB   GL229956  16.200  20.700  39.990
 1249BOLB   C1A29957  15.690  20.630  39.810
 1249BOLB   C2A29958  15.210  20.530  39.830
 1249BOLB   C3A29959  14.910  20.490  40.140
 1249BOLB   C4A29960  14.860  20.830  40.470
 1249BOLB   C1B29961  15.910  20.920  40.280
 1249BOLB   C2B29962  15.680  20.880  40.590
 1249BOLB   C3B29963  15.590  21.220  40.960
 1249BOLB   C4B29964  15.390  21.510  41.000
 1249BOLB   NC229965  13.320  22.890  41.410
 1249BOLB   PO229966  13.480  22.480  41.420
 1249BOLB   GL329967  13.700  22.300  41.130
 1249BOLB   GL429968  13.490  22.220  40.940
 1249BOLB   C1C29969  13.930  22.030  40.940
 1249BOLB   C2C29970  14.320  21.750  41.050
 1249BOLB   C3C29971  14.340  21.370  40.790
 1249BOLB   C4C29972  14.590  21.020  40.670
 1249BOLB   C1D29973  13.540  22.160  40.550
 1249BOLB   C2D29974  13.860  22.130  40.360
 1249BOLB   C3D29975  14.350  22.270  40.640
 1249BOLB   C4D29976  14.680  22.110  40.890
 1250BOLB   NC129977  28.045  15.470  27.270
 1250BOLB   PO129978  28.215  15.260  27.670
 1250BOLB   GL129979  28.545  15.520  27.800
 1250BOLB   GL229980  28.835  15.540  27.920
 1250BOLB   C1A29981  28.715  15.970  27.700
 1250BOLB   C2A29982  29.015  16.200  27.490
 1250BOLB   C3A29983  29.195  16.690  27.340
 1250BOLB   C4A29984  29.355  16.900  26.920
 1250BOLB   C1B29985  29.125  15.780  27.800
 1250BOLB   C2B29986  29.585  15.840  27.900
 1250BOLB   C3B29987  29.865  15.800  28.140
 1250BOLB   C4B29988  30.255  15.890  28.080
 1250BOLB   NC229989  30.295  18.440  24.590
 1250BOLB   PO229990  30.415  18.290  25.040
 1250BOLB   GL329991  30.105  18.150  25.370
 1250BOLB   GL429992  30.205  18.160  25.750
 1250BOLB   C1C29993  29.915  17.800  25.620
 1250BOLB   C2C29994  29.915  17.390  25.820
 1250BOLB   C3C29995  29.825  17.040  26.230
 1250BOLB   C4C29996  29.665  16.850  26.630
 1250BOLB   C1D29997  29.735  18.250  25.800
 1250BOLB   C2D29998  29.305  18.160  25.740
 1250BOLB   C3D29999  29.015  17.890  25.430
 1250BOLB   C4D30000  28.575  18.020  25.240
 1251BOLB   NC130001  24.800   7.240  33.680
 1251BOLB   PO130002  24.940   7.480  33.950
 1251BOLB   GL130003  25.110   7.040  34.090
 1251BOLB   GL230004  24.980   6.830  34.320
 1251BOLB   C1A30005  25.320   6.650  33.970
 1251BOLB   C2A30006  25.360   6.160  33.940
 1251BOLB   C3A30007  25.050   5.820  34.020
 1251BOLB   C4A30008  24.740   5.420  34.040
 1251BOLB   C1B30009  25.280   6.610  34.590
 1251BOLB   C2B30010  25.480   6.240  34.950
 1251BOLB   C3B30011  25.750   5.890  35.060
 1251BOLB   C4B30012  25.680   5.430  35.030
 1251BOLB   NC230013  25.780   3.210  34.300
 1251BOLB   PO230014  25.400   3.450  34.380
 1251BOLB   GL330015  25.490   3.610  33.900
 1251BOLB   GL430016  25.800   3.590  34.000
 1251BOLB   C1C30017  25.450   4.040  33.780
 1251BOLB   C2C30018  25.120   4.190  33.840
 1251BOLB   C3C30019  25.090   4.650  33.860
 1251BOLB   C4C30020  24.820   4.990  33.950
 1251BOLB   C1D30021  25.820   4.000  34.090
 1251BOLB   C2D30022  25.670   4.410  33.980
 1251BOLB   C3D30023  25.540   4.980  33.960
 1251BOLB   C4D30024  25.270   5.350  34.060
 1252BOLB   NC130025  21.360   3.780  30.570
 1252BOLB   PO130026  21.340   4.220  30.280
 1252BOLB   GL130027  21.420   4.670  30.400
 1252BOLB   GL230028  21.200   4.850  30.710
 1252BOLB   C1A30029  21.510   5.190  30.280
 1252BOLB   C2A30030  21.500   5.600  30.190
 1252BOLB   C3A30031  21.790   5.960  30.130
 1252BOLB   C4A30032  22.050   5.970  29.820
 1252BOLB   C1B30033  21.100   5.190  30.570
 1252BOLB   C2B30034  20.910   5.550  30.370
 1252BOLB   C3B30035  20.750   5.960  30.160
 1252BOLB   C4B30036  20.880   6.170  29.810
 1252BOLB   NC230037  21.810   3.730  28.960
 1252BOLB   PO230038  21.720   4.070  28.660
 1252BOLB   GL330039  22.060   4.360  28.840
 1252BOLB   GL430040  22.400   4.400  28.810
 1252BOLB   C1C30041  21.900   4.780  29.020
 1252BOLB   C2C30042  22.090   5.220  29.180
 1252BOLB   C3C30043  22.230   5.430  29.500
 1252BOLB   C4C30044  22.220   5.820  29.550
 1252BOLB   C1D30045  22.370   4.800  28.680
 1252BOLB   C2D30046  22.590   5.230  28.700
 1252BOLB   C3D30047  22.960   5.540  28.580
 1252BOLB   C4D30048  23.110   5.880  28.680
 1253BOLB   NC130049  16.710  12.410  34.280
 1253BOLB   PO130050  16.370  12.710  34.600
 1253BOLB   GL130051  16.050  12.510  34.520
 1253BOLB   GL230052  15.900  12.510  34.920
 1253BOLB   C1A30053  15.860  12.230  34.180
 1253BOLB   C2A30054  15.610  11.890  34.380
 1253BOLB   C3A30055  15.200  11.730  34.270
 1253BOLB   C4A30056  14.750  11.610  34.430
 1253BOLB   C1B30057  15.650  12.070  34.810
 1253BOLB   C2B30058  15.320  11.800  34.900
 1253BOLB   C3B30059  14.950  11.710  34.970
 1253BOLB   C4B30060  14.720  11.990  35.100
 1253BOLB   NC230061  11.980  10.770  34.320
 1253BOLB   PO230062  12.450  11.030  34.300
 1253BOLB   GL330063  12.850  11.250  34.450
 1253BOLB   GL430064  12.900  11.330  34.810
 1253BOLB   C1C30065  13.330  11.320  34.570
 1253BOLB   C2C30066  13.600  11.670  34.590
 1253BOLB   C3C30067  14.050  11.710  34.640
 1253BOLB   C4C30068  14.540  11.760  34.650
 1253BOLB   C1D30069  13.170  11.560  35.040
 1253BOLB   C2D30070  13.510  11.800  35.280
 1253BOLB   C3D30071  13.770  12.110  35.270
 1253BOLB   C4D30072  14.090  12.010  35.050
 1254BOLB   NC130073  19.180  13.500  40.590
 1254BOLB   PO130074  19.490  13.310  40.750
 1254BOLB   GL130075  19.330  12.890  40.920
 1254BOLB   GL230076  19.020  12.810  40.760
 1254BOLB   C1A30077  19.260  12.600  41.290
 1254BOLB   C2A30078  19.030  12.570  41.710
 1254BOLB   C3A30079  18.680  12.530  41.980
 1254BOLB   C4A30080  18.540  12.330  42.290
 1254BOLB   C1B30081  18.730  12.590  40.850
 1254BOLB   C2B30082  18.500  12.330  41.020
 1254BOLB   C3B30083  18.410  11.920  40.860
 1254BOLB   C4B30084  18.380  11.570  40.650
 1254BOLB   NC230085  16.950  11.170  43.880
 1254BOLB   PO230086  17.150  10.970  43.450
 1254BOLB   GL330087  17.390  11.060  43.160
 1254BOLB   GL430088  17.080  10.990  42.930
 1254BOLB   C1C30089  17.600  11.380  42.840
 1254BOLB   C2C30090  17.750  11.670  42.620
 1254BOLB   C3C30091  18.140  11.800  42.430
 1254BOLB   C4C30092  18.400  12.010  42.560
 1254BOLB   C1D30093  17.020  11.310  42.680
 1254BOLB   C2D30094  17.330  11.500  42.440
 1254BOLB   C3D30095  17.670  11.660  42.080
 1254BOLB   C4D30096  17.660  12.080  41.960
 1255BOLB   NC130097  13.450  18.220  29.760
 1255BOLB   PO130098  13.440  18.300  29.400
 1255BOLB   GL130099  13.070  18.140  29.140
 1255BOLB   GL230100  13.170  18.010  28.850
 1255BOLB   C1A30101  12.600  18.140  29.060
 1255BOLB   C2A30102  12.310  17.800  28.780
 1255BOLB   C3A30103  11.980  17.570  28.640
 1255BOLB   C4A30104  11.870  17.210  28.580
 1255BOLB   C1B30105  12.770  17.710  28.840
 1255BOLB   C2B30106  12.630  17.440  28.620
 1255BOLB   C3B30107  12.350  17.460  28.350
 1255BOLB   C4B30108  12.040  17.360  28.070
 1255BOLB   NC230109  10.000  15.960  27.840
 1255BOLB   PO230110  10.040  16.370  27.740
 1255BOLB   GL330111  10.240  16.770  28.030
 1255BOLB   GL430112  10.490  16.940  27.890
 1255BOLB   C1C30113  10.600  16.730  28.330
 1255BOLB   C2C30114  10.970  16.830  28.190
 1255BOLB   C3C30115  11.380  16.740  28.190
 1255BOLB   C4C30116  11.720  16.960  28.220
 1255BOLB   C1D30117  10.690  16.570  27.850
 1255BOLB   C2D30118  11.070  16.370  27.920
 1255BOLB   C3D30119  11.360  16.130  28.130
 1255BOLB   C4D30120  11.760  15.770  28.210
 1256BOLB   NC130121  24.000   9.980  24.180
 1256BOLB   PO130122  23.900  10.320  23.810
 1256BOLB   GL130123  23.950   9.900  23.680
 1256BOLB   GL230124  24.200   9.920  23.440
 1256BOLB   C1A30125  24.170   9.450  23.740
 1256BOLB   C2A30126  24.370   9.330  23.510
 1256BOLB   C3A30127  24.340   9.110  23.060
 1256BOLB   C4A30128  24.430   8.830  22.740
 1256BOLB   C1B30129  24.460   9.780  23.210
 1256BOLB   C2B30130  24.820   9.670  22.980
 1256BOLB   C3B30131  25.230   9.730  22.740
 1256BOLB   C4B30132  25.250   9.990  22.360
 1256BOLB   NC230133  25.260   9.190  19.900
 1256BOLB   PO230134  25.240   9.070  20.200
 1256BOLB   GL330135  25.100   9.090  20.660
 1256BOLB   GL430136  25.000   8.720  20.770
 1256BOLB   C1C30137  24.900   9.070  21.090
 1256BOLB   C2C30138  24.950   8.900  21.570
 1256BOLB   C3C30139  24.750   8.670  21.870
 1256BOLB   C4C30140  24.650   8.730  22.290
 1256BOLB   C1D30141  24.880   8.600  21.190
 1256BOLB   C2D30142  24.520   8.390  21.460
 1256BOLB   C3D30143  24.230   8.630  21.520
 1256BOLB   C4D30144  23.880   8.690  21.230
 1257BOLB   NC130145  23.610  19.550  25.070
 1257BOLB   PO130146  23.890  19.670  25.390
 1257BOLB   GL130147  24.350  19.930  25.220
 1257BOLB   GL230148  24.350  20.290  25.180
 1257BOLB   C1A30149  24.720  20.040  24.990
 1257BOLB   C2A30150  24.940  20.350  24.860
 1257BOLB   C3A30151  25.240  20.620  24.730
 1257BOLB   C4A30152  25.470  20.810  24.420
 1257BOLB   C1B30153  24.510  20.690  24.980
 1257BOLB   C2B30154  24.820  20.850  24.720
 1257BOLB   C3B30155  25.170  21.140  24.660
 1257BOLB   C4B30156  25.430  21.440  24.750
 1257BOLB   NC230157  27.975  21.310  23.040
 1257BOLB   PO230158  27.565  21.710  23.170
 1257BOLB   GL330159  27.185  21.670  23.560
 1257BOLB   GL430160  26.945  21.860  23.590
 1257BOLB   C1C30161  27.025  21.480  23.950
 1257BOLB   C2C30162  26.685  21.440  23.980
 1257BOLB   C3C30163  26.260  21.180  24.210
 1257BOLB   C4C30164  25.880  21.060  24.350
 1257BOLB   C1D30165  26.515  21.900  23.730
 1257BOLB   C2D30166  26.210  21.780  23.950
 1257BOLB   C3D30167  25.760  21.780  24.070
 1257BOLB   C4D30168  25.310  21.850  23.930
 1258BOLB   NC130169  23.930  15.590  42.900
 1258BOLB   PO130170  23.850  15.230  43.100
 1258BOLB   GL130171  23.770  15.100  43.530
 1258BOLB   GL230172  23.950  14.830  43.590
 1258BOLB   C1A30173  23.770  15.090  43.960
 1258BOLB   C2A30174  23.920  15.170  44.330
 1258BOLB   C3A30175  23.910  15.470  44.700
 1258BOLB   C4A30176  23.850  15.520  45.110
 1258BOLB   C1B30177  24.050  14.690  44.020
 1258BOLB   C2B30178  24.040  14.490  44.380
 1258BOLB   C3B30179  24.270  14.410  44.770
 1258BOLB   C4B30180  24.640  14.090  44.960
 1258BOLB   NC230181  24.180  14.350  47.300
 1258BOLB   PO230182  23.900  14.810  47.430
 1258BOLB   GL330183  23.750  15.160  47.140
 1258BOLB   GL430184  23.480  15.120  47.010
 1258BOLB   C1C30185  23.870  15.390  46.810
 1258BOLB   C2C30186  23.630  15.390  46.390
 1258BOLB   C3C30187  23.770  15.440  45.940
 1258BOLB   C4C30188  23.750  15.470  45.480
 1258BOLB   C1D30189  23.650  14.870  46.710
 1258BOLB   C2D30190  23.910  14.890  46.420
 1258BOLB   C3D30191  24.350  14.790  46.300
 1258BOLB   C4D30192  24.640  15.190  46.050
 1259BOLB   NC130193  19.860   9.940  28.640
 1259BOLB   PO130194  19.820   9.920  29.080
 1259BOLB   GL130195  19.640   9.610  28.880
 1259BOLB   GL230196  19.640   9.310  28.790
 1259BOLB   C1A30197  19.280   9.620  28.570
 1259BOLB   C2A30198  18.930   9.570  28.340
 1259BOLB   C3A30199  18.700   9.210  28.170
 1259BOLB   C4A30200  18.670   8.780  28.230
 1259BOLB   C1B30201  19.320   9.170  28.860
 1259BOLB   C2B30202  18.940   9.060  29.090
 1259BOLB   C3B30203  18.830   8.760  29.260
 1259BOLB   C4B30204  18.970   8.400  29.530
 1259BOLB   NC230205  17.730   6.720  28.010
 1259BOLB   PO230206  17.930   6.360  28.160
 1259BOLB   GL330207  18.190   6.770  28.130
 1259BOLB   GL430208  18.390   6.610  28.270
 1259BOLB   C1C30209  18.120   7.220  28.230
 1259BOLB   C2C30210  18.140   7.660  28.310
 1259BOLB   C3C30211  18.370   8.010  28.260
 1259BOLB   C4C30212  18.580   8.400  28.070
 1259BOLB   C1D30213  18.660   6.830  27.930
 1259BOLB   C2D30214  18.880   7.090  27.730
 1259BOLB   C3D30215  19.080   7.520  27.890
 1259BOLB   C4D30216  19.330   7.350  28.330
 1260BOLB   NC130217  17.540  11.520  32.280
 1260BOLB   PO130218  17.130  11.790  32.470
 1260BOLB   GL130219  16.680  11.610  32.440
 1260BOLB   GL230220  16.400  11.660  32.330
 1260BOLB   C1A30221  16.520  11.170  32.540
 1260BOLB   C2A30222  16.620  10.810  32.340
 1260BOLB   C3A30223  16.670  10.400  32.290
 1260BOLB   C4A30224  16.510  10.040  32.080
 1260BOLB   C1B30225  16.220  11.400  32.170
 1260BOLB   C2B30226  16.160  10.970  32.120
 1260BOLB   C3B30227  16.220  10.500  32.130
 1260BOLB   C4B30228  16.000  10.180  31.990
 1260BOLB   NC230229  14.610   8.570  31.810
 1260BOLB   PO230230  14.850   8.820  31.950
 1260BOLB   GL330231  15.020   9.140  31.700
 1260BOLB   GL430232  15.080   9.300  32.040
 1260BOLB   C1C30233  15.340   9.330  31.500
 1260BOLB   C2C30234  15.700   9.500  31.450
 1260BOLB   C3C30235  16.030   9.630  31.690
 1260BOLB   C4C30236  16.310   9.750  31.970
 1260BOLB   C1D30237  15.160   9.720  31.790
 1260BOLB   C2D30238  15.460   9.970  32.110
 1260BOLB   C3D30239  15.560  10.370  32.170
 1260BOLB   C4D30240  15.420  10.820  32.470
 1261BOLB   NC130241  14.270  17.020  33.890
 1261BOLB   PO130242  13.960  17.330  33.780
 1261BOLB   GL130243  13.580  17.300  33.630
 1261BOLB   GL230244  13.450  17.580  33.330
 1261BOLB   C1A30245  13.270  17.160  33.520
 1261BOLB   C2A30246  12.950  16.950  33.710
 1261BOLB   C3A30247  12.610  16.870  33.840
 1261BOLB   C4A30248  12.340  16.840  34.120
 1261BOLB   C1B30249  13.070  17.870  33.290
 1261BOLB   C2B30250  12.760  18.030  33.580
 1261BOLB   C3B30251  12.400  17.790  33.600
 1261BOLB   C4B30252  12.010  17.690  33.770
 1261BOLB   NC230253   9.690  16.670  35.380
 1261BOLB   PO230254   9.880  16.530  34.870
 1261BOLB   GL330255  10.320  16.390  34.830
 1261BOLB   GL430256  10.400  16.260  35.100
 1261BOLB   C1C30257  10.680  16.570  34.630
 1261BOLB   C2C30258  11.050  16.570  34.430
 1261BOLB   C3C30259  11.530  16.780  34.530
 1261BOLB   C4C30260  11.990  16.770  34.340
 1261BOLB   C1D30261  10.740  15.990  35.080
 1261BOLB   C2D30262  11.140  16.090  35.110
 1261BOLB   C3D30263  11.610  16.200  34.980
 1261BOLB   C4D30264  11.870  16.570  34.900
 1262BOLB   NC130265  22.420  22.240  38.190
 1262BOLB   PO130266  22.590  22.460  37.870
 1262BOLB   GL130267  22.880  22.820  37.910
 1262BOLB   GL230268  23.220  22.850  37.840
 1262BOLB   C1A30269  22.770  23.270  37.830
 1262BOLB   C2A30270  22.960  23.600  37.910
 1262BOLB   C3A30271  23.310  23.760  38.100
 1262BOLB   C4A30272  23.420  24.120  38.190
 1262BOLB   C1B30273  23.340  23.220  37.890
 1262BOLB   C2B30274  23.720  23.460  38.010
 1262BOLB   C3B30275  24.160  23.540  38.010
 1262BOLB   C4B30276  24.550  23.800  38.030
 1262BOLB   NC230277  23.690  26.200  39.970
 1262BOLB   PO230278  23.710  26.270  39.510
 1262BOLB   GL330279  23.690  26.010  39.120
 1262BOLB   GL430280  23.350  25.940  39.130
 1262BOLB   C1C30281  23.720  25.750  38.840
 1262BOLB   C2C30282  23.450  25.320  38.690
 1262BOLB   C3C30283  23.410  24.930  38.520
 1262BOLB   C4C30284  23.410  24.560  38.320
 1262BOLB   C1D30285  23.020  25.740  38.960
 1262BOLB   C2D30286  23.010  25.440  38.730
 1262BOLB   C3D30287  22.980  25.200  38.430
 1262BOLB   C4D30288  23.040  25.140  37.940
 1263BOLB   NC130289  18.640  20.350  21.660
 1263BOLB   PO130290  19.090  20.370  21.940
 1263BOLB   GL130291  19.110  20.440  21.470
 1263BOLB   GL230292  19.070  20.180  21.320
 1263BOLB   C1A30293  19.080  20.840  21.240
 1263BOLB   C2A30294  18.840  21.020  20.940
 1263BOLB   C3A30295  18.830  21.450  20.810
 1263BOLB   C4A30296  18.850  21.810  20.570
 1263BOLB   C1B30297  19.240  20.390  20.980
 1263BOLB   C2B30298  19.170  20.730  20.730
 1263BOLB   C3B30299  18.830  20.980  20.510
 1263BOLB   C4B30300  18.670  21.440  20.360
 1263BOLB   NC230301  18.980  22.680  18.040
 1263BOLB   PO230302  18.850  22.310  18.280
 1263BOLB   GL330303  18.670  22.360  18.720
 1263BOLB   GL430304  18.660  22.050  18.710
 1263BOLB   C1C30305  18.880  22.360  19.150
 1263BOLB   C2C30306  19.120  22.300  19.580
 1263BOLB   C3C30307  19.150  22.000  19.880
 1263BOLB   C4C30308  18.830  21.990  20.110
 1263BOLB   C1D30309  18.850  21.770  19.080
 1263BOLB   C2D30310  18.720  21.940  19.550
 1263BOLB   C3D30311  18.360  21.850  19.890
 1263BOLB   C4D30312  18.270  21.760  20.290
 1264BOLB   NC130313  19.360  17.870  43.410
 1264BOLB   PO130314  19.450  17.520  43.160
 1264BOLB   GL130315  19.040  17.480  43.370
 1264BOLB   GL230316  19.100  17.530  43.720
 1264BOLB   C1A30317  18.700  17.420  43.570
 1264BOLB   C2A30318  18.220  17.490  43.570
 1264BOLB   C3A30319  18.380  17.580  44.000
 1264BOLB   C4A30320  18.470  17.610  44.500
 1264BOLB   C1B30321  18.780  17.810  43.860
 1264BOLB   C2B30322  18.830  17.970  44.270
 1264BOLB   C3B30323  18.940  17.900  44.620
 1264BOLB   C4B30324  18.990  17.400  44.530
 1264BOLB   NC230325  17.210  18.220  46.320
 1264BOLB   PO230326  17.230  18.630  46.180
 1264BOLB   GL330327  17.440  18.340  45.880
 1264BOLB   GL430328  17.690  18.260  46.130
 1264BOLB   C1C30329  17.870  18.400  45.680
 1264BOLB   C2C30330  18.200  18.350  45.300
 1264BOLB   C3C30331  18.270  18.270  44.900
 1264BOLB   C4C30332  18.430  17.930  44.760
 1264BOLB   C1D30333  18.150  18.480  46.140
 1264BOLB   C2D30334  18.640  18.470  45.920
 1264BOLB   C3D30335  18.630  18.410  45.560
 1264BOLB   C4D30336  18.590  18.010  45.280
 1265BOLB   NC130337  16.440  23.840  26.200
 1265BOLB   PO130338  16.960  23.770  26.390
 1265BOLB   GL130339  16.790  24.200  26.350
 1265BOLB   GL230340  16.800  24.290  26.660
 1265BOLB   C1A30341  16.630  24.610  26.300
 1265BOLB   C2A30342  16.410  25.020  26.240
 1265BOLB   C3A30343  16.110  25.060  25.970
 1265BOLB   C4A30344  15.800  25.270  25.720
 1265BOLB   C1B30345  16.710  24.720  26.740
 1265BOLB   C2B30346  16.650  25.100  26.730
 1265BOLB   C3B30347  16.950  25.280  26.710
 1265BOLB   C4B30348  17.290  25.370  26.440
 1265BOLB   NC230349  13.880   0.310  24.960
 1265BOLB   PO230350  13.830   0.370  25.440
 1265BOLB   GL330351  14.210   0.150  25.520
 1265BOLB   GL430352  14.080  26.240  25.420
 1265BOLB   C1C30353  14.640  26.390  25.590
 1265BOLB   C2C30354  14.880  25.990  25.650
 1265BOLB   C3C30355  15.170  25.680  25.660
 1265BOLB   C4C30356  15.520  25.490  25.520
 1265BOLB   C1D30357  14.420  25.980  25.190
 1265BOLB   C2D30358  14.440  25.860  24.770
 1265BOLB   C3D30359  14.470  25.640  24.330
 1265BOLB   C4D30360  14.480  25.760  24.010
 1266BOLB   NC130361  20.840   8.530  32.520
 1266BOLB   PO130362  20.980   8.600  32.180
 1266BOLB   GL130363  20.680   8.250  32.070
 1266BOLB   GL230364  20.470   8.360  31.780
 1266BOLB   C1A30365  20.660   7.890  31.720
 1266BOLB   C2A30366  20.330   7.650  31.680
 1266BOLB   C3A30367  20.070   7.360  31.670
 1266BOLB   C4A30368  19.680   7.380  31.590
 1266BOLB   C1B30369  20.180   8.110  31.610
 1266BOLB   C2B30370  19.870   7.900  31.560
 1266BOLB   C3B30371  19.460   7.840  31.390
 1266BOLB   C4B30372  19.240   7.490  31.250
 1266BOLB   NC230373  18.680   5.450  31.510
 1266BOLB   PO230374  18.230   5.570  31.340
 1266BOLB   GL330375  18.300   5.920  31.170
 1266BOLB   GL430376  18.030   6.160  31.330
 1266BOLB   C1C30377  18.640   6.330  31.240
 1266BOLB   C2C30378  18.820   6.650  31.070
 1266BOLB   C3C30379  19.090   6.890  31.210
 1266BOLB   C4C30380  19.390   7.070  31.640
 1266BOLB   C1D30381  18.110   6.660  31.300
 1266BOLB   C2D30382  18.310   7.070  31.280
 1266BOLB   C3D30383  18.740   7.330  31.250
 1266BOLB   C4D30384  18.880   7.790  31.240
 1267BOLB   NC130385  22.150   8.310  35.230
 1267BOLB   PO130386  22.600   8.230  35.300
 1267BOLB   GL130387  22.480   7.920  35.400
 1267BOLB   GL230388  22.170   7.830  35.470
 1267BOLB   C1A30389  22.520   7.510  35.520
 1267BOLB   C2A30390  22.510   7.170  35.310
 1267BOLB   C3A30391  22.550   6.700  35.400
 1267BOLB   C4A30392  22.600   6.320  35.630
 1267BOLB   C1B30393  22.010   7.450  35.630
 1267BOLB   C2B30394  21.860   7.080  35.650
 1267BOLB   C3B30395  21.710   6.690  35.900
 1267BOLB   C4B30396  22.150   6.600  35.890
 1267BOLB   NC230397  21.410   5.000  37.400
 1267BOLB   PO230398  21.730   4.820  37.250
 1267BOLB   GL330399  21.840   4.970  36.900
 1267BOLB   GL430400  21.700   5.280  37.090
 1267BOLB   C1C30401  22.060   5.280  36.690
 1267BOLB   C2C30402  22.280   5.380  36.270
 1267BOLB   C3C30403  22.470   5.670  35.980
 1267BOLB   C4C30404  22.570   5.970  35.780
 1267BOLB   C1D30405  21.620   5.450  36.650
 1267BOLB   C2D30406  21.800   5.800  36.350
 1267BOLB   C3D30407  22.220   5.830  36.450
 1267BOLB   C4D30408  22.350   5.910  36.880
 1268BOLB   NC130409  24.470   9.080  25.930
 1268BOLB   PO130410  24.240   9.160  25.510
 1268BOLB   GL130411  24.130   8.810  25.610
 1268BOLB   GL230412  24.180   8.580  25.830
 1268BOLB   C1A30413  23.990   8.550  25.300
 1268BOLB   C2A30414  24.040   8.140  25.310
 1268BOLB   C3A30415  24.060   7.800  25.000
 1268BOLB   C4A30416  23.910   7.680  24.520
 1268BOLB   C1B30417  24.340   8.220  25.720
 1268BOLB   C2B30418  24.150   7.740  25.690
 1268BOLB   C3B30419  24.260   7.340  25.620
 1268BOLB   C4B30420  24.570   7.080  25.450
 1268BOLB   NC230421  24.760   5.730  23.000
 1268BOLB   PO230422  24.510   5.850  23.230
 1268BOLB   GL330423  24.290   6.160  23.360
 1268BOLB   GL430424  24.080   6.380  23.290
 1268BOLB   C1C30425  24.230   6.290  23.810
 1268BOLB   C2C30426  23.940   6.480  24.090
 1268BOLB   C3C30427  23.790   6.930  24.170
 1268BOLB   C4C30428  23.840   7.280  24.290
 1268BOLB   C1D30429  24.340   6.690  23.350
 1268BOLB   C2D30430  24.440   7.070  23.550
 1268BOLB   C3D30431  24.680   7.340  23.860
 1268BOLB   C4D30432  24.880   7.460  24.210
 1269BOLB   NC130433  23.110  12.440  41.070
 1269BOLB   PO130434  22.810  12.110  41.320
 1269BOLB   GL130435  22.730  11.840  41.730
 1269BOLB   GL230436  22.390  11.880  41.900
 1269BOLB   C1A30437  22.690  11.380  41.910
 1269BOLB   C2A30438  22.630  10.990  42.150
 1269BOLB   C3A30439  22.230  10.910  42.320
 1269BOLB   C4A30440  21.860  10.670  42.550
 1269BOLB   C1B30441  22.290  11.580  42.160
 1269BOLB   C2B30442  22.140  11.390  42.560
 1269BOLB   C3B30443  22.220  10.970  42.790
 1269BOLB   C4B30444  21.920  10.880  43.150
 1269BOLB   NC230445  22.600   8.920  44.360
 1269BOLB   PO230446  22.250   9.290  44.230
 1269BOLB   GL330447  22.220   9.770  44.140
 1269BOLB   GL430448  22.020   9.940  44.370
 1269BOLB   C1C30449  21.780   9.870  43.950
 1269BOLB   C2C30450  21.590  10.230  43.750
 1269BOLB   C3C30451  21.500  10.550  43.360
 1269BOLB   C4C30452  21.550  10.560  42.900
 1269BOLB   C1D30453  22.460  10.150  44.380
 1269BOLB   C2D30454  22.520  10.570  44.520
 1269BOLB   C3D30455  22.940  10.600  44.670
 1269BOLB   C4D30456  22.990  10.950  45.040
 1270BOLB   NC130457  13.520  17.490  31.420
 1270BOLB   PO130458  13.670  17.360  32.020
 1270BOLB   GL130459  13.250  17.250  31.930
 1270BOLB   GL230460  12.980  17.460  31.880
 1270BOLB   C1A30461  13.030  16.840  32.010
 1270BOLB   C2A30462  12.610  16.740  32.030
 1270BOLB   C3A30463  12.320  16.980  32.270
 1270BOLB   C4A30464  11.890  16.900  32.400
 1270BOLB   C1B30465  12.700  17.210  32.000
 1270BOLB   C2B30466  12.320  17.440  32.100
 1270BOLB   C3B30467  12.050  17.700  32.220
 1270BOLB   C4B30468  11.750  17.570  32.590
 1270BOLB   NC230469   9.470  16.920  31.640
 1270BOLB   PO230470   9.730  16.670  31.940
 1270BOLB   GL330471  10.120  16.610  31.950
 1270BOLB   GL430472  10.220  16.950  31.970
 1270BOLB   C1C30473  10.590  16.650  31.930
 1270BOLB   C2C30474  10.800  16.840  32.260
 1270BOLB   C3C30475  11.140  16.820  32.590
 1270BOLB   C4C30476  11.560  16.930  32.650
 1270BOLB   C1D30477  10.460  17.220  32.120
 1270BOLB   C2D30478  10.810  17.420  31.830
 1270BOLB   C3D30479  11.210  17.630  31.940
 1270BOLB   C4D30480  11.620  17.470  31.860
 1271BOLB   NC130481  28.945  16.160  36.470
 1271BOLB   PO130482  28.625  16.420  36.420
 1271BOLB   GL130483  28.875  16.730  36.430
 1271BOLB   GL230484  28.835  17.030  36.120
 1271BOLB   C1A30485  29.345  16.810  36.560
 1271BOLB   C2A30486  29.665  17.040  36.550
 1271BOLB   C3A30487  29.975  17.280  36.780
 1271BOLB   C4A30488  30.105  17.490  37.280
 1271BOLB   C1B30489  29.225  17.070  36.000
 1271BOLB   C2B30490  29.685  17.150  35.990
 1271BOLB   C3B30491  30.065  17.260  36.180
 1271BOLB   C4B30492  30.345  17.410  36.520
 1271BOLB   NC230493  31.635  18.080  37.820
 1271BOLB   PO230494  32.025  17.930  37.980
 1271BOLB   GL330495  31.885  17.530  37.820
 1271BOLB   GL430496  32.145  17.440  37.550
 1271BOLB   C1C30497  31.435  17.240  37.670
 1271BOLB   C2C30498  31.025  17.330  37.930
 1271BOLB   C3C30499  30.815  17.590  37.910
 1271BOLB   C4C30500  30.575  17.540  37.520
 1271BOLB   C1D30501  31.885  17.010  37.550
 1271BOLB   C2D30502  31.475  16.750  37.370
 1271BOLB   C3D30503  31.075  16.700  37.220
 1271BOLB   C4D30504  30.705  16.610  36.920
 1272BOLB   NC130505  16.800  23.350  24.460
 1272BOLB   PO130506  16.410  23.280  24.590
 1272BOLB   GL130507  16.150  23.600  24.340
 1272BOLB   GL230508  16.420  23.740  24.090
 1272BOLB   C1A30509  15.790  23.680  24.060
 1272BOLB   C2A30510  15.550  23.880  23.850
 1272BOLB   C3A30511  15.620  23.850  23.370
 1272BOLB   C4A30512  15.660  23.650  22.930
 1272BOLB   C1B30513  16.480  24.070  23.800
 1272BOLB   C2B30514  16.260  24.470  23.590
 1272BOLB   C3B30515  16.260  24.880  23.380
 1272BOLB   C4B30516  16.170  25.230  23.200
 1272BOLB   NC230517  14.520  25.040  21.440
 1272BOLB   PO230518  14.230  24.730  21.670
 1272BOLB   GL330519  14.630  24.490  21.800
 1272BOLB   GL430520  14.560  24.350  22.060
 1272BOLB   C1C30521  14.880  24.210  21.610
 1272BOLB   C2C30522  15.080  23.890  21.810
 1272BOLB   C3C30523  15.140  23.700  22.230
 1272BOLB   C4C30524  15.560  23.640  22.550
 1272BOLB   C1D30525  14.500  24.410  22.450
 1272BOLB   C2D30526  14.620  24.530  22.770
 1272BOLB   C3D30527  14.870  24.210  23.040
 1272BOLB   C4D30528  14.660  23.820  23.210
 1273BOLB   NC130529  28.135  15.670  32.430
 1273BOLB   PO130530  28.215  15.960  32.160
 1273BOLB   GL130531  28.585  16.220  32.350
 1273BOLB   GL230532  28.925  16.110  32.320
 1273BOLB   C1A30533  28.915  16.610  32.390
 1273BOLB   C2A30534  29.175  16.920  32.290
 1273BOLB   C3A30535  29.305  17.340  32.120
 1273BOLB   C4A30536  29.575  17.560  31.880
 1273BOLB   C1B30537  29.165  16.390  32.050
 1273BOLB   C2B30538  29.195  16.730  31.740
 1273BOLB   C3B30539  29.015  17.090  31.740
 1273BOLB   C4B30540  28.715  17.250  32.000
 1273BOLB   NC230541  30.215  19.970  31.890
 1273BOLB   PO230542  30.085  19.860  31.320
 1273BOLB   GL330543  29.885  19.480  31.250
 1273BOLB   GL430544  29.835  19.400  31.010
 1273BOLB   C1C30545  29.855  19.170  31.520
 1273BOLB   C2C30546  29.825  18.760  31.770
 1273BOLB   C3C30547  29.755  18.360  31.800
 1273BOLB   C4C30548  29.635  18.000  31.820
 1273BOLB   C1D30549  29.775  18.960  30.930
 1273BOLB   C2D30550  29.575  18.580  30.900
 1273BOLB   C3D30551  29.205  18.250  30.900
 1273BOLB   C4D30552  29.015  17.890  31.190
 1274BOLB   NC130553  20.880  12.910  22.350
 1274BOLB   PO130554  20.850  12.520  22.150
 1274BOLB   GL130555  20.680  12.160  22.060
 1274BOLB   GL230556  20.900  12.100  21.880
 1274BOLB   C1A30557  20.430  11.810  21.990
 1274BOLB   C2A30558  20.330  11.510  21.730
 1274BOLB   C3A30559  20.040  11.170  21.670
 1274BOLB   C4A30560  19.660  11.030  21.750
 1274BOLB   C1B30561  20.790  11.690  21.670
 1274BOLB   C2B30562  20.730  11.250  21.510
 1274BOLB   C3B30563  20.620  10.800  21.520
 1274BOLB   C4B30564  20.280  10.560  21.340
 1274BOLB   NC230565  19.700  10.520  19.640
 1274BOLB   PO230566  19.440  10.170  19.820
 1274BOLB   GL330567  19.510  10.350  20.130
 1274BOLB   GL430568  19.640  10.620  20.170
 1274BOLB   C1C30569  19.270  10.530  20.540
 1274BOLB   C2C30570  19.080  10.750  20.810
 1274BOLB   C3C30571  19.070  10.920  21.230
 1274BOLB   C4C30572  19.340  10.790  21.610
 1274BOLB   C1D30573  19.730  10.800  20.630
 1274BOLB   C2D30574  19.920  11.150  20.770
 1274BOLB   C3D30575  19.890  11.440  21.030
 1274BOLB   C4D30576  20.420  11.630  21.260
 1275BOLB   NC130577  17.650  23.960  37.450
 1275BOLB   PO130578  17.890  23.840  37.790
 1275BOLB   GL130579  18.200  24.080  38.090
 1275BOLB   GL230580  18.320  24.000  38.390
 1275BOLB   C1A30581  18.140  24.450  38.110
 1275BOLB   C2A30582  18.080  24.880  37.960
 1275BOLB   C3A30583  17.730  25.070  38.030
 1275BOLB   C4A30584  17.330  25.280  38.060
 1275BOLB   C1B30585  18.370  24.280  38.750
 1275BOLB   C2B30586  18.240  24.610  39.140
 1275BOLB   C3B30587  18.020  24.970  39.190
 1275BOLB   C4B30588  17.770  25.350  39.080
 1275BOLB   NC230589  16.210   0.600  39.540
 1275BOLB   PO230590  15.830   0.350  39.380
 1275BOLB   GL330591  16.040   0.220  38.940
 1275BOLB   GL430592  15.850   0.020  38.750
 1275BOLB   C1C30593  16.270  26.230  38.670
 1275BOLB   C2C30594  16.690  26.140  38.570
 1275BOLB   C3C30595  16.980  26.040  38.290
 1275BOLB   C4C30596  17.190  25.760  38.030
 1275BOLB   C1D30597  15.830  26.130  38.450
 1275BOLB   C2D30598  16.180  25.810  38.350
 1275BOLB   C3D30599  16.260  25.360  38.170
 1275BOLB   C4D30600  16.180  24.920  38.060
 1276BOLB   NC130601  18.550  24.870  33.470
 1276BOLB   PO130602  18.740  24.860  33.940
 1276BOLB   GL130603  18.900  25.180  34.030
 1276BOLB   GL230604  19.130  25.270  34.220
 1276BOLB   C1A30605  18.910  25.660  33.910
 1276BOLB   C2A30606  19.050  26.140  33.980
 1276BOLB   C3A30607  18.890   0.160  33.820
 1276BOLB   C4A30608  18.530   0.420  33.810
 1276BOLB   C1B30609  19.100  25.650  34.390
 1276BOLB   C2B30610  19.080  26.100  34.540
 1276BOLB   C3B30611  19.180   0.040  34.280
 1276BOLB   C4B30612  19.340   0.380  34.020
 1276BOLB   NC230613  17.310   2.560  32.860
 1276BOLB   PO230614  17.320   2.560  33.340
 1276BOLB   GL330615  17.540   2.230  33.400
 1276BOLB   GL430616  17.790   2.290  33.560
 1276BOLB   C1C30617  17.680   1.820  33.510
 1276BOLB   C2C30618  17.890   1.380  33.490
 1276BOLB   C3C30619  18.020   1.020  33.730
 1276BOLB   C4C30620  18.210   0.670  33.900
 1276BOLB   C1D30621  17.840   2.140  34.010
 1276BOLB   C2D30622  18.310   1.970  34.160
 1276BOLB   C3D30623  18.720   1.790  34.370
 1276BOLB   C4D30624  19.080   1.670  34.120
 1277BOLB   NC130625  23.440   8.320  30.650
 1277BOLB   PO130626  23.150   7.950  30.610
 1277BOLB   GL130627  22.860   7.550  30.670
 1277BOLB   GL230628  23.060   7.240  30.840
 1277BOLB   C1A30629  22.630   7.110  30.630
 1277BOLB   C2A30630  22.580   6.670  30.400
 1277BOLB   C3A30631  22.750   6.380  30.460
 1277BOLB   C4A30632  22.470   6.030  30.510
 1277BOLB   C1B30633  22.910   6.810  30.960
 1277BOLB   C2B30634  22.460   6.560  30.870
 1277BOLB   C3B30635  22.140   6.420  30.650
 1277BOLB   C4B30636  22.170   6.350  30.180
 1277BOLB   NC230637  21.810   3.830  30.920
 1277BOLB   PO230638  21.400   3.930  31.130
 1277BOLB   GL330639  21.700   4.370  31.120
 1277BOLB   GL430640  21.680   4.570  31.370
 1277BOLB   C1C30641  22.000   4.720  31.060
 1277BOLB   C2C30642  22.090   5.070  31.080
 1277BOLB   C3C30643  22.130   5.440  30.950
 1277BOLB   C4C30644  22.400   5.630  30.730
 1277BOLB   C1D30645  21.890   4.930  31.550
 1277BOLB   C2D30646  21.870   5.400  31.430
 1277BOLB   C3D30647  21.990   5.780  31.290
 1277BOLB   C4D30648  22.290   5.980  31.000
 1278BOLB   NC130649  17.000  11.600  35.760
 1278BOLB   PO130650  16.720  11.920  35.480
 1278BOLB   GL130651  16.400  11.780  35.380
 1278BOLB   GL230652  16.240  11.910  35.070
 1278BOLB   C1A30653  16.160  11.410  35.390
 1278BOLB   C2A30654  15.820  11.110  35.520
 1278BOLB   C3A30655  15.650  10.760  35.770
 1278BOLB   C4A30656  15.510  10.510  36.140
 1278BOLB   C1B30657  15.770  11.730  35.180
 1278BOLB   C2B30658  15.470  11.400  35.260
 1278BOLB   C3B30659  15.210  11.100  35.440
 1278BOLB   C4B30660  14.900  11.020  35.790
 1278BOLB   NC230661  13.870   8.770  35.350
 1278BOLB   PO230662  14.270   8.680  35.320
 1278BOLB   GL330663  14.490   8.970  35.560
 1278BOLB   GL430664  14.730   8.780  35.490
 1278BOLB   C1C30665  14.740   9.160  35.900
 1278BOLB   C2C30666  15.040   9.280  36.190
 1278BOLB   C3C30667  15.160   9.700  36.390
 1278BOLB   C4C30668  15.170  10.120  36.180
 1278BOLB   C1D30669  15.130   9.150  35.450
 1278BOLB   C2D30670  15.310   9.500  35.340
 1278BOLB   C3D30671  15.560   9.620  35.020
 1278BOLB   C4D30672  15.680  10.000  34.820
 1279BOLB   NC130673  20.990   8.580  33.930
 1279BOLB   PO130674  20.870   8.770  34.290
 1279BOLB   GL130675  20.840   8.350  34.360
 1279BOLB   GL230676  20.560   8.430  34.520
 1279BOLB   C1A30677  20.650   8.050  34.170
 1279BOLB   C2A30678  20.590   7.640  34.350
 1279BOLB   C3A30679  20.290   7.370  34.530
 1279BOLB   C4A30680  19.970   7.460  34.830
 1279BOLB   C1B30681  20.470   8.080  34.630
 1279BOLB   C2B30682  20.150   7.880  34.560
 1279BOLB   C3B30683  20.050   7.640  34.150
 1279BOLB   C4B30684  19.860   7.250  34.130
 1279BOLB   NC230685  17.810   5.610  35.510
 1279BOLB   PO230686  18.260   5.680  35.670
 1279BOLB   GL330687  18.530   6.130  35.620
 1279BOLB   GL430688  18.400   6.280  35.340
 1279BOLB   C1C30689  19.010   6.310  35.430
 1279BOLB   C2C30690  19.300   6.690  35.410
 1279BOLB   C3C30691  19.590   7.040  35.260
 1279BOLB   C4C30692  19.780   7.390  35.150
 1279BOLB   C1D30693  18.680   6.650  35.400
 1279BOLB   C2D30694  18.840   7.090  35.440
 1279BOLB   C3D30695  19.240   7.190  35.620
 1279BOLB   C4D30696  19.280   7.500  35.540
 1280BOLB   NC130697  19.930  22.090  40.580
 1280BOLB   PO130698  19.660  22.290  40.270
 1280BOLB   GL130699  19.550  22.400  40.750
 1280BOLB   GL230700  19.880  22.350  41.020
 1280BOLB   C1A30701  19.440  22.520  41.130
 1280BOLB   C2A30702  19.470  22.860  41.460
 1280BOLB   C3A30703  19.420  23.140  41.710
 1280BOLB   C4A30704  19.290  23.410  42.070
 1280BOLB   C1B30705  19.930  22.720  41.260
 1280BOLB   C2B30706  19.770  23.160  41.090
 1280BOLB   C3B30707  19.600  23.530  41.210
 1280BOLB   C4B30708  19.460  23.990  41.290
 1280BOLB   NC230709  19.230  24.740  43.820
 1280BOLB   PO230710  18.920  24.410  44.050
 1280BOLB   GL330711  19.020  24.270  43.640
 1280BOLB   GL430712  19.390  24.300  43.600
 1280BOLB   C1C30713  19.060  23.890  43.440
 1280BOLB   C2C30714  19.030  23.810  43.130
 1280BOLB   C3C30715  18.990  23.850  42.680
 1280BOLB   C4C30716  19.280  23.800  42.390
 1280BOLB   C1D30717  19.470  24.050  43.170
 1280BOLB   C2D30718  19.510  23.830  42.810
 1280BOLB   C3D30719  19.670  23.530  42.500
 1280BOLB   C4D30720  19.750  23.470  42.010
 1281BOLB   NC130721  15.220  14.770  37.650
 1281BOLB   PO130722  15.580  14.610  37.400
 1281BOLB   GL130723  15.260  14.350  37.370
 1281BOLB   GL230724  14.920  14.380  37.640
 1281BOLB   C1A30725  15.010  14.010  37.270
 1281BOLB   C2A30726  14.910  13.630  37.420
 1281BOLB   C3A30727  14.600  13.410  37.520
 1281BOLB   C4A30728  14.190  13.340  37.680
 1281BOLB   C1B30729  14.600  14.090  37.640
 1281BOLB   C2B30730  14.310  13.800  37.660
 1281BOLB   C3B30731  13.910  13.740  37.960
 1281BOLB   C4B30732  13.970  13.770  38.330
 1281BOLB   NC230733  12.350  11.980  37.660
 1281BOLB   PO230734  12.050  12.160  37.420
 1281BOLB   GL330735  12.420  12.370  37.330
 1281BOLB   GL430736  12.350  12.380  37.000
 1281BOLB   C1C30737  12.750  12.520  37.390
 1281BOLB   C2C30738  13.030  12.660  37.710
 1281BOLB   C3C30739  13.420  12.970  37.710
 1281BOLB   C4C30740  13.880  13.060  37.640
 1281BOLB   C1D30741  12.750  12.430  36.880
 1281BOLB   C2D30742  13.160  12.350  36.890
 1281BOLB   C3D30743  13.490  12.360  36.730
 1281BOLB   C4D30744  13.640  12.200  36.240
 1282BOLB   NC130745  25.830   9.190  27.130
 1282BOLB   PO130746  25.770   8.710  26.890
 1282BOLB   GL130747  25.930   8.150  26.810
 1282BOLB   GL230748  25.790   7.960  27.060
 1282BOLB   C1A30749  26.230   7.920  26.590
 1282BOLB   C2A30750  26.140   7.460  26.540
 1282BOLB   C3A30751  26.445   7.150  26.460
 1282BOLB   C4A30752  26.865   7.240  26.260
 1282BOLB   C1B30753  25.840   7.620  26.900
 1282BOLB   C2B30754  26.010   7.240  26.950
 1282BOLB   C3B30755  26.040   6.840  26.810
 1282BOLB   C4B30756  26.030   6.620  26.410
 1282BOLB   NC230757  28.485   6.140  25.370
 1282BOLB   PO230758  28.815   6.370  25.530
 1282BOLB   GL330759  28.445   6.290  25.840
 1282BOLB   GL430760  28.225   6.040  25.740
 1282BOLB   C1C30761  28.195   6.590  26.040
 1282BOLB   C2C30762  28.005   7.030  26.110
 1282BOLB   C3C30763  27.795   7.390  26.210
 1282BOLB   C4C30764  27.215   7.420  26.230
 1282BOLB   C1D30765  27.935   6.300  25.750
 1282BOLB   C2D30766  27.705   6.590  26.010
 1282BOLB   C3D30767  27.595   6.910  26.360
 1282BOLB   C4D30768  27.465   6.850  26.780
 1283BOLB   NC130769  22.810   7.820  30.020
 1283BOLB   PO130770  22.540   7.840  30.400
 1283BOLB   GL130771  22.440   7.440  30.300
 1283BOLB   GL230772  22.810   7.380  30.150
 1283BOLB   C1A30773  22.360   7.080  30.150
 1283BOLB   C2A30774  22.220   6.700  29.890
 1283BOLB   C3A30775  22.200   6.400  29.650
 1283BOLB   C4A30776  22.220   6.230  29.320
 1283BOLB   C1B30777  22.680   7.290  29.760
 1283BOLB   C2B30778  22.560   6.950  29.570
 1283BOLB   C3B30779  22.600   6.510  29.490
 1283BOLB   C4B30780  22.770   6.030  29.400
 1283BOLB   NC230781  22.060   4.250  27.470
 1283BOLB   PO230782  21.880   4.070  27.920
 1283BOLB   GL330783  21.850   4.580  28.040
 1283BOLB   GL430784  21.930   4.720  27.790
 1283BOLB   C1C30785  21.940   4.890  28.410
 1283BOLB   C2C30786  22.110   5.290  28.700
 1283BOLB   C3C30787  22.310   5.590  28.820
 1283BOLB   C4C30788  22.400   5.880  29.050
 1283BOLB   C1D30789  21.840   5.150  27.850
 1283BOLB   C2D30790  22.020   5.470  28.030
 1283BOLB   C3D30791  22.070   5.930  28.110
 1283BOLB   C4D30792  22.170   6.300  28.200
 1284BOLB   NC130793  20.820   8.680  30.290
 1284BOLB   PO130794  21.180   8.750  30.650
 1284BOLB   GL130795  20.740   8.410  30.680
 1284BOLB   GL230796  20.730   8.210  30.310
 1284BOLB   C1A30797  20.540   7.960  30.750
 1284BOLB   C2A30798  20.350   7.520  30.730
 1284BOLB   C3A30799  20.640   7.140  30.670
 1284BOLB   C4A30800  20.750   6.650  30.720
 1284BOLB   C1B30801  20.780   7.760  30.360
 1284BOLB   C2B30802  20.670   7.420  30.270
 1284BOLB   C3B30803  20.560   7.060  29.990
 1284BOLB   C4B30804  20.800   6.650  29.640
 1284BOLB   NC230805  21.400   4.230  31.500
 1284BOLB   PO230806  21.060   4.350  31.900
 1284BOLB   GL330807  21.300   4.720  31.740
 1284BOLB   GL430808  21.490   5.020  31.900
 1284BOLB   C1C30809  21.100   5.170  31.640
 1284BOLB   C2C30810  21.140   5.750  31.540
 1284BOLB   C3C30811  21.100   6.290  31.490
 1284BOLB   C4C30812  21.020   6.460  31.070
 1284BOLB   C1D30813  21.620   5.440  31.880
 1284BOLB   C2D30814  21.660   5.850  31.710
 1284BOLB   C3D30815  21.590   6.320  31.570
 1284BOLB   C4D30816  21.300   6.540  31.880
 1285BOLB   NC130817  24.600  20.420  40.340
 1285BOLB   PO130818  24.660  20.840  40.210
 1285BOLB   GL130819  24.840  21.200  40.390
 1285BOLB   GL230820  24.560  21.440  40.230
 1285BOLB   C1A30821  25.160  21.300  40.700
 1285BOLB   C2A30822  25.520  21.500  40.780
 1285BOLB   C3A30823  25.630  22.000  40.800
 1285BOLB   C4A30824  25.670  22.170  41.110
 1285BOLB   C1B30825  24.890  21.720  40.350
 1285BOLB   C2B30826  25.160  21.980  40.500
 1285BOLB   C3B30827  25.200  22.390  40.830
 1285BOLB   C4B30828  25.360  22.860  40.990
 1285BOLB   NC230829  27.065  23.940  41.500
 1285BOLB   PO230830  27.025  23.620  41.770
 1285BOLB   GL330831  26.625  23.680  41.530
 1285BOLB   GL430832  26.745  23.550  41.220
 1285BOLB   C1C30833  26.300  23.350  41.430
 1285BOLB   C2C30834  26.330  22.890  41.500
 1285BOLB   C3C30835  26.190  22.520  41.730
 1285BOLB   C4C30836  26.030  22.220  41.420
 1285BOLB   C1D30837  26.605  23.260  40.910
 1285BOLB   C2D30838  26.765  23.190  40.500
 1285BOLB   C3D30839  26.745  22.860  40.100
 1285BOLB   C4D30840  26.605  22.390  39.880
 1286BOLB   NC130841  19.610  13.320  22.980
 1286BOLB   PO130842  19.860  12.990  23.180
 1286BOLB   GL130843  19.470  12.840  22.910
 1286BOLB   GL230844  19.280  12.890  23.130
 1286BOLB   C1A30845  19.390  12.870  22.470
 1286BOLB   C2A30846  19.030  12.790  22.250
 1286BOLB   C3A30847  18.670  12.580  22.160
 1286BOLB   C4A30848  18.420  12.140  22.160
 1286BOLB   C1B30849  19.090  12.500  22.990
 1286BOLB   C2B30850  18.740  12.310  22.750
 1286BOLB   C3B30851  18.820  12.180  22.380
 1286BOLB   C4B30852  18.720  11.700  22.140
 1286BOLB   NC230853  17.220  10.660  20.460
 1286BOLB   PO230854  17.520  10.680  20.390
 1286BOLB   GL330855  17.710  11.020  20.680
 1286BOLB   GL430856  18.010  10.890  20.940
 1286BOLB   C1C30857  17.740  11.460  20.850
 1286BOLB   C2C30858  17.820  11.600  21.220
 1286BOLB   C3C30859  17.820  11.650  21.730
 1286BOLB   C4C30860  18.060  11.950  21.910
 1286BOLB   C1D30861  18.270  10.760  21.250
 1286BOLB   C2D30862  18.480  11.060  21.350
 1286BOLB   C3D30863  18.840  11.300  21.520
 1286BOLB   C4D30864  18.900  11.680  21.630
 1287BOLB   NC130865  14.130  18.150  28.990
 1287BOLB   PO130866  13.940  18.140  28.630
 1287BOLB   GL130867  13.470  18.080  28.460
 1287BOLB   GL230868  13.230  18.110  28.090
 1287BOLB   C1A30869  13.010  17.860  28.430
 1287BOLB   C2A30870  12.570  18.020  28.470
 1287BOLB   C3A30871  12.120  17.920  28.280
 1287BOLB   C4A30872  11.720  17.710  28.240
 1287BOLB   C1B30873  12.930  17.880  27.860
 1287BOLB   C2B30874  12.500  17.890  27.930
 1287BOLB   C3B30875  12.380  17.830  27.540
 1287BOLB   C4B30876  12.280  18.070  27.240
 1287BOLB   NC230877  10.760  15.370  28.350
 1287BOLB   PO230878  10.510  15.720  28.510
 1287BOLB   GL330879  10.620  16.170  28.440
 1287BOLB   GL430880  10.890  16.220  28.290
 1287BOLB   C1C30881  10.860  16.440  28.700
 1287BOLB   C2C30882  11.150  16.710  28.900
 1287BOLB   C3C30883  11.260  17.010  28.600
 1287BOLB   C4C30884  11.470  17.390  28.370
 1287BOLB   C1D30885  11.280  16.320  28.550
 1287BOLB   C2D30886  11.580  16.650  28.660
 1287BOLB   C3D30887  11.990  16.740  28.630
 1287BOLB   C4D30888  12.340  17.000  28.570
 1288BOLB   NC130889  23.120  10.730  23.920
 1288BOLB   PO130890  22.710  10.440  23.660
 1288BOLB   GL130891  22.610  10.140  23.480
 1288BOLB   GL230892  22.720  10.280  23.140
 1288BOLB   C1A30893  22.480   9.710  23.300
 1288BOLB   C2A30894  22.410   9.260  23.490
 1288BOLB   C3A30895  22.540   8.930  23.270
 1288BOLB   C4A30896  22.730   8.710  22.890
 1288BOLB   C1B30897  22.530  10.450  22.730
 1288BOLB   C2B30898  22.350  10.250  22.430
 1288BOLB   C3B30899  22.110  10.470  22.170
 1288BOLB   C4B30900  21.920  10.370  21.840
 1288BOLB   NC230901  23.480   6.770  21.660
 1288BOLB   PO230902  23.520   7.160  21.680
 1288BOLB   GL330903  23.540   7.450  21.920
 1288BOLB   GL430904  23.640   7.400  22.320
 1288BOLB   C1C30905  23.130   7.610  22.100
 1288BOLB   C2C30906  22.910   7.820  22.330
 1288BOLB   C3C30907  22.830   8.250  22.300
 1288BOLB   C4C30908  22.850   8.580  22.470
 1288BOLB   C1D30909  23.800   7.720  22.230
 1288BOLB   C2D30910  23.550   7.950  22.020
 1288BOLB   C3D30911  23.460   8.080  21.610
 1288BOLB   C4D30912  23.620   8.250  21.340
 1289BOLB   NC130913  24.800  15.230  22.030
 1289BOLB   PO130914  24.500  15.250  21.730
 1289BOLB   GL130915  24.590  15.370  21.340
 1289BOLB   GL230916  24.600  15.700  21.200
 1289BOLB   C1A30917  24.750  15.270  20.930
 1289BOLB   C2A30918  24.940  15.270  20.500
 1289BOLB   C3A30919  25.070  14.980  20.190
 1289BOLB   C4A30920  25.240  14.800  19.870
 1289BOLB   C1B30921  24.250  15.810  20.880
 1289BOLB   C2B30922  24.080  16.020  20.650
 1289BOLB   C3B30923  24.100  16.460  20.520
 1289BOLB   C4B30924  24.250  16.780  20.330
 1289BOLB   NC230925  27.215  16.010  19.030
 1289BOLB   PO230926  26.985  15.750  18.750
 1289BOLB   GL330927  26.575  15.780  18.930
 1289BOLB   GL430928  26.350  15.570  18.760
 1289BOLB   C1C30929  26.220  15.810  19.250
 1289BOLB   C2C30930  25.930  15.700  19.430
 1289BOLB   C3C30931  25.700  15.420  19.630
 1289BOLB   C4C30932  25.650  15.090  19.820
 1289BOLB   C1D30933  26.180  15.220  19.070
 1289BOLB   C2D30934  25.790  15.120  19.240
 1289BOLB   C3D30935  25.400  15.030  19.430
 1289BOLB   C4D30936  25.160  14.730  19.310
 1290BOLB   NC130937  21.710   9.050  34.830
 1290BOLB   PO130938  21.840   8.770  35.200
 1290BOLB   GL130939  21.610   8.320  35.290
 1290BOLB   GL230940  21.750   8.090  35.510
 1290BOLB   C1A30941  21.240   7.970  35.240
 1290BOLB   C2A30942  21.060   7.450  35.220
 1290BOLB   C3A30943  21.030   7.020  35.420
 1290BOLB   C4A30944  20.980   6.560  35.520
 1290BOLB   C1B30945  21.680   7.770  35.850
 1290BOLB   C2B30946  21.420   7.550  35.990
 1290BOLB   C3B30947  21.030   7.340  35.800
 1290BOLB   C4B30948  20.720   6.950  35.820
 1290BOLB   NC230949  20.880   4.200  35.790
 1290BOLB   PO230950  20.600   4.410  35.940
 1290BOLB   GL330951  20.890   4.690  35.940
 1290BOLB   GL430952  21.170   4.600  35.950
 1290BOLB   C1C30953  20.660   5.110  36.040
 1290BOLB   C2C30954  20.930   5.530  36.110
 1290BOLB   C3C30955  20.980   5.870  35.830
 1290BOLB   C4C30956  21.150   6.240  35.780
 1290BOLB   C1D30957  21.280   5.080  36.040
 1290BOLB   C2D30958  21.380   5.520  36.160
 1290BOLB   C3D30959  21.490   5.850  35.970
 1290BOLB   C4D30960  21.660   6.220  35.660
 1291BOLB   NC130961  22.000   9.720  24.810
 1291BOLB   PO130962  21.680  10.000  24.760
 1291BOLB   GL130963  21.540   9.910  24.410
 1291BOLB   GL230964  21.750   9.650  24.330
 1291BOLB   C1A30965  21.350   9.700  23.960
 1291BOLB   C2A30966  20.960   9.460  23.790
 1291BOLB   C3A30967  20.680   9.390  23.590
 1291BOLB   C4A30968  20.460   9.010  23.630
 1291BOLB   C1B30969  21.490   9.260  24.190
 1291BOLB   C2B30970  21.320   9.030  23.930
 1291BOLB   C3B30971  21.490   8.790  23.490
 1291BOLB   C4B30972  21.910   8.560  23.300
 1291BOLB   NC230973  18.840   7.510  23.010
 1291BOLB   PO230974  18.800   7.230  23.320
 1291BOLB   GL330975  19.040   7.590  23.430
 1291BOLB   GL430976  18.870   7.910  23.360
 1291BOLB   C1C30977  19.440   7.820  23.380
 1291BOLB   C2C30978  19.850   7.870  23.370
 1291BOLB   C3C30979  20.180   8.170  23.390
 1291BOLB   C4C30980  20.440   8.520  23.500
 1291BOLB   C1D30981  18.990   8.340  23.180
 1291BOLB   C2D30982  18.930   8.760  23.090
 1291BOLB   C3D30983  19.160   9.090  23.020
 1291BOLB   C4D30984  19.050   9.440  23.320
 1292BOLB   NC130985  13.380   9.470  31.130
 1292BOLB   PO130986  13.810   9.470  31.140
 1292BOLB   GL130987  14.100   9.820  30.950
 1292BOLB   GL230988  14.340   9.570  30.770
 1292BOLB   C1A30989  14.210  10.210  30.790
 1292BOLB   C2A30990  14.160  10.720  30.910
 1292BOLB   C3A30991  14.430  11.060  30.700
 1292BOLB   C4A30992  14.780  11.350  30.500
 1292BOLB   C1B30993  14.640   9.910  30.920
 1292BOLB   C2B30994  14.990  10.170  30.980
 1292BOLB   C3B30995  15.220  10.380  31.290
 1292BOLB   C4B30996  15.090  10.790  31.330
 1292BOLB   NC230997  16.400  12.790  30.630
 1292BOLB   PO230998  16.730  12.410  30.490
 1292BOLB   GL330999  16.500  12.080  30.420
 1292BOLB   GL431000  16.520  11.800  30.680
 1292BOLB   C1C31001  16.210  11.860  30.190
 1292BOLB   C2C31002  15.800  11.710  30.080
 1292BOLB   C3C31003  15.550  11.410  30.230
 1292BOLB   C4C31004  15.170  11.380  30.380
 1292BOLB   C1D31005  16.420  11.420  30.730
 1292BOLB   C2D31006  16.050  11.190  30.880
 1292BOLB   C3D31007  15.890  10.910  30.580
 1292BOLB   C4D31008  15.410  10.880  30.310
 1293BOLB   NC131009  15.660  19.730  39.440
 1293BOLB   PO131010  15.300  19.670  39.390
 1293BOLB   GL131011  14.810  19.570  39.430
 1293BOLB   GL231012  14.640  19.320  39.260
 1293BOLB   C1A31013  14.530  19.690  39.750
 1293BOLB   C2A31014  14.060  19.780  39.690
 1293BOLB   C3A31015  13.650  19.940  39.560
 1293BOLB   C4A31016  13.320  20.260  39.280
 1293BOLB   C1B31017  14.270  19.390  39.460
 1293BOLB   C2B31018  14.180  19.310  39.850
 1293BOLB   C3B31019  14.390  19.520  40.200
 1293BOLB   C4B31020  14.370  19.430  40.640
 1293BOLB   NC231021  11.160  20.960  39.440
 1293BOLB   PO231022  11.000  20.660  39.070
 1293BOLB   GL331023  11.370  20.450  38.860
 1293BOLB   GL431024  11.250  20.190  38.770
 1293BOLB   C1C31025  11.750  20.260  39.020
 1293BOLB   C2C31026  12.040  20.240  39.360
 1293BOLB   C3C31027  12.420  20.410  39.500
 1293BOLB   C4C31028  12.870  20.490  39.310
 1293BOLB   C1D31029  11.690  19.970  38.640
 1293BOLB   C2D31030  11.940  19.690  38.390
 1293BOLB   C3D31031  12.400  19.420  38.390
 1293BOLB   C4D31032  12.720  19.300  38.640
 1294BOLB   NC131033  28.295  14.910  28.790
 1294BOLB   PO131034  28.655  15.030  28.540
 1294BOLB   GL131035  29.075  15.240  28.620
 1294BOLB   GL231036  29.065  15.600  28.450
 1294BOLB   C1A31037  29.455  15.170  28.830
 1294BOLB   C2A31038  29.935  15.160  28.900
 1294BOLB   C3A31039  30.375  15.450  28.880
 1294BOLB   C4A31040  30.785  15.280  28.870
 1294BOLB   C1B31041  29.385  15.960  28.380
 1294BOLB   C2B31042  29.665  16.260  28.190
 1294BOLB   C3B31043  30.025  16.380  28.040
 1294BOLB   C4B31044  30.415  16.570  28.130
 1294BOLB   NC231045  32.485  16.100  27.420
 1294BOLB   PO231046  32.365  16.560  27.550
 1294BOLB   GL331047  32.215  16.330  27.850
 1294BOLB   GL431048  32.225  15.990  27.850
 1294BOLB   C1C31049  31.805  16.270  28.000
 1294BOLB   C2C31050  31.545  15.880  28.190
 1294BOLB   C3C31051  31.535  15.560  28.430
 1294BOLB   C4C31052  31.155  15.340  28.580
 1294BOLB   C1D31053  32.105  15.880  28.330
 1294BOLB   C2D31054  31.875  15.920  28.760
 1294BOLB   C3D31055  31.615  15.540  28.940
 1294BOLB   C4D31056  31.185  15.560  29.050
 1295BOLB   NC131057  21.120  10.800  24.950
 1295BOLB   PO131058  20.760  10.720  24.700
 1295BOLB   GL131059  20.420  10.340  24.710
 1295BOLB   GL231060  20.640  10.090  24.490
 1295BOLB   C1A31061  19.950  10.290  24.560
 1295BOLB   C2A31062  19.700   9.970  24.460
 1295BOLB   C3A31063  19.820   9.590  24.550
 1295BOLB   C4A31064  19.560   9.240  24.550
 1295BOLB   C1B31065  20.300   9.910  24.290
 1295BOLB   C2B31066  19.910   9.820  24.050
 1295BOLB   C3B31067  19.580   9.550  24.020
 1295BOLB   C4B31068  19.060   9.420  23.990
 1295BOLB   NC231069  18.540   6.750  24.110
 1295BOLB   PO231070  18.210   7.030  23.980
 1295BOLB   GL331071  18.430   7.420  24.030
 1295BOLB   GL431072  18.640   7.500  23.720
 1295BOLB   C1C31073  18.640   7.840  24.140
 1295BOLB   C2C31074  18.890   8.190  24.160
 1295BOLB   C3C31075  19.120   8.580  24.310
 1295BOLB   C4C31076  19.140   9.030  24.380
 1295BOLB   C1D31077  19.030   7.910  23.810
 1295BOLB   C2D31078  19.190   8.250  23.660
 1295BOLB   C3D31079  19.410   8.620  23.830
 1295BOLB   C4D31080  19.440   9.040  23.930
 1296BOLB   NC131081  29.565  11.160  34.560
 1296BOLB   PO131082  29.865  11.020  34.930
 1296BOLB   GL131083  30.235  10.940  34.770
 1296BOLB   GL231084  30.265  10.570  34.740
 1296BOLB   C1A31085  30.645  10.920  34.650
 1296BOLB   C2A31086  30.985  11.150  34.600
 1296BOLB   C3A31087  31.385  11.300  34.830
 1296BOLB   C4A31088  31.505  11.700  35.020
 1296BOLB   C1B31089  30.555  10.580  34.980
 1296BOLB   C2B31090  30.785  10.560  35.360
 1296BOLB   C3B31091  30.675  10.260  35.670
 1296BOLB   C4B31092  30.875  10.200  36.060
 1296BOLB   NC231093  33.385  10.610  35.010
 1296BOLB   PO231094  33.615  10.890  35.190
 1296BOLB   GL331095  33.225  10.990  35.330
 1296BOLB   GL431096  33.205  10.720  35.600
 1296BOLB   C1C31097  32.825  11.230  35.370
 1296BOLB   C2C31098  32.415  11.180  35.550
 1296BOLB   C3C31099  32.135  11.420  35.600
 1296BOLB   C4C31100  31.875  11.830  35.320
 1296BOLB   C1D31101  32.775  10.710  35.540
 1296BOLB   C2D31102  32.365  10.680  35.320
 1296BOLB   C3D31103  31.975  10.570  35.040
 1296BOLB   C4D31104  31.935  10.360  34.670
 1297BOLB   NC131105  21.290  19.950  22.150
 1297BOLB   PO131106  20.850  20.030  22.070
 1297BOLB   GL131107  20.850  20.280  21.770
 1297BOLB   GL231108  21.190  20.410  21.770
 1297BOLB   C1A31109  20.920  20.230  21.400
 1297BOLB   C2A31110  20.890  20.470  21.090
 1297BOLB   C3A31111  20.980  20.750  20.760
 1297BOLB   C4A31112  20.780  20.960  20.430
 1297BOLB   C1B31113  21.210  20.800  21.990
 1297BOLB   C2B31114  21.510  21.140  22.110
 1297BOLB   C3B31115  21.840  21.430  22.000
 1297BOLB   C4B31116  22.260  21.270  21.970
 1297BOLB   NC231117  21.300  22.750  19.160
 1297BOLB   PO231118  21.530  22.570  18.810
 1297BOLB   GL331119  21.460  22.190  19.090
 1297BOLB   GL431120  21.630  22.040  19.420
 1297BOLB   C1C31121  21.310  21.830  19.130
 1297BOLB   C2C31122  21.170  21.610  19.490
 1297BOLB   C3C31123  20.900  21.530  19.770
 1297BOLB   C4C31124  20.740  21.340  20.150
 1297BOLB   C1D31125  21.510  21.870  19.800
 1297BOLB   C2D31126  21.530  21.490  19.990
 1297BOLB   C3D31127  21.420  21.400  20.400
 1297BOLB   C4D31128  21.340  21.080  20.610
 1298BOLB   NC131129  25.080   7.390  31.730
 1298BOLB   PO131130  24.990   7.670  32.150
 1298BOLB   GL131131  24.740   7.260  32.120
 1298BOLB   GL231132  24.830   6.940  32.020
 1298BOLB   C1A31133  24.450   6.750  32.250
 1298BOLB   C2A31134  24.110   6.460  32.170
 1298BOLB   C3A31135  24.000   5.960  31.950
 1298BOLB   C4A31136  24.150   5.510  31.960
 1298BOLB   C1B31137  25.190   6.710  32.260
 1298BOLB   C2B31138  25.370   6.290  32.110
 1298BOLB   C3B31139  25.130   5.980  32.020
 1298BOLB   C4B31140  24.730   5.880  31.910
 1298BOLB   NC231141  23.900   3.390  31.660
 1298BOLB   PO231142  24.350   3.210  31.720
 1298BOLB   GL331143  24.290   3.690  31.800
 1298BOLB   GL431144  24.230   3.830  32.050
 1298BOLB   C1C31145  24.440   4.150  31.740
 1298BOLB   C2C31146  24.520   4.570  31.650
 1298BOLB   C3C31147  24.740   4.990  31.640
 1298BOLB   C4C31148  24.630   5.370  31.730
 1298BOLB   C1D31149  23.940   3.800  32.400
 1298BOLB   C2D31150  23.890   4.080  32.760
 1298BOLB   C3D31151  24.110   4.520  32.820
 1298BOLB   C4D31152  23.840   4.890  33.040
 1299BOLB   NC131153  27.595  16.910  34.460
 1299BOLB   PO131154  27.555  17.200  34.740
 1299BOLB   GL131155  28.015  17.440  34.790
 1299BOLB   GL231156  28.055  17.900  34.790
 1299BOLB   C1A31157  28.405  17.470  34.940
 1299BOLB   C2A31158  28.635  17.660  35.180
 1299BOLB   C3A31159  29.075  17.710  35.270
 1299BOLB   C4A31160  29.475  17.770  35.180
 1299BOLB   C1B31161  28.265  18.220  34.570
 1299BOLB   C2B31162  28.065  18.640  34.580
 1299BOLB   C3B31163  28.135  18.980  34.640
 1299BOLB   C4B31164  28.475  19.290  34.670
 1299BOLB   NC231165  32.115  18.760  35.140
 1299BOLB   PO231166  31.735  18.820  35.240
 1299BOLB   GL331167  31.335  18.710  35.190
 1299BOLB   GL431168  31.335  18.400  35.330
 1299BOLB   C1C31169  30.855  18.690  35.050
 1299BOLB   C2C31170  30.435  18.420  35.120
 1299BOLB   C3C31171  30.125  18.160  35.110
 1299BOLB   C4C31172  29.785  17.900  35.200
 1299BOLB   C1D31173  31.035  18.230  35.530
 1299BOLB   C2D31174  30.605  18.020  35.480
 1299BOLB   C3D31175  30.175  17.850  35.570
 1299BOLB   C4D31176  29.785  17.710  35.630
 1300BOLB   NC131177  23.090  13.150  42.360
 1300BOLB   PO131178  22.690  13.260  42.530
 1300BOLB   GL131179  22.610  13.190  42.880
 1300BOLB   GL231180  22.510  12.800  42.780
 1300BOLB   C1A31181  22.560  13.050  43.330
 1300BOLB   C2A31182  22.410  12.960  43.760
 1300BOLB   C3A31183  22.080  12.860  44.120
 1300BOLB   C4A31184  21.650  12.910  44.330
 1300BOLB   C1B31185  22.520  12.590  43.120
 1300BOLB   C2B31186  22.250  12.230  43.270
 1300BOLB   C3B31187  22.450  11.830  43.340
 1300BOLB   C4B31188  22.920  11.700  43.400
 1300BOLB   NC231189  20.750  11.200  45.350
 1300BOLB   PO231190  20.780  11.610  45.580
 1300BOLB   GL331191  20.730  11.790  45.140
 1300BOLB   GL431192  20.500  11.590  44.960
 1300BOLB   C1C31193  20.920  11.700  44.630
 1300BOLB   C2C31194  21.000  11.860  44.290
 1300BOLB   C3C31195  21.090  12.250  44.050
 1300BOLB   C4C31196  21.340  12.670  44.150
 1300BOLB   C1D31197  20.450  11.600  44.460
 1300BOLB   C2D31198  20.240  11.840  44.150
 1300BOLB   C3D31199  20.260  12.090  43.760
 1300BOLB   C4D31200  20.410  12.050  43.310
 1301BOLB   NC131201  27.515  13.810  40.550
 1301BOLB   PO131202  27.355  13.830  40.960
 1301BOLB   GL131203  27.655  13.970  41.210
 1301BOLB   GL231204  27.505  14.180  41.350
 1301BOLB   C1A31205  28.095  13.960  41.380
 1301BOLB   C2A31206  28.295  13.730  41.770
 1301BOLB   C3A31207  28.245  13.530  42.160
 1301BOLB   C4A31208  28.535  13.340  42.390
 1301BOLB   C1B31209  27.725  13.930  41.750
 1301BOLB   C2B31210  27.705  13.710  42.140
 1301BOLB   C3B31211  27.375  13.570  42.380
 1301BOLB   C4B31212  27.095  13.350  42.150
 1301BOLB   NC231213  29.365  11.550  44.200
 1301BOLB   PO231214  29.255  11.880  43.920
 1301BOLB   GL331215  28.955  11.860  43.650
 1301BOLB   GL431216  28.655  11.800  43.710
 1301BOLB   C1C31217  28.995  12.090  43.330
 1301BOLB   C2C31218  28.855  12.450  43.070
 1301BOLB   C3C31219  28.965  12.840  42.850
 1301BOLB   C4C31220  28.675  13.200  42.760
 1301BOLB   C1D31221  28.275  11.700  43.560
 1301BOLB   C2D31222  28.115  11.310  43.350
 1301BOLB   C3D31223  28.015  10.830  43.110
 1301BOLB   C4D31224  27.835  10.480  43.210
 1302BOLB   NC131225  25.480   7.220  33.220
 1302BOLB   PO131226  25.350   7.300  33.620
 1302BOLB   GL131227  25.210   6.880  33.510
 1302BOLB   GL231228  25.410   6.760  33.550
 1302BOLB   C1A31229  25.020   6.480  33.600
 1302BOLB   C2A31230  25.050   6.010  33.570
 1302BOLB   C3A31231  25.500   5.710  33.710
 1302BOLB   C4A31232  25.570   5.350  33.670
 1302BOLB   C1B31233  25.650   6.450  33.630
 1302BOLB   C2B31234  25.990   6.220  33.860
 1302BOLB   C3B31235  25.820   5.900  34.090
 1302BOLB   C4B31236  25.800   5.480  34.170
 1302BOLB   NC231237  26.050   3.250  33.230
 1302BOLB   PO231238  26.220   3.090  33.690
 1302BOLB   GL331239  26.150   3.590  33.660
 1302BOLB   GL431240  26.475   3.830  33.520
 1302BOLB   C1C31241  25.950   3.930  33.540
 1302BOLB   C2C31242  25.860   4.330  33.530
 1302BOLB   C3C31243  26.000   4.760  33.720
 1302BOLB   C4C31244  25.950   5.190  33.600
 1302BOLB   C1D31245  26.575   4.250  33.560
 1302BOLB   C2D31246  26.505   4.640  33.830
 1302BOLB   C3D31247  26.410   5.050  33.950
 1302BOLB   C4D31248  26.270   5.470  33.870
 1303BOLB   NC131249  22.230  16.170  43.350
 1303BOLB   PO131250  21.840  15.950  43.480
 1303BOLB   GL131251  21.600  15.890  43.860
 1303BOLB   GL231252  21.290  15.900  43.740
 1303BOLB   C1A31253  21.670  15.680  44.270
 1303BOLB   C2A31254  21.380  15.430  44.600
 1303BOLB   C3A31255  21.180  15.240  45.010
 1303BOLB   C4A31256  20.800  15.170  45.110
 1303BOLB   C1B31257  21.150  15.820  44.110
 1303BOLB   C2B31258  21.000  16.060  44.510
 1303BOLB   C3B31259  20.970  16.260  45.000
 1303BOLB   C4B31260  20.980  16.030  45.440
 1303BOLB   NC231261  19.490  15.780  47.500
 1303BOLB   PO231262  19.930  15.840  47.280
 1303BOLB   GL331263  19.830  15.790  46.840
 1303BOLB   GL431264  19.920  16.120  46.760
 1303BOLB   C1C31265  19.780  15.660  46.370
 1303BOLB   C2C31266  19.820  15.560  45.800
 1303BOLB   C3C31267  20.040  15.550  45.410
 1303BOLB   C4C31268  20.380  15.450  45.110
 1303BOLB   C1D31269  20.260  16.020  46.600
 1303BOLB   C2D31270  20.510  15.970  46.270
 1303BOLB   C3D31271  20.660  16.280  45.940
 1303BOLB   C4D31272  20.790  16.650  45.750
 1304BOLB   NC131273  13.160  20.080  28.830
 1304BOLB   PO131274  13.070  20.400  29.080
 1304BOLB   GL131275  12.620  20.320  28.970
 1304BOLB   GL231276  12.750  20.340  28.640
 1304BOLB   C1A31277  12.220  20.550  29.090
 1304BOLB   C2A31278  11.960  20.730  28.900
 1304BOLB   C3A31279  11.780  21.170  28.810
 1304BOLB   C4A31280  11.450  21.370  28.700
 1304BOLB   C1B31281  12.440  20.660  28.470
 1304BOLB   C2B31282  12.260  21.030  28.520
 1304BOLB   C3B31283  12.270  21.380  28.080
 1304BOLB   C4B31284  12.440  21.750  27.970
 1304BOLB   NC231285   9.170  21.850  27.800
 1304BOLB   PO231286   9.500  22.030  27.890
 1304BOLB   GL331287   9.890  22.000  27.660
 1304BOLB   GL431288   9.860  21.720  27.700
 1304BOLB   C1C31289  10.360  21.730  27.580
 1304BOLB   C2C31290  10.650  21.620  27.800
 1304BOLB   C3C31291  10.710  21.550  28.270
 1304BOLB   C4C31292  11.120  21.440  28.400
 1304BOLB   C1D31293  10.210  21.720  28.060
 1304BOLB   C2D31294  10.280  21.830  28.420
 1304BOLB   C3D31295  10.540  21.900  28.710
 1304BOLB   C4D31296  10.940  21.670  28.800
 1305BOLB   NC131297  24.300  20.040  34.280
 1305BOLB   PO131298  24.680  20.160  34.570
 1305BOLB   GL131299  25.000  20.160  34.250
 1305BOLB   GL231300  25.000  20.470  34.150
 1305BOLB   C1A31301  25.280  20.320  33.800
 1305BOLB   C2A31302  25.340  20.720  33.700
 1305BOLB   C3A31303  25.580  20.890  33.490
 1305BOLB   C4A31304  25.820  21.070  33.130
 1305BOLB   C1B31305  25.390  20.690  34.200
 1305BOLB   C2B31306  25.700  20.990  33.970
 1305BOLB   C3B31307  26.090  21.150  34.050
 1305BOLB   C4B31308  26.250  21.580  34.300
 1305BOLB   NC231309  27.315  21.980  30.730
 1305BOLB   PO231310  26.965  22.020  31.100
 1305BOLB   GL331311  26.655  22.020  31.490
 1305BOLB   GL431312  26.320  22.120  31.480
 1305BOLB   C1C31313  26.495  22.000  31.900
 1305BOLB   C2C31314  26.420  21.820  32.240
 1305BOLB   C3C31315  26.390  21.500  32.630
 1305BOLB   C4C31316  26.110  21.380  33.060
 1305BOLB   C1D31317  25.940  21.990  31.410
 1305BOLB   C2D31318  25.660  21.600  31.470
 1305BOLB   C3D31319  25.410  21.270  31.340
 1305BOLB   C4D31320  25.200  20.840  31.510
 1306BOLB   NC131321  22.640  19.580  22.770
 1306BOLB   PO131322  23.050  19.710  23.000
 1306BOLB   GL131323  23.440  19.870  22.750
 1306BOLB   GL231324  23.560  19.810  23.000
 1306BOLB   C1A31325  23.680  19.960  22.470
 1306BOLB   C2A31326  23.750  19.950  22.080
 1306BOLB   C3A31327  23.570  20.180  21.830
 1306BOLB   C4A31328  23.370  20.190  21.440
 1306BOLB   C1B31329  23.860  20.040  22.960
 1306BOLB   C2B31330  24.170  20.220  22.860
 1306BOLB   C3B31331  24.330  20.610  22.710
 1306BOLB   C4B31332  24.290  20.670  22.370
 1306BOLB   NC231333  24.500  22.340  20.310
 1306BOLB   PO231334  24.600  22.000  20.290
 1306BOLB   GL331335  24.410  21.700  20.470
 1306BOLB   GL431336  24.460  21.560  20.760
 1306BOLB   C1C31337  23.970  21.460  20.670
 1306BOLB   C2C31338  23.630  21.470  21.010
 1306BOLB   C3C31339  23.510  21.120  21.350
 1306BOLB   C4C31340  23.400  20.670  21.440
 1306BOLB   C1D31341  24.360  21.100  20.940
 1306BOLB   C2D31342  24.390  20.780  21.160
 1306BOLB   C3D31343  24.440  20.760  21.560
 1306BOLB   C4D31344  24.520  20.440  21.880
 1307BOLB   NC131345  15.500  20.740  38.300
 1307BOLB   PO131346  15.060  20.510  38.200
 1307BOLB   GL131347  14.800  20.760  38.300
 1307BOLB   GL231348  14.690  20.730  38.630
 1307BOLB   C1A31349  14.670  21.080  38.300
 1307BOLB   C2A31350  14.420  21.470  38.290
 1307BOLB   C3A31351  14.220  21.850  38.440
 1307BOLB   C4A31352  13.810  22.010  38.710
 1307BOLB   C1B31353  14.300  20.540  38.820
 1307BOLB   C2B31354  13.910  20.580  38.890
 1307BOLB   C3B31355  13.590  20.440  38.870
 1307BOLB   C4B31356  13.580  20.010  38.970
 1307BOLB   NC231357  11.940  22.240  40.460
 1307BOLB   PO231358  11.700  21.940  40.110
 1307BOLB   GL331359  12.060  21.850  39.880
 1307BOLB   GL431360  12.280  21.600  39.850
 1307BOLB   C1C31361  12.290  21.960  39.500
 1307BOLB   C2C31362  12.730  21.880  39.390
 1307BOLB   C3C31363  13.090  21.760  39.200
 1307BOLB   C4C31364  13.420  22.030  38.950
 1307BOLB   C1D31365  12.790  21.450  39.710
 1307BOLB   C2D31366  13.110  21.280  39.690
 1307BOLB   C3D31367  13.440  21.490  39.590
 1307BOLB   C4D31368  13.880  21.550  39.500
 1308BOLB   NC131369  24.340  21.640  35.720
 1308BOLB   PO131370  24.080  21.300  35.590
 1308BOLB   GL131371  24.600  21.480  35.320
 1308BOLB   GL231372  24.880  21.280  35.290
 1308BOLB   C1A31373  24.930  21.730  35.090
 1308BOLB   C2A31374  25.080  21.990  34.710
 1308BOLB   C3A31375  25.370  22.330  34.690
 1308BOLB   C4A31376  25.870  22.430  34.640
 1308BOLB   C1B31377  25.210  21.340  34.940
 1308BOLB   C2B31378  25.470  21.660  34.740
 1308BOLB   C3B31379  25.830  21.850  34.730
 1308BOLB   C4B31380  26.230  21.820  34.830
 1308BOLB   NC231381  27.955  23.900  34.550
 1308BOLB   PO231382  27.715  23.580  34.410
 1308BOLB   GL331383  27.365  23.520  34.510
 1308BOLB   GL431384  27.145  23.580  34.200
 1308BOLB   C1C31385  27.225  23.150  34.630
 1308BOLB   C2C31386  26.935  22.830  34.590
 1308BOLB   C3C31387  26.745  22.540  34.800
 1308BOLB   C4C31388  26.280  22.470  34.870
 1308BOLB   C1D31389  26.825  23.440  34.390
 1308BOLB   C2D31390  26.685  23.300  34.760
 1308BOLB   C3D31391  26.440  23.050  35.090
 1308BOLB   C4D31392  26.090  23.000  35.260
 1309BOLB   NC131393  14.440   8.090  35.440
 1309BOLB   PO131394  14.990   8.320  35.380
 1309BOLB   GL131395  15.310   8.680  35.430
 1309BOLB   GL231396  15.460   8.550  35.640
 1309BOLB   C1A31397  15.590   9.030  35.460
 1309BOLB   C2A31398  15.610   9.160  35.070
 1309BOLB   C3A31399  15.850   9.330  34.670
 1309BOLB   C4A31400  15.770   9.620  34.350
 1309BOLB   C1B31401  15.830   8.720  35.760
 1309BOLB   C2B31402  16.180   8.920  35.960
 1309BOLB   C3B31403  16.510   9.240  35.910
 1309BOLB   C4B31404  16.900   9.330  35.920
 1309BOLB   NC231405  14.380   8.720  33.520
 1309BOLB   PO231406  13.960   9.060  33.440
 1309BOLB   GL331407  14.170   9.370  33.570
 1309BOLB   GL431408  14.070   9.720  33.810
 1309BOLB   C1C31409  14.590   9.570  33.590
 1309BOLB   C2C31410  14.890   9.760  33.710
 1309BOLB   C3C31411  15.260   9.880  33.840
 1309BOLB   C4C31412  15.510   9.890  34.100
 1309BOLB   C1D31413  14.130   9.860  33.460
 1309BOLB   C2D31414  14.480   9.990  33.330
 1309BOLB   C3D31415  14.950  10.120  33.350
 1309BOLB   C4D31416  14.970  10.590  33.420
 1310BOLB   NC131417  22.860  22.160  37.180
 1310BOLB   PO131418  22.770  22.550  37.080
 1310BOLB   GL131419  23.040  22.870  37.280
 1310BOLB   GL231420  23.350  22.930  37.280
 1310BOLB   C1A31421  23.010  23.330  37.420
 1310BOLB   C2A31422  22.990  23.860  37.520
 1310BOLB   C3A31423  23.260  24.130  37.640
 1310BOLB   C4A31424  23.580  24.390  37.620
 1310BOLB   C1B31425  23.530  23.260  37.240
 1310BOLB   C2B31426  23.490  23.660  37.540
 1310BOLB   C3B31427  23.700  23.940  37.790
 1310BOLB   C4B31428  24.170  24.110  37.880
 1310BOLB   NC231429  24.630  26.350  37.990
 1310BOLB   PO231430  24.340   0.130  38.120
 1310BOLB   GL331431  24.210  26.140  38.150
 1310BOLB   GL431432  24.440  25.890  38.330
 1310BOLB   C1C31433  24.130  25.720  37.900
 1310BOLB   C2C31434  24.100  25.420  37.500
 1310BOLB   C3C31435  24.000  25.000  37.320
 1310BOLB   C4C31436  23.750  24.720  37.440
 1310BOLB   C1D31437  24.200  25.580  38.640
 1310BOLB   C2D31438  24.030  25.370  38.900
 1310BOLB   C3D31439  24.220  24.900  38.980
 1310BOLB   C4D31440  24.300  24.510  38.760
 1311BOLB   NC131441  23.160  21.850  28.700
 1311BOLB   PO131442  22.890  22.060  28.790
 1311BOLB   GL131443  22.990  22.310  28.410
 1311BOLB   GL231444  23.180  22.620  28.560
 1311BOLB   C1A31445  23.530  22.360  28.280
 1311BOLB   C2A31446  23.800  22.720  28.150
 1311BOLB   C3A31447  23.940  23.100  27.950
 1311BOLB   C4A31448  24.010  23.540  27.940
 1311BOLB   C1B31449  23.400  22.940  28.450
 1311BOLB   C2B31450  23.560  23.350  28.250
 1311BOLB   C3B31451  23.510  23.660  28.040
 1311BOLB   C4B31452  23.360  24.070  27.780
 1311BOLB   NC231453  24.860  25.770  27.910
 1311BOLB   PO231454  24.450  25.950  27.900
 1311BOLB   GL331455  24.270  25.510  27.900
 1311BOLB   GL431456  24.590  25.270  27.870
 1311BOLB   C1C31457  24.140  25.090  27.820
 1311BOLB   C2C31458  23.930  24.680  27.910
 1311BOLB   C3C31459  23.790  24.370  27.780
 1311BOLB   C4C31460  23.900  23.930  27.940
 1311BOLB   C1D31461  24.480  25.160  27.410
 1311BOLB   C2D31462  24.070  25.180  27.230
 1311BOLB   C3D31463  23.690  25.060  27.080
 1311BOLB   C4D31464  23.290  25.010  26.860
 1312BOLB   NC131465  28.625   8.640  33.390
 1312BOLB   PO131466  28.615   8.340  33.690
 1312BOLB   GL131467  29.005   8.250  33.560
 1312BOLB   GL231468  29.145   8.100  33.330
 1312BOLB   C1A31469  29.485   8.090  33.690
 1312BOLB   C2A31470  29.735   8.190  34.160
 1312BOLB   C3A31471  30.155   8.180  34.510
 1312BOLB   C4A31472  30.315   8.060  34.890
 1312BOLB   C1B31473  29.385   8.170  32.950
 1312BOLB   C2B31474  29.795   8.350  32.830
 1312BOLB   C3B31475  30.145   8.480  33.070
 1312BOLB   C4B31476  30.495   8.580  33.370
 1312BOLB   NC231477  31.685   6.100  34.880
 1312BOLB   PO231478  31.645   6.120  34.420
 1312BOLB   GL331479  31.365   6.480  34.620
 1312BOLB   GL431480  31.445   6.780  34.570
 1312BOLB   C1C31481  31.005   6.700  34.720
 1312BOLB   C2C31482  30.815   7.010  34.920
 1312BOLB   C3C31483  30.745   7.410  34.980
 1312BOLB   C4C31484  30.465   7.730  35.020
 1312BOLB   C1D31485  31.275   7.160  34.500
 1312BOLB   C2D31486  30.905   7.400  34.450
 1312BOLB   C3D31487  30.815   7.720  34.090
 1312BOLB   C4D31488  30.615   7.970  33.770
 1313BOLB   NC131489  20.910   9.930  37.710
 1313BOLB   PO131490  20.590  10.060  37.510
 1313BOLB   GL131491  20.510   9.740  37.250
 1313BOLB   GL231492  20.630   9.540  37.570
 1313BOLB   C1A31493  20.240   9.310  37.310
 1313BOLB   C2A31494  19.990   8.990  37.440
 1313BOLB   C3A31495  19.760   8.590  37.510
 1313BOLB   C4A31496  19.460   8.420  37.670
 1313BOLB   C1B31497  20.840   9.250  37.880
 1313BOLB   C2B31498  20.720   8.870  37.970
 1313BOLB   C3B31499  20.470   8.520  38.080
 1313BOLB   C4B31500  20.370   8.270  38.370
 1313BOLB   NC231501  18.240   6.040  38.210
 1313BOLB   PO231502  18.330   6.480  38.320
 1313BOLB   GL331503  18.610   6.770  38.080
 1313BOLB   GL431504  18.590   7.180  38.090
 1313BOLB   C1C31505  18.860   6.970  37.740
 1313BOLB   C2C31506  18.850   7.390  37.660
 1313BOLB   C3C31507  18.970   7.870  37.820
 1313BOLB   C4C31508  19.170   8.140  37.970
 1313BOLB   C1D31509  18.720   7.640  38.210
 1313BOLB   C2D31510  18.880   8.070  38.390
 1313BOLB   C3D31511  18.740   8.540  38.350
 1313BOLB   C4D31512  18.370   8.690  38.090
 1314BOLB   NC131513  21.260   8.720  35.190
 1314BOLB   PO131514  21.280   8.610  34.820
 1314BOLB   GL131515  21.190   8.240  34.830
 1314BOLB   GL231516  20.920   8.290  35.020
 1314BOLB   C1A31517  21.430   7.930  34.750
 1314BOLB   C2A31518  21.460   7.480  34.900
 1314BOLB   C3A31519  21.260   7.100  34.840
 1314BOLB   C4A31520  21.180   6.680  35.040
 1314BOLB   C1B31521  20.660   7.930  35.060
 1314BOLB   C2B31522  20.470   7.650  34.870
 1314BOLB   C3B31523  20.520   7.160  34.930
 1314BOLB   C4B31524  20.700   6.790  35.020
 1314BOLB   NC231525  19.680   4.740  35.210
 1314BOLB   PO231526  19.970   4.560  34.810
 1314BOLB   GL331527  20.120   4.910  34.810
 1314BOLB   GL431528  19.880   5.240  34.780
 1314BOLB   C1C31529  20.460   5.210  34.670
 1314BOLB   C2C31530  20.760   5.540  34.580
 1314BOLB   C3C31531  20.900   5.960  34.690
 1314BOLB   C4C31532  20.990   6.240  35.040
 1314BOLB   C1D31533  20.100   5.660  34.890
 1314BOLB   C2D31534  20.160   6.130  34.990
 1314BOLB   C3D31535  20.210   6.580  35.020
 1314BOLB   C4D31536  19.940   6.920  34.960
 1315BOLB   NC131537  23.340   5.810  40.520
 1315BOLB   PO131538  23.320   5.690  40.010
 1315BOLB   GL131539  23.190   5.860  39.650
 1315BOLB   GL231540  23.340   5.600  39.440
 1315BOLB   C1A31541  23.200   6.130  39.300
 1315BOLB   C2A31542  23.370   6.280  38.830
 1315BOLB   C3A31543  23.710   6.620  38.730
 1315BOLB   C4A31544  24.060   6.490  38.650
 1315BOLB   C1B31545  23.370   5.780  39.010
 1315BOLB   C2B31546  23.570   5.530  38.680
 1315BOLB   C3B31547  23.450   5.460  38.240
 1315BOLB   C4B31548  23.470   5.360  37.840
 1315BOLB   NC231549  25.010   5.430  40.130
 1315BOLB   PO231550  25.250   5.600  40.490
 1315BOLB   GL331551  25.000   6.030  40.390
 1315BOLB   GL431552  24.690   6.160  40.520
 1315BOLB   C1C31553  24.720   6.200  40.000
 1315BOLB   C2C31554  24.500   6.170  39.630
 1315BOLB   C3C31555  24.620   6.360  39.210
 1315BOLB   C4C31556  24.500   6.390  38.830
 1315BOLB   C1D31557  24.920   6.650  40.700
 1315BOLB   C2D31558  25.140   7.000  40.830
 1315BOLB   C3D31559  25.550   7.030  40.890
 1315BOLB   C4D31560  25.930   7.120  40.910
 1316BOLB   NC131561  15.280  16.970  24.940
 1316BOLB   PO131562  15.370  16.870  24.530
 1316BOLB   GL131563  15.100  16.680  24.410
 1316BOLB   GL231564  15.020  16.490  24.760
 1316BOLB   C1A31565  14.850  16.330  24.230
 1316BOLB   C2A31566  14.560  16.050  23.990
 1316BOLB   C3A31567  14.150  15.830  23.890
 1316BOLB   C4A31568  14.000  15.600  23.610
 1316BOLB   C1B31569  14.570  16.570  24.560
 1316BOLB   C2B31570  14.230  16.600  24.530
 1316BOLB   C3B31571  14.030  16.270  24.360
 1316BOLB   C4B31572  14.250  15.870  24.330
 1316BOLB   NC231573  12.780  15.770  21.120
 1316BOLB   PO231574  13.080  15.600  21.430
 1316BOLB   GL331575  13.160  15.890  21.770
 1316BOLB   GL431576  13.350  16.110  21.830
 1316BOLB   C1C31577  13.350  15.710  22.270
 1316BOLB   C2C31578  13.500  15.650  22.610
 1316BOLB   C3C31579  13.810  15.520  22.790
 1316BOLB   C4C31580  13.970  15.710  23.120
 1316BOLB   C1D31581  13.600  16.240  22.100
 1316BOLB   C2D31582  13.920  16.230  22.450
 1316BOLB   C3D31583  14.280  16.400  22.620
 1316BOLB   C4D31584  14.660  16.660  22.640
 1317BOLB   NC131585  21.780  10.970  40.190
 1317BOLB   PO131586  21.550  11.170  40.560
 1317BOLB   GL131587  21.440  10.920  40.890
 1317BOLB   GL231588  21.680  10.900  41.070
 1317BOLB   C1A31589  21.110  10.550  41.040
 1317BOLB   C2A31590  21.130  10.150  41.390
 1317BOLB   C3A31591  21.380   9.910  41.650
 1317BOLB   C4A31592  21.760   9.600  41.740
 1317BOLB   C1B31593  21.660  10.460  40.950
 1317BOLB   C2B31594  21.570  10.070  41.090
 1317BOLB   C3B31595  21.650   9.680  41.260
 1317BOLB   C4B31596  21.620   9.230  41.380
 1317BOLB   NC231597  21.510   8.270  43.700
 1317BOLB   PO231598  21.890   8.220  43.460
 1317BOLB   GL331599  21.990   8.600  43.250
 1317BOLB   GL431600  21.660   8.760  43.300
 1317BOLB   C1C31601  21.890   8.810  42.890
 1317BOLB   C2C31602  21.840   9.000  42.590
 1317BOLB   C3C31603  21.620   9.130  42.400
 1317BOLB   C4C31604  21.590   9.140  42.040
 1317BOLB   C1D31605  22.070   9.050  43.490
 1317BOLB   C2D31606  22.140   9.490  43.410
 1317BOLB   C3D31607  22.100   9.720  43.030
 1317BOLB   C4D31608  22.330  10.020  42.780
 1318BOLB   NC131609  20.160   9.790  27.780
 1318BOLB   PO131610  20.440   9.770  27.430
 1318BOLB   GL131611  20.340   9.360  27.360
 1318BOLB   GL231612  20.200   9.410  27.020
 1318BOLB   C1A31613  20.130   8.950  27.390
 1318BOLB   C2A31614  19.870   8.630  27.520
 1318BOLB   C3A31615  19.600   8.290  27.590
 1318BOLB   C4A31616  19.420   7.900  27.740
 1318BOLB   C1B31617  19.780   9.260  27.090
 1318BOLB   C2B31618  19.610   8.900  27.030
 1318BOLB   C3B31619  19.460   8.440  27.090
 1318BOLB   C4B31620  19.450   8.000  27.250
 1318BOLB   NC231621  17.820   5.890  27.960
 1318BOLB   PO231622  18.170   6.030  27.740
 1318BOLB   GL331623  18.290   6.470  27.660
 1318BOLB   GL431624  18.020   6.680  27.570
 1318BOLB   C1C31625  18.550   6.630  27.380
 1318BOLB   C2C31626  18.870   6.880  27.220
 1318BOLB   C3C31627  19.010   7.240  27.270
 1318BOLB   C4C31628  19.230   7.580  27.400
 1318BOLB   C1D31629  18.180   7.070  27.710
 1318BOLB   C2D31630  18.500   7.300  27.930
 1318BOLB   C3D31631  18.710   7.560  28.220
 1318BOLB   C4D31632  19.040   7.850  28.360
 1319BOLB   NC131633  30.695  16.550  43.160
 1319BOLB   PO131634  30.845  16.690  42.640
 1319BOLB   GL131635  30.395  16.660  42.540
 1319BOLB   GL231636  30.495  16.480  42.230
 1319BOLB   C1A31637  30.055  16.700  42.280
 1319BOLB   C2A31638  29.745  16.510  42.120
 1319BOLB   C3A31639  29.255  16.520  42.030
 1319BOLB   C4A31640  28.915  16.390  41.680
 1319BOLB   C1B31641  30.115  16.200  42.030
 1319BOLB   C2B31642  29.715  16.170  41.790
 1319BOLB   C3B31643  29.285  16.100  41.630
 1319BOLB   C4B31644  29.365  15.880  41.220
 1319BOLB   NC231645  31.075  16.830  41.390
 1319BOLB   PO231646  30.865  17.100  41.200
 1319BOLB   GL331647  30.515  17.050  41.390
 1319BOLB   GL431648  30.535  16.720  41.240
 1319BOLB   C1C31649  30.095  16.900  41.350
 1319BOLB   C2C31650  29.715  17.010  41.270
 1319BOLB   C3C31651  29.285  16.950  41.170
 1319BOLB   C4C31652  28.935  16.650  41.270
 1319BOLB   C1D31653  30.275  16.680  40.940
 1319BOLB   C2D31654  29.835  16.610  40.950
 1319BOLB   C3D31655  29.475  16.690  40.830
 1319BOLB   C4D31656  29.135  16.470  40.730
 1320BOLB   NC131657  16.720  24.930  34.010
 1320BOLB   PO131658  16.380  25.020  33.730
 1320BOLB   GL131659  16.640  25.400  33.820
 1320BOLB   GL231660  16.550  25.510  34.180
 1320BOLB   C1A31661  16.900  25.790  33.740
 1320BOLB   C2A31662  17.120  26.100  33.530
 1320BOLB   C3A31663  16.950   0.040  33.430
 1320BOLB   C4A31664  16.660   0.200  33.160
 1320BOLB   C1B31665  16.370  25.870  34.290
 1320BOLB   C2B31666  16.220  26.380  34.440
 1320BOLB   C3B31667  15.930   0.240  34.410
 1320BOLB   C4B31668  15.710   0.550  34.540
 1320BOLB   NC231669  16.170   2.470  32.880
 1320BOLB   PO231670  15.820   2.290  33.030
 1320BOLB   GL331671  16.010   1.950  32.740
 1320BOLB   GL431672  16.330   1.850  32.880
 1320BOLB   C1C31673  16.200   1.790  32.400
 1320BOLB   C2C31674  16.290   1.410  32.660
 1320BOLB   C3C31675  16.490   1.000  32.790
 1320BOLB   C4C31676  16.530   0.560  32.960
 1320BOLB   C1D31677  16.710   1.680  32.560
 1320BOLB   C2D31678  16.720   1.420  32.140
 1320BOLB   C3D31679  16.800   1.000  32.000
 1320BOLB   C4D31680  16.990   0.560  32.040
 1321BOLB   NC131681  15.980  16.120  39.640
 1321BOLB   PO131682  15.670  16.000  39.410
 1321BOLB   GL131683  15.500  16.090  39.710
 1321BOLB   GL231684  15.590  16.260  39.990
 1321BOLB   C1A31685  15.100  16.080  39.900
 1321BOLB   C2A31686  14.770  16.330  40.100
 1321BOLB   C3A31687  14.450  16.480  40.380
 1321BOLB   C4A31688  14.150  16.830  40.610
 1321BOLB   C1B31689  15.220  16.140  40.360
 1321BOLB   C2B31690  15.360  15.850  40.610
 1321BOLB   C3B31691  15.560  15.460  40.900
 1321BOLB   C4B31692  15.660  15.450  41.450
 1321BOLB   NC231693  12.090  16.620  41.590
 1321BOLB   PO231694  12.260  16.690  42.010
 1321BOLB   GL331695  12.560  16.620  41.680
 1321BOLB   GL431696  12.750  16.860  41.830
 1321BOLB   C1C31697  12.810  16.710  41.300
 1321BOLB   C2C31698  13.240  16.920  41.100
 1321BOLB   C3C31699  13.600  16.940  41.040
 1321BOLB   C4C31700  13.910  16.980  40.880
 1321BOLB   C1D31701  13.090  17.090  41.630
 1321BOLB   C2D31702  13.480  16.990  41.580
 1321BOLB   C3D31703  13.800  16.760  41.830
 1321BOLB   C4D31704  13.980  16.350  41.600
 1322BOLB   NC131705  26.060   8.050  30.380
 1322BOLB   PO131706  26.390   7.800  30.440
 1322BOLB   GL131707  26.440   7.360  30.470
 1322BOLB   GL231708  26.280   7.360  30.790
 1322BOLB   C1A31709  26.515   6.980  30.640
 1322BOLB   C2A31710  26.665   6.530  30.630
 1322BOLB   C3A31711  26.895   6.280  30.780
 1322BOLB   C4A31712  27.125   5.870  30.880
 1322BOLB   C1B31713  26.060   6.960  30.680
 1322BOLB   C2B31714  25.850   6.620  30.510
 1322BOLB   C3B31715  25.720   6.200  30.630
 1322BOLB   C4B31716  25.460   6.020  31.000
 1322BOLB   NC231717  26.545   3.860  31.190
 1322BOLB   PO231718  26.505   3.780  30.670
 1322BOLB   GL331719  26.270   4.080  30.740
 1322BOLB   GL431720  26.000   4.030  30.940
 1322BOLB   C1C31721  26.330   4.550  30.700
 1322BOLB   C2C31722  26.410   4.960  30.730
 1322BOLB   C3C31723  26.545   5.290  30.570
 1322BOLB   C4C31724  26.895   5.530  30.660
 1322BOLB   C1D31725  25.920   4.440  30.960
 1322BOLB   C2D31726  25.890   4.850  30.990
 1322BOLB   C3D31727  25.690   5.240  31.120
 1322BOLB   C4D31728  25.810   5.650  31.240
 1323BOLB   NC131729  15.880  17.830  39.460
 1323BOLB   PO131730  16.090  17.550  39.610
 1323BOLB   GL131731  15.800  17.650  39.940
 1323BOLB   GL231732  15.430  17.880  39.950
 1323BOLB   C1A31733  15.650  17.400  40.280
 1323BOLB   C2A31734  15.330  17.450  40.620
 1323BOLB   C3A31735  14.960  17.450  40.940
 1323BOLB   C4A31736  14.640  17.600  41.190
 1323BOLB   C1B31737  15.160  17.660  40.150
 1323BOLB   C2B31738  14.860  17.440  40.440
 1323BOLB   C3B31739  14.560  17.450  40.680
 1323BOLB   C4B31740  14.400  17.160  40.920
 1323BOLB   NC231741  12.500  17.410  42.690
 1323BOLB   PO231742  12.670  17.870  42.480
 1323BOLB   GL331743  12.880  17.640  42.300
 1323BOLB   GL431744  12.710  17.350  41.990
 1323BOLB   C1C31745  13.150  17.530  41.940
 1323BOLB   C2C31746  13.440  17.480  41.700
 1323BOLB   C3C31747  13.770  17.660  41.570
 1323BOLB   C4C31748  14.200  17.870  41.490
 1323BOLB   C1D31749  13.000  17.140  42.250
 1323BOLB   C2D31750  13.320  17.470  42.470
 1323BOLB   C3D31751  13.650  17.750  42.680
 1323BOLB   C4D31752  13.830  17.960  43.030
 1324BOLB   NC131753  19.850  22.570  39.760
 1324BOLB   PO131754  19.650  22.890  39.670
 1324BOLB   GL131755  19.820  23.240  39.660
 1324BOLB   GL231756  19.810  23.440  39.410
 1324BOLB   C1A31757  19.780  23.450  40.030
 1324BOLB   C2A31758  19.870  23.680  40.450
 1324BOLB   C3A31759  19.940  24.140  40.600
 1324BOLB   C4A31760  20.010  24.590  40.570
 1324BOLB   C1B31761  19.940  23.790  39.650
 1324BOLB   C2B31762  20.020  23.960  40.040
 1324BOLB   C3B31763  19.820  24.380  40.090
 1324BOLB   C4B31764  19.450  24.650  40.240
 1324BOLB   NC231765  20.780  26.150  41.670
 1324BOLB   PO231766  20.560  26.360  41.300
 1324BOLB   GL331767  20.730  26.050  41.110
 1324BOLB   GL431768  21.030  26.150  41.090
 1324BOLB   C1C31769  20.600  25.840  40.760
 1324BOLB   C2C31770  20.250  25.590  40.670
 1324BOLB   C3C31771  20.190  25.290  40.500
 1324BOLB   C4C31772  20.030  24.940  40.350
 1324BOLB   C1D31773  21.140  25.850  40.870
 1324BOLB   C2D31774  20.990  25.570  40.590
 1324BOLB   C3D31775  21.100  25.290  40.220
 1324BOLB   C4D31776  21.060  24.790  39.970
 1325BOLB   NC131777  25.140   7.760  33.110
 1325BOLB   PO131778  24.980   7.410  33.180
 1325BOLB   GL131779  25.030   7.040  32.940
 1325BOLB   GL231780  24.960   7.020  32.560
 1325BOLB   C1A31781  25.130   6.610  33.030
 1325BOLB   C2A31782  25.090   6.170  33.020
 1325BOLB   C3A31783  25.070   5.810  32.890
 1325BOLB   C4A31784  24.870   5.430  32.890
 1325BOLB   C1B31785  24.880   6.500  32.560
 1325BOLB   C2B31786  25.020   6.090  32.480
 1325BOLB   C3B31787  24.910   5.760  32.430
 1325BOLB   C4B31788  24.880   5.330  32.390
 1325BOLB   NC231789  24.440   3.110  33.860
 1325BOLB   PO231790  24.690   3.240  33.570
 1325BOLB   GL331791  24.480   3.610  33.750
 1325BOLB   GL431792  24.360   3.700  33.510
 1325BOLB   C1C31793  24.650   4.030  33.870
 1325BOLB   C2C31794  24.670   4.430  33.660
 1325BOLB   C3C31795  24.800   4.750  33.440
 1325BOLB   C4C31796  24.760   5.200  33.200
 1325BOLB   C1D31797  24.330   4.040  33.450
 1325BOLB   C2D31798  24.100   4.420  33.400
 1325BOLB   C3D31799  24.350   4.860  33.170
 1325BOLB   C4D31800  24.480   5.010  32.820
 1326BOLB   NC131801  17.870   5.900  29.440
 1326BOLB   PO131802  18.240   6.160  29.450
 1326BOLB   GL131803  18.540   6.400  29.760
 1326BOLB   GL231804  18.620   6.530  29.410
 1326BOLB   C1A31805  18.800   6.740  30.020
 1326BOLB   C2A31806  19.200   6.830  30.150
 1326BOLB   C3A31807  19.670   6.920  30.050
 1326BOLB   C4A31808  20.010   6.520  30.030
 1326BOLB   C1B31809  18.680   6.790  28.940
 1326BOLB   C2B31810  18.710   7.200  28.970
 1326BOLB   C3B31811  18.630   7.520  29.240
 1326BOLB   C4B31812  18.330   7.700  29.210
 1326BOLB   NC231813  20.500   4.550  29.940
 1326BOLB   PO231814  20.450   4.660  30.310
 1326BOLB   GL331815  20.460   5.060  30.060
 1326BOLB   GL431816  20.840   5.010  30.060
 1326BOLB   C1C31817  20.590   5.440  29.930
 1326BOLB   C2C31818  20.720   5.710  29.550
 1326BOLB   C3C31819  20.540   6.000  29.400
 1326BOLB   C4C31820  20.430   6.300  29.720
 1326BOLB   C1D31821  21.120   5.260  29.960
 1326BOLB   C2D31822  21.090   5.670  29.900
 1326BOLB   C3D31823  21.260   6.110  30.110
 1326BOLB   C4D31824  21.180   6.560  30.020
 1327BOLB   NC131825  15.500  19.730  38.310
 1327BOLB   PO131826  15.060  19.600  38.430
 1327BOLB   GL131827  14.600  19.560  38.610
 1327BOLB   GL231828  14.590  19.250  38.510
 1327BOLB   C1A31829  14.350  19.650  39.060
 1327BOLB   C2A31830  13.920  19.610  39.150
 1327BOLB   C3A31831  13.480  19.550  39.160
 1327BOLB   C4A31832  13.080  19.670  38.950
 1327BOLB   C1B31833  14.230  19.230  38.780
 1327BOLB   C2B31834  13.710  19.160  38.680
 1327BOLB   C3B31835  13.400  18.860  38.610
 1327BOLB   C4B31836  12.900  18.770  38.680
 1327BOLB   NC231837  10.740  18.370  39.050
 1327BOLB   PO231838  10.860  18.650  39.430
 1327BOLB   GL331839  11.240  18.510  39.260
 1327BOLB   GL431840  11.470  18.290  39.190
 1327BOLB   C1C31841  11.590  18.850  39.150
 1327BOLB   C2C31842  11.960  18.990  39.100
 1327BOLB   C3C31843  12.260  19.390  38.960
 1327BOLB   C4C31844  12.600  19.710  38.940
 1327BOLB   C1D31845  11.880  18.470  38.990
 1327BOLB   C2D31846  12.120  18.550  38.650
 1327BOLB   C3D31847  12.540  18.360  38.410
 1327BOLB   C4D31848  12.830  18.290  38.140
 1328BOLB   NC131849  26.925  15.690  27.490
 1328BOLB   PO131850  27.315  16.060  27.560
 1328BOLB   GL131851  27.575  16.430  27.420
 1328BOLB   GL231852  27.595  16.770  27.290
 1328BOLB   C1A31853  28.065  16.660  27.300
 1328BOLB   C2A31854  28.235  16.960  27.080
 1328BOLB   C3A31855  28.465  17.320  27.140
 1328BOLB   C4A31856  28.705  17.570  26.960
 1328BOLB   C1B31857  27.875  17.080  27.360
 1328BOLB   C2B31858  28.065  17.470  27.420
 1328BOLB   C3B31859  28.265  17.890  27.750
 1328BOLB   C4B31860  28.645  17.960  27.820
 1328BOLB   NC231861  31.205  18.130  27.230
 1328BOLB   PO231862  30.825  18.310  27.170
 1328BOLB   GL331863  30.585  18.040  26.850
 1328BOLB   GL431864  30.555  17.730  27.040
 1328BOLB   C1C31865  30.285  18.030  26.630
 1328BOLB   C2C31866  29.835  17.960  26.610
 1328BOLB   C3C31867  29.325  17.850  26.680
 1328BOLB   C4C31868  29.045  17.660  26.660
 1328BOLB   C1D31869  30.605  17.310  27.070
 1328BOLB   C2D31870  30.615  17.030  26.930
 1328BOLB   C3D31871  30.545  16.650  26.650
 1328BOLB   C4D31872  30.255  16.210  26.660
 1329BOLB   NC131873  23.730  14.700  42.770
 1329BOLB   PO131874  23.520  14.770  43.310
 1329BOLB   GL131875  23.610  14.400  43.470
 1329BOLB   GL231876  23.490  14.240  43.550
 1329BOLB   C1A31877  23.950  14.260  43.810
 1329BOLB   C2A31878  23.850  14.070  44.150
 1329BOLB   C3A31879  23.490  13.840  44.290
 1329BOLB   C4A31880  23.220  13.520  44.560
 1329BOLB   C1B31881  23.470  13.910  43.780
 1329BOLB   C2B31882  23.400  13.480  43.840
 1329BOLB   C3B31883  23.540  13.140  44.040
 1329BOLB   C4B31884  23.450  12.740  44.130
 1329BOLB   NC231885  24.310  12.990  46.880
 1329BOLB   PO231886  23.910  13.170  46.770
 1329BOLB   GL331887  23.660  13.350  46.420
 1329BOLB   GL431888  23.400  13.150  46.310
 1329BOLB   C1C31889  23.410  13.590  46.090
 1329BOLB   C2C31890  23.140  13.510  45.730
 1329BOLB   C3C31891  23.180  13.440  45.390
 1329BOLB   C4C31892  23.070  13.550  44.930
 1329BOLB   C1D31893  23.230  13.040  45.830
 1329BOLB   C2D31894  23.470  12.990  45.440
 1329BOLB   C3D31895  23.350  13.110  44.980
 1329BOLB   C4D31896  23.460  13.110  44.610
 1330BOLB   NC131897  25.880   8.130  33.430
 1330BOLB   PO131898  25.690   7.690  33.290
 1330BOLB   GL131899  26.020   7.270  33.380
 1330BOLB   GL231900  25.840   7.010  33.450
 1330BOLB   C1A31901  26.360   6.950  33.470
 1330BOLB   C2A31902  26.605   6.650  33.330
 1330BOLB   C3A31903  26.675   6.210  33.310
 1330BOLB   C4A31904  26.775   5.840  33.120
 1330BOLB   C1B31905  26.040   6.590  33.330
 1330BOLB   C2B31906  26.060   6.140  33.320
 1330BOLB   C3B31907  26.300   5.930  33.590
 1330BOLB   C4B31908  26.685   5.560  33.670
 1330BOLB   NC231909  26.475   3.250  32.620
 1330BOLB   PO231910  26.290   3.620  32.500
 1330BOLB   GL331911  26.150   3.950  32.620
 1330BOLB   GL431912  25.620   3.850  32.710
 1330BOLB   C1C31913  26.455   4.310  32.630
 1330BOLB   C2C31914  26.575   4.700  32.830
 1330BOLB   C3C31915  26.715   5.030  33.060
 1330BOLB   C4C31916  26.715   5.430  33.110
 1330BOLB   C1D31917  25.590   4.300  32.690
 1330BOLB   C2D31918  25.450   4.630  32.850
 1330BOLB   C3D31919  25.320   5.050  33.050
 1330BOLB   C4D31920  25.310   5.500  33.190
 1331BOLB   NC131921  24.540   9.600  25.950
 1331BOLB   PO131922  24.710   9.380  25.580
 1331BOLB   GL131923  24.680   9.190  25.220
 1331BOLB   GL231924  24.690   9.250  24.910
 1331BOLB   C1A31925  24.780   8.780  25.020
 1331BOLB   C2A31926  24.900   8.380  25.000
 1331BOLB   C3A31927  25.110   8.050  24.790
 1331BOLB   C4A31928  25.220   7.660  24.500
 1331BOLB   C1B31929  24.840   8.890  24.530
 1331BOLB   C2B31930  24.900   8.500  24.500
 1331BOLB   C3B31931  24.950   8.050  24.250
 1331BOLB   C4B31932  24.640   7.840  23.940
 1331BOLB   NC231933  26.535   5.370  24.260
 1331BOLB   PO231934  26.150   5.480  24.030
 1331BOLB   GL331935  25.970   5.930  24.230
 1331BOLB   GL431936  25.600   5.900  24.150
 1331BOLB   C1C31937  25.980   6.080  24.670
 1331BOLB   C2C31938  25.800   6.510  24.720
 1331BOLB   C3C31939  25.630   6.870  24.560
 1331BOLB   C4C31940  25.530   7.280  24.530
 1331BOLB   C1D31941  25.210   6.120  24.010
 1331BOLB   C2D31942  24.870   6.380  24.050
 1331BOLB   C3D31943  24.540   6.470  24.250
 1331BOLB   C4D31944  24.540   6.600  24.700
 1332BOLB   NC131945  13.640  18.000  34.210
 1332BOLB   PO131946  13.870  17.890  34.560
 1332BOLB   GL131947  13.470  17.590  34.440
 1332BOLB   GL231948  13.490  17.460  34.110
 1332BOLB   C1A31949  12.980  17.720  34.240
 1332BOLB   C2A31950  12.540  17.910  34.210
 1332BOLB   C3A31951  12.100  17.890  34.200
 1332BOLB   C4A31952  11.630  18.010  34.190
 1332BOLB   C1B31953  13.120  17.210  34.050
 1332BOLB   C2B31954  12.760  17.270  34.130
 1332BOLB   C3B31955  12.440  17.420  34.180
 1332BOLB   C4B31956  12.050  17.340  34.120
 1332BOLB   NC231957   9.820  17.020  33.790
 1332BOLB   PO231958   9.620  17.230  34.100
 1332BOLB   GL331959   9.790  17.590  33.960
 1332BOLB   GL431960  10.100  17.430  33.880
 1332BOLB   C1C31961   9.990  17.930  34.020
 1332BOLB   C2C31962  10.360  17.890  34.090
 1332BOLB   C3C31963  10.790  17.990  34.130
 1332BOLB   C4C31964  11.150  18.020  34.260
 1332BOLB   C1D31965  10.520  17.270  33.980
 1332BOLB   C2D31966  10.980  17.320  34.050
 1332BOLB   C3D31967  11.430  17.580  34.190
 1332BOLB   C4D31968  11.710  17.590  34.490
 1333BOLB   NC131969  20.610  18.040  42.920
 1333BOLB   PO131970  20.850  18.200  43.310
 1333BOLB   GL131971  20.750  18.120  43.820
 1333BOLB   GL231972  20.880  18.410  43.930
 1333BOLB   C1A31973  20.560  18.000  44.090
 1333BOLB   C2A31974  20.460  18.030  44.400
 1333BOLB   C3A31975  20.350  17.770  44.800
 1333BOLB   C4A31976  20.310  17.560  45.210
 1333BOLB   C1B31977  20.630  18.450  44.240
 1333BOLB   C2B31978  20.330  18.500  44.510
 1333BOLB   C3B31979  20.270  18.260  44.860
 1333BOLB   C4B31980  20.500  18.060  45.220
 1333BOLB   NC231981  18.310  16.610  47.000
 1333BOLB   PO231982  18.740  16.610  46.910
 1333BOLB   GL331983  18.900  16.970  46.650
 1333BOLB   GL431984  18.930  17.210  46.590
 1333BOLB   C1C31985  19.300  16.940  46.430
 1333BOLB   C2C31986  19.570  17.210  46.220
 1333BOLB   C3C31987  19.680  17.330  45.720
 1333BOLB   C4C31988  20.050  17.410  45.570
 1333BOLB   C1D31989  19.060  17.180  46.070
 1333BOLB   C2D31990  19.190  17.270  45.720
 1333BOLB   C3D31991  19.320  17.400  45.260
 1333BOLB   C4D31992  19.170  17.490  44.950
 1334BOLB   NC131993  24.450  20.450  41.400
 1334BOLB   PO131994  24.810  20.120  41.370
 1334BOLB   GL131995  25.160  20.140  41.510
 1334BOLB   GL231996  25.120  20.390  41.600
 1334BOLB   C1A31997  25.590  20.170  41.530
 1334BOLB   C2A31998  26.000  20.350  41.620
 1334BOLB   C3A31999  26.370  20.530  41.710
 1334BOLB   C4A32000  26.855  20.460  41.630
 1334BOLB   C1B32001  25.050  20.500  41.970
 1334BOLB   C2B32002  24.980  20.880  42.110
 1334BOLB   C3B32003  25.080  21.250  42.010
 1334BOLB   C4B32004  25.120  21.450  41.580
 1334BOLB   NC232005  28.275  21.830  42.830
 1334BOLB   PO232006  28.305  21.920  42.390
 1334BOLB   GL332007  27.985  21.740  42.110
 1334BOLB   GL432008  27.845  21.950  41.740
 1334BOLB   C1C32009  27.915  21.430  41.850
 1334BOLB   C2C32010  27.725  21.050  41.710
 1334BOLB   C3C32011  27.505  20.860  41.430
 1334BOLB   C4C32012  27.105  20.680  41.410
 1334BOLB   C1D32013  27.755  21.690  41.450
 1334BOLB   C2D32014  27.485  21.340  41.400
 1334BOLB   C3D32015  27.135  21.310  41.100
 1334BOLB   C4D32016  26.855  21.070  40.940
 1335BOLB   NC132017  17.080  15.870  23.810
 1335BOLB   PO132018  17.300  15.470  23.680
 1335BOLB   GL132019  16.940  15.290  23.420
 1335BOLB   GL232020  16.650  15.260  23.570
 1335BOLB   C1A32021  16.770  15.150  23.110
 1335BOLB   C2A32022  16.670  14.930  22.780
 1335BOLB   C3A32023  16.290  14.950  22.460
 1335BOLB   C4A32024  15.920  14.650  22.380
 1335BOLB   C1B32025  16.240  15.070  23.650
 1335BOLB   C2B32026  15.850  14.780  23.470
 1335BOLB   C3B32027  15.510  14.520  23.470
 1335BOLB   C4B32028  15.350  14.200  23.740
 1335BOLB   NC232029  15.280  13.590  20.600
 1335BOLB   PO232030  14.900  13.690  20.850
 1335BOLB   GL332031  15.270  13.690  21.120
 1335BOLB   GL432032  15.430  13.530  21.070
 1335BOLB   C1C32033  15.380  14.050  21.340
 1335BOLB   C2C32034  15.620  14.380  21.210
 1335BOLB   C3C32035  15.750  14.740  21.480
 1335BOLB   C4C32036  15.720  14.620  21.920
 1335BOLB   C1D32037  15.610  13.620  21.480
 1335BOLB   C2D32038  15.730  14.130  21.720
 1335BOLB   C3D32039  15.990  14.190  22.040
 1335BOLB   C4D32040  16.280  14.240  22.310
 1336BOLB   NC132041  21.900  22.170  31.300
 1336BOLB   PO132042  22.130  22.520  31.190
 1336BOLB   GL132043  22.350  22.800  30.960
 1336BOLB   GL232044  22.470  23.010  31.180
 1336BOLB   C1A32045  22.750  23.020  30.780
 1336BOLB   C2A32046  23.180  23.330  30.750
 1336BOLB   C3A32047  23.350  23.670  30.580
 1336BOLB   C4A32048  23.660  23.950  30.450
 1336BOLB   C1B32049  22.800  23.300  31.250
 1336BOLB   C2B32050  23.240  23.530  31.220
 1336BOLB   C3B32051  23.630  23.580  31.430
 1336BOLB   C4B32052  23.990  23.440  31.780
 1336BOLB   NC232053  25.180  26.040  29.400
 1336BOLB   PO232054  25.240  25.570  29.290
 1336BOLB   GL332055  24.890  25.300  29.470
 1336BOLB   GL432056  24.950  25.190  29.820
 1336BOLB   C1C32057  24.500  25.240  29.620
 1336BOLB   C2C32058  24.120  25.030  29.830
 1336BOLB   C3C32059  23.810  24.710  30.070
 1336BOLB   C4C32060  23.850  24.370  30.400
 1336BOLB   C1D32061  24.660  24.830  29.810
 1336BOLB   C2D32062  24.610  24.490  29.690
 1336BOLB   C3D32063  24.550  24.060  29.930
 1336BOLB   C4D32064  24.470  23.700  30.020
 1337BOLB   NC132065  14.540  17.460  25.880
 1337BOLB   PO132066  14.560  18.020  25.840
 1337BOLB   GL132067  14.180  17.850  25.620
 1337BOLB   GL232068  13.970  17.600  25.710
 1337BOLB   C1A32069  13.670  17.900  25.490
 1337BOLB   C2A32070  13.160  18.020  25.490
 1337BOLB   C3A32071  12.680  18.050  25.600
 1337BOLB   C4A32072  12.270  17.880  25.610
 1337BOLB   C1B32073  13.620  17.540  25.880
 1337BOLB   C2B32074  13.140  17.560  25.900
 1337BOLB   C3B32075  12.870  17.400  25.710
 1337BOLB   C4B32076  12.540  17.520  25.500
 1337BOLB   NC232077  10.290  18.390  25.320
 1337BOLB   PO232078  10.170  18.090  25.660
 1337BOLB   GL332079  10.370  18.500  25.820
 1337BOLB   GL432080  10.370  18.410  26.210
 1337BOLB   C1C32081  10.870  18.570  25.680
 1337BOLB   C2C32082  11.370  18.600  25.630
 1337BOLB   C3C32083  11.650  18.250  25.790
 1337BOLB   C4C32084  11.820  17.880  25.620
 1337BOLB   C1D32085  10.750  18.710  26.170
 1337BOLB   C2D32086  11.130  18.910  26.350
 1337BOLB   C3D32087  11.470  19.020  26.470
 1337BOLB   C4D32088  11.680  19.070  26.860
 1338BOLB   NC132089  20.710  11.290  17.920
 1338BOLB   PO132090  20.810  11.320  18.250
 1338BOLB   GL132091  20.660  11.290  18.740
 1338BOLB   GL232092  20.430  11.240  18.850
 1338BOLB   C1A32093  20.700  11.630  19.060
 1338BOLB   C2A32094  20.890  11.820  19.430
 1338BOLB   C3A32095  20.930  11.790  19.790
 1338BOLB   C4A32096  21.230  11.610  20.100
 1338BOLB   C1B32097  20.270  11.300  19.220
 1338BOLB   C2B32098  20.430  11.540  19.500
 1338BOLB   C3B32099  20.410  11.760  19.990
 1338BOLB   C4B32100  20.370  11.970  20.380
 1338BOLB   NC232101  20.970   9.920  19.330
 1338BOLB   PO232102  21.300   9.830  19.210
 1338BOLB   GL332103  21.450  10.230  19.340
 1338BOLB   GL432104  21.120  10.370  19.410
 1338BOLB   C1C32105  21.620  10.660  19.380
 1338BOLB   C2C32106  21.600  10.950  19.570
 1338BOLB   C3C32107  21.460  10.930  19.860
 1338BOLB   C4C32108  21.170  11.240  20.080
 1338BOLB   C1D32109  21.310  10.420  19.780
 1338BOLB   C2D32110  21.340  10.500  20.270
 1338BOLB   C3D32111  21.390  10.190  20.710
 1338BOLB   C4D32112  21.160   9.880  20.960
 1339BOLB   NC132113  18.740  23.920  28.950
 1339BOLB   PO132114  19.140  24.150  28.730
 1339BOLB   GL132115  19.100  24.640  28.690
 1339BOLB   GL232116  19.280  24.810  28.880
 1339BOLB   C1A32117  18.990  25.070  28.580
 1339BOLB   C2A32118  18.870  25.440  28.290
 1339BOLB   C3A32119  18.820  25.860  28.250
 1339BOLB   C4A32120  19.040  26.300  28.020
 1339BOLB   C1B32121  19.510  25.070  28.550
 1339BOLB   C2B32122  19.350  25.570  28.440
 1339BOLB   C3B32123  19.310  25.850  28.070
 1339BOLB   C4B32124  19.430  25.920  27.600
 1339BOLB   NC232125  20.030   1.520  26.390
 1339BOLB   PO232126  20.300   1.240  26.670
 1339BOLB   GL332127  20.270   0.850  26.820
 1339BOLB   GL432128  20.380   0.650  26.600
 1339BOLB   C1C32129  19.990   0.670  27.090
 1339BOLB   C2C32130  19.750   0.240  27.230
 1339BOLB   C3C32131  19.630  26.410  27.530
 1339BOLB   C4C32132  19.480  26.350  27.970
 1339BOLB   C1D32133  20.160   0.190  26.890
 1339BOLB   C2D32134  20.180  26.120  26.920
 1339BOLB   C3D32135  20.500  26.000  27.180
 1339BOLB   C4D32136  20.820  26.120  27.390
 1340BOLB   NC132137  28.315  13.260  38.740
 1340BOLB   PO132138  28.325  12.850  38.900
 1340BOLB   GL132139  28.845  13.140  38.970
 1340BOLB   GL232140  29.175  12.930  38.830
 1340BOLB   C1A32141  29.195  13.350  39.160
 1340BOLB   C2A32142  29.395  13.240  39.530
 1340BOLB   C3A32143  29.605  12.840  39.680
 1340BOLB   C4A32144  29.915  12.850  39.960
 1340BOLB   C1B32145  29.605  13.100  39.020
 1340BOLB   C2B32146  29.865  13.310  39.280
 1340BOLB   C3B32147  29.915  13.240  39.640
 1340BOLB   C4B32148  29.695  13.270  39.940
 1340BOLB   NC232149  31.565  14.030  42.010
 1340BOLB   PO232150  31.385  14.010  41.520
 1340BOLB   GL332151  31.175  13.900  41.220
 1340BOLB   GL432152  31.035  14.270  41.260
 1340BOLB   C1C32153  30.895  13.600  41.090
 1340BOLB   C2C32154  30.555  13.400  40.870
 1340BOLB   C3C32155  30.415  13.300  40.420
 1340BOLB   C4C32156  30.175  13.020  40.160
 1340BOLB   C1D32157  30.565  14.030  41.350
 1340BOLB   C2D32158  30.355  13.800  41.040
 1340BOLB   C3D32159  30.205  13.740  40.540
 1340BOLB   C4D32160  29.905  13.490  40.280
 1341BOLB   NC132161  13.370  21.830  29.430
 1341BOLB   PO132162  13.570  22.300  29.320
 1341BOLB   GL132163  13.100  22.290  29.300
 1341BOLB   GL232164  12.890  21.970  29.320
 1341BOLB   C1A32165  12.790  22.510  29.160
 1341BOLB   C2A32166  12.440  22.750  29.220
 1341BOLB   C3A32167  12.190  22.760  29.610
 1341BOLB   C4A32168  11.930  22.720  29.960
 1341BOLB   C1B32169  12.520  21.920  29.110
 1341BOLB   C2B32170  12.220  22.130  28.830
 1341BOLB   C3B32171  11.840  22.270  28.650
 1341BOLB   C4B32172  11.480  22.240  28.320
 1341BOLB   NC232173  10.390  24.570  29.950
 1341BOLB   PO232174  10.540  24.390  30.350
 1341BOLB   GL332175  10.820  24.210  30.630
 1341BOLB   GL432176  10.950  24.450  30.820
 1341BOLB   C1C32177  11.080  23.920  30.790
 1341BOLB   C2C32178  11.190  23.450  30.870
 1341BOLB   C3C32179  11.390  23.130  30.570
 1341BOLB   C4C32180  11.540  22.960  30.230
 1341BOLB   C1D32181  11.270  24.540  31.060
 1341BOLB   C2D32182  11.750  24.600  31.110
 1341BOLB   C3D32183  12.050  24.560  31.430
 1341BOLB   C4D32184  12.260  24.410  31.730
 1342BOLB   NC132185  17.290  17.120  46.130
 1342BOLB   PO132186  17.500  17.320  46.480
 1342BOLB   GL132187  17.630  17.470  46.120
 1342BOLB   GL232188  17.560  17.830  45.980
 1342BOLB   C1A32189  17.850  17.250  45.720
 1342BOLB   C2A32190  17.980  17.000  45.400
 1342BOLB   C3A32191  18.130  17.130  45.020
 1342BOLB   C4A32192  18.480  17.230  44.820
 1342BOLB   C1B32193  17.890  17.740  45.750
 1342BOLB   C2B32194  18.250  17.900  45.640
 1342BOLB   C3B32195  18.670  17.880  45.760
 1342BOLB   C4B32196  19.090  17.730  45.610
 1342BOLB   NC232197  18.200  15.740  46.930
 1342BOLB   PO232198  18.330  16.080  46.620
 1342BOLB   GL332199  18.540  16.410  46.490
 1342BOLB   GL432200  18.400  16.760  46.400
 1342BOLB   C1C32201  18.820  16.680  46.220
 1342BOLB   C2C32202  18.940  16.760  45.800
 1342BOLB   C3C32203  19.040  16.940  45.390
 1342BOLB   C4C32204  18.810  17.040  44.990
 1342BOLB   C1D32205  18.550  17.130  46.160
 1342BOLB   C2D32206  18.740  17.350  45.770
 1342BOLB   C3D32207  18.810  17.470  45.320
 1342BOLB   C4D32208  18.730  17.670  44.980
 1343BOLB   NC132209  22.750   8.270  36.240
 1343BOLB   PO132210  23.080   8.310  36.090
 1343BOLB   GL132211  23.120   7.880  36.190
 1343BOLB   GL232212  23.270   7.740  36.400
 1343BOLB   C1A32213  22.830   7.580  36.300
 1343BOLB   C2A32214  22.800   7.060  36.300
 1343BOLB   C3A32215  22.560   6.810  36.500
 1343BOLB   C4A32216  22.360   6.540  36.820
 1343BOLB   C1B32217  23.140   7.310  36.550
 1343BOLB   C2B32218  23.040   6.900  36.720
 1343BOLB   C3B32219  22.940   6.480  36.840
 1343BOLB   C4B32220  22.800   6.210  37.180
 1343BOLB   NC232221  21.800   4.970  38.860
 1343BOLB   PO232222  21.390   5.080  38.670
 1343BOLB   GL332223  21.570   5.460  38.400
 1343BOLB   GL432224  21.830   5.400  38.580
 1343BOLB   C1C32225  21.630   5.750  38.080
 1343BOLB   C2C32226  21.690   6.100  37.820
 1343BOLB   C3C32227  21.850   6.180  37.330
 1343BOLB   C4C32228  22.220   6.260  37.180
 1343BOLB   C1D32229  21.730   5.880  38.720
 1343BOLB   C2D32230  21.860   6.060  39.090
 1343BOLB   C3D32231  22.160   6.400  39.150
 1343BOLB   C4D32232  22.530   6.420  38.850
 1344BOLB   NC132233  27.935  17.170  37.230
 1344BOLB   PO132234  28.165  16.800  37.120
 1344BOLB   GL132235  28.595  17.040  37.220
 1344BOLB   GL232236  28.465  17.200  37.430
 1344BOLB   C1A32237  28.995  17.320  37.350
 1344BOLB   C2A32238  29.275  17.290  37.780
 1344BOLB   C3A32239  29.685  17.130  37.860
 1344BOLB   C4A32240  30.095  17.030  38.120
 1344BOLB   C1B32241  28.765  17.420  37.840
 1344BOLB   C2B32242  29.075  17.720  37.900
 1344BOLB   C3B32243  29.225  17.840  38.250
 1344BOLB   C4B32244  29.575  17.810  38.550
 1344BOLB   NC232245  31.985  17.420  39.690
 1344BOLB   PO232246  31.835  17.790  39.610
 1344BOLB   GL332247  31.615  17.580  39.380
 1344BOLB   GL432248  31.595  17.270  39.380
 1344BOLB   C1C32249  31.305  17.510  39.020
 1344BOLB   C2C32250  31.005  17.460  38.970
 1344BOLB   C3C32251  30.615  17.170  38.830
 1344BOLB   C4C32252  30.285  16.970  38.440
 1344BOLB   C1D32253  31.215  17.290  39.450
 1344BOLB   C2D32254  30.755  17.490  39.510
 1344BOLB   C3D32255  30.395  17.410  39.770
 1344BOLB   C4D32256  29.985  17.400  39.740
 1345BOLB   NC132257  20.370   9.370  30.670
 1345BOLB   PO132258  19.930   9.330  30.800
 1345BOLB   GL132259  19.740   9.020  30.560
 1345BOLB   GL232260  19.690   9.170  30.260
 1345BOLB   C1A32261  19.650   8.620  30.570
 1345BOLB   C2A32262  19.440   8.290  30.580
 1345BOLB   C3A32263  19.070   7.940  30.450
 1345BOLB   C4A32264  18.710   7.740  30.460
 1345BOLB   C1B32265  19.420   8.880  30.210
 1345BOLB   C2B32266  19.270   8.520  30.060
 1345BOLB   C3B32267  19.080   8.150  29.940
 1345BOLB   C4B32268  18.860   7.860  29.550
 1345BOLB   NC232269  16.820   6.140  30.440
 1345BOLB   PO232270  16.740   6.320  30.850
 1345BOLB   GL332271  17.180   6.490  30.790
 1345BOLB   GL432272  17.120   6.560  31.110
 1345BOLB   C1C32273  17.620   6.680  31.020
 1345BOLB   C2C32274  17.790   7.020  31.130
 1345BOLB   C3C32275  18.070   7.350  30.950
 1345BOLB   C4C32276  18.390   7.440  30.620
 1345BOLB   C1D32277  17.420   6.710  31.470
 1345BOLB   C2D32278  17.790   6.880  31.730
 1345BOLB   C3D32279  18.170   7.000  31.730
 1345BOLB   C4D32280  18.500   7.330  31.740
 1346BOLB   NC132281  21.920  22.150  40.410
 1346BOLB   PO132282  21.690  22.510  40.650
 1346BOLB   GL132283  21.720  22.940  40.400
 1346BOLB   GL232284  21.440  22.980  40.280
 1346BOLB   C1A32285  21.940  23.140  40.140
 1346BOLB   C2A32286  22.240  23.520  40.080
 1346BOLB   C3A32287  22.480  23.740  39.980
 1346BOLB   C4A32288  22.870  23.900  39.960
 1346BOLB   C1B32289  21.540  23.440  40.140
 1346BOLB   C2B32290  21.670  23.850  40.090
 1346BOLB   C3B32291  21.710  24.270  40.010
 1346BOLB   C4B32292  21.470  24.530  39.730
 1346BOLB   NC232293  24.460  25.950  40.570
 1346BOLB   PO232294  24.540  25.500  40.730
 1346BOLB   GL332295  24.270  25.210  40.630
 1346BOLB   GL432296  24.400  25.000  40.300
 1346BOLB   C1C32297  23.900  25.050  40.710
 1346BOLB   C2C32298  23.750  24.690  40.570
 1346BOLB   C3C32299  23.570  24.300  40.300
 1346BOLB   C4C32300  23.190  24.110  40.220
 1346BOLB   C1D32301  24.220  24.660  40.410
 1346BOLB   C2D32302  24.040  24.340  40.220
 1346BOLB   C3D32303  23.940  23.990  40.060
 1346BOLB   C4D32304  23.930  23.570  40.120
 1347BOLB   NC132305  13.910  18.640  34.200
 1347BOLB   PO132306  13.740  18.370  34.500
 1347BOLB   GL132307  13.310  18.200  34.490
 1347BOLB   GL232308  13.190  17.950  34.700
 1347BOLB   C1A32309  12.890  18.260  34.400
 1347BOLB   C2A32310  12.610  18.470  34.720
 1347BOLB   C3A32311  12.210  18.380  34.930
 1347BOLB   C4A32312  11.960  18.270  35.140
 1347BOLB   C1B32313  12.790  17.850  34.680
 1347BOLB   C2B32314  12.380  17.950  34.680
 1347BOLB   C3B32315  11.970  17.820  34.860
 1347BOLB   C4B32316  11.610  17.690  35.090
 1347BOLB   NC232317   9.610  17.910  34.840
 1347BOLB   PO232318   9.560  18.360  35.010
 1347BOLB   GL332319   9.970  18.250  35.170
 1347BOLB   GL432320   9.970  18.460  35.430
 1347BOLB   C1C32321  10.240  17.900  35.110
 1347BOLB   C2C32322  10.750  17.890  35.080
 1347BOLB   C3C32323  11.160  18.050  35.150
 1347BOLB   C4C32324  11.520  18.150  35.180
 1347BOLB   C1D32325  10.420  18.420  35.250
 1347BOLB   C2D32326  10.700  18.420  35.010
 1347BOLB   C3D32327  10.980  18.270  34.690
 1347BOLB   C4D32328  11.350  18.370  34.640
 1348BOLB   NC132329  28.475  14.860  30.280
 1348BOLB   PO132330  28.675  15.320  30.380
 1348BOLB   GL132331  28.995  15.440  30.370
 1348BOLB   GL232332  29.165  15.430  30.620
 1348BOLB   C1A32333  29.395  15.620  30.180
 1348BOLB   C2A32334  29.735  15.820  30.030
 1348BOLB   C3A32335  29.985  16.250  29.860
 1348BOLB   C4A32336  30.345  16.380  29.770
 1348BOLB   C1B32337  29.505  15.720  30.740
 1348BOLB   C2B32338  29.865  15.770  30.790
 1348BOLB   C3B32339  30.175  16.070  30.710
 1348BOLB   C4B32340  30.605  16.140  30.570
 1348BOLB   NC232341  32.915  17.080  30.210
 1348BOLB   PO232342  32.555  17.070  30.190
 1348BOLB   GL332343  32.175  17.080  30.250
 1348BOLB   GL432344  32.135  17.190  30.520
 1348BOLB   C1C32345  31.865  16.840  30.280
 1348BOLB   C2C32346  31.355  16.670  30.350
 1348BOLB   C3C32347  30.875  16.650  30.190
 1348BOLB   C4C32348  30.615  16.470  30.090
 1348BOLB   C1D32349  31.835  16.920  30.730
 1348BOLB   C2D32350  31.435  16.670  30.820
 1348BOLB   C3D32351  31.185  16.530  31.100
 1348BOLB   C4D32352  31.075  16.090  30.900
 1349BOLB   NC132353  24.030   7.510  34.900
 1349BOLB   PO132354  24.460   7.440  35.020
 1349BOLB   GL132355  24.610   7.050  35.180
 1349BOLB   GL232356  24.870   6.860  35.040
 1349BOLB   C1A32357  24.470   6.640  35.290
 1349BOLB   C2A32358  24.600   6.120  35.380
 1349BOLB   C3A32359  24.890   5.820  35.510
 1349BOLB   C4A32360  25.240   5.820  35.650
 1349BOLB   C1B32361  24.920   6.400  35.060
 1349BOLB   C2B32362  24.890   6.030  34.800
 1349BOLB   C3B32363  24.660   5.940  34.400
 1349BOLB   C4B32364  24.590   5.970  33.880
 1349BOLB   NC232365  27.015   3.980  36.720
 1349BOLB   PO232366  26.815   4.050  36.270
 1349BOLB   GL332367  26.825   4.440  36.090
 1349BOLB   GL432368  26.915   4.570  35.830
 1349BOLB   C1C32369  26.350   4.640  35.970
 1349BOLB   C2C32370  26.060   5.030  35.900
 1349BOLB   C3C32371  25.850   5.370  35.680
 1349BOLB   C4C32372  25.630   5.740  35.570
 1349BOLB   C1D32373  26.795   4.960  35.940
 1349BOLB   C2D32374  26.515   5.100  36.010
 1349BOLB   C3D32375  26.370   5.530  35.940
 1349BOLB   C4D32376  26.495   5.940  35.880
 1350BOLB   NC132377  25.570  16.920  31.300
 1350BOLB   PO132378  25.810  17.110  31.630
 1350BOLB   GL132379  25.960  17.490  31.460
 1350BOLB   GL232380  25.660  17.730  31.600
 1350BOLB   C1A32381  25.980  17.920  31.250
 1350BOLB   C2A32382  25.950  18.270  30.990
 1350BOLB   C3A32383  26.160  18.540  30.900
 1350BOLB   C4A32384  26.465  18.760  30.690
 1350BOLB   C1B32385  25.550  18.140  31.400
 1350BOLB   C2B32386  25.370  18.570  31.500
 1350BOLB   C3B32387  25.410  18.910  31.210
 1350BOLB   C4B32388  25.580  19.270  30.980
 1350BOLB   NC232389  27.555  21.310  30.440
 1350BOLB   PO232390  27.515  20.820  30.460
 1350BOLB   GL332391  27.295  20.490  30.420
 1350BOLB   GL432392  27.025  20.630  30.490
 1350BOLB   C1C32393  26.865  20.230  30.300
 1350BOLB   C2C32394  26.665  19.890  30.280
 1350BOLB   C3C32395  26.400  19.670  30.580
 1350BOLB   C4C32396  26.525  19.260  30.690
 1350BOLB   C1D32397  26.835  20.390  30.720
 1350BOLB   C2D32398  26.420  20.120  30.760
 1350BOLB   C3D32399  26.060  20.200  30.550
 1350BOLB   C4D32400  25.520  20.180  30.580
 1351BOLB   NC132401  12.150  23.260  39.910
 1351BOLB   PO132402  12.370  23.470  39.630
 1351BOLB   GL132403  12.600  23.180  39.330
 1351BOLB   GL232404  12.540  23.200  39.080
 1351BOLB   C1A32405  12.490  22.760  39.260
 1351BOLB   C2A32406  12.460  22.300  39.200
 1351BOLB   C3A32407  12.810  22.150  38.980
 1351BOLB   C4A32408  13.050  22.270  38.730
 1351BOLB   C1B32409  12.780  22.900  38.860
 1351BOLB   C2B32410  13.110  22.760  39.100
 1351BOLB   C3B32411  13.510  22.820  39.020
 1351BOLB   C4B32412  13.840  22.540  38.880
 1351BOLB   NC232413  12.680  24.400  38.620
 1351BOLB   PO232414  12.800  24.540  39.000
 1351BOLB   GL332415  13.040  24.100  38.870
 1351BOLB   GL432416  12.950  23.840  38.850
 1351BOLB   C1C32417  13.390  23.890  38.610
 1351BOLB   C2C32418  13.420  23.450  38.390
 1351BOLB   C3C32419  13.410  23.090  38.590
 1351BOLB   C4C32420  13.240  22.660  38.630
 1351BOLB   C1D32421  13.310  23.640  39.120
 1351BOLB   C2D32422  13.490  23.310  39.090
 1351BOLB   C3D32423  13.850  23.270  39.310
 1351BOLB   C4D32424  13.890  23.200  39.820
 1352BOLB   NC132425  25.430   8.170  36.070
 1352BOLB   PO132426  25.300   7.710  36.040
 1352BOLB   GL132427  25.000   7.380  36.180
 1352BOLB   GL232428  25.130   7.250  36.340
 1352BOLB   C1A32429  24.750   6.940  36.230
 1352BOLB   C2A32430  24.780   6.530  35.980
 1352BOLB   C3A32431  24.770   6.110  35.910
 1352BOLB   C4A32432  24.870   5.660  35.990
 1352BOLB   C1B32433  25.540   7.000  36.260
 1352BOLB   C2B32434  25.970   6.700  36.370
 1352BOLB   C3B32435  26.310   6.440  36.420
 1352BOLB   C4B32436  26.695   6.320  36.200
 1352BOLB   NC232437  24.180   3.990  37.650
 1352BOLB   PO232438  24.090   4.130  37.250
 1352BOLB   GL332439  24.350   4.360  37.040
 1352BOLB   GL432440  24.630   4.560  37.200
 1352BOLB   C1C32441  24.380   4.630  36.710
 1352BOLB   C2C32442  24.700   4.860  36.540
 1352BOLB   C3C32443  24.690   4.920  36.130
 1352BOLB   C4C32444  24.570   5.370  36.090
 1352BOLB   C1D32445  24.160   4.850  37.230
 1352BOLB   C2D32446  24.020   5.080  36.950
 1352BOLB   C3D32447  23.970   5.500  36.830
 1352BOLB   C4D32448  23.840   5.840  37.090
 1353BOLB   NC132449  25.490   8.940  38.380
 1353BOLB   PO132450  25.200   9.340  38.580
 1353BOLB   GL132451  25.170   9.070  38.920
 1353BOLB   GL232452  25.340   8.810  38.850
 1353BOLB   C1A32453  24.820   8.830  38.970
 1353BOLB   C2A32454  24.780   8.440  39.150
 1353BOLB   C3A32455  24.840   8.100  39.450
 1353BOLB   C4A32456  25.210   7.930  39.560
 1353BOLB   C1B32457  25.360   8.490  39.150
 1353BOLB   C2B32458  25.570   8.200  39.420
 1353BOLB   C3B32459  25.840   7.920  39.480
 1353BOLB   C4B32460  26.320   7.940  39.370
 1353BOLB   NC232461  26.220   6.450  41.650
 1353BOLB   PO232462  26.070   6.340  41.360
 1353BOLB   GL332463  26.110   6.520  40.940
 1353BOLB   GL432464  26.260   6.320  40.640
 1353BOLB   C1C32465  25.870   6.710  40.620
 1353BOLB   C2C32466  25.750   7.120  40.310
 1353BOLB   C3C32467  25.690   7.550  40.060
 1353BOLB   C4C32468  25.530   7.870  39.800
 1353BOLB   C1D32469  26.220   6.520  40.410
 1353BOLB   C2D32470  26.190   6.670  39.980
 1353BOLB   C3D32471  26.300   6.950  39.750
 1353BOLB   C4D32472  26.390   7.340  39.540
 1354BOLB   NC132473  25.750  16.410  42.340
 1354BOLB   PO132474  25.580  16.060  42.360
 1354BOLB   GL132475  25.960  15.990  42.550
 1354BOLB   GL232476  26.220  15.800  42.390
 1354BOLB   C1A32477  26.290  16.230  42.700
 1354BOLB   C2A32478  26.320  16.430  43.040
 1354BOLB   C3A32479  26.210  16.640  43.410
 1354BOLB   C4A32480  26.370  16.980  43.670
 1354BOLB   C1B32481  26.615  15.900  42.580
 1354BOLB   C2B32482  26.765  16.160  43.010
 1354BOLB   C3B32483  26.545  16.100  43.490
 1354BOLB   C4B32484  26.445  16.440  43.820
 1354BOLB   NC232485  28.915  17.510  44.320
 1354BOLB   PO232486  28.415  17.440  44.500
 1354BOLB   GL332487  28.235  17.340  44.150
 1354BOLB   GL432488  28.295  17.010  44.070
 1354BOLB   C1C32489  27.885  17.410  43.950
 1354BOLB   C2C32490  27.465  17.420  44.090
 1354BOLB   C3C32491  27.075  17.180  44.030
 1354BOLB   C4C32492  26.645  17.080  44.040
 1354BOLB   C1D32493  28.385  16.810  43.730
 1354BOLB   C2D32494  28.245  16.750  43.340
 1354BOLB   C3D32495  27.825  16.670  43.250
 1354BOLB   C4D32496  27.575  16.350  43.120
 1355BOLB   NC132497  29.415  12.280  29.830
 1355BOLB   PO132498  29.115  12.180  29.450
 1355BOLB   GL132499  29.515  12.230  29.350
 1355BOLB   GL232500  29.735  12.010  29.520
 1355BOLB   C1A32501  29.875  12.420  29.050
 1355BOLB   C2A32502  30.325  12.580  29.090
 1355BOLB   C3A32503  30.515  12.800  29.210
 1355BOLB   C4A32504  30.915  12.850  29.130
 1355BOLB   C1B32505  30.155  11.940  29.600
 1355BOLB   C2B32506  30.625  11.760  29.560
 1355BOLB   C3B32507  30.725  11.590  29.310
 1355BOLB   C4B32508  30.805  11.800  28.880
 1355BOLB   NC232509  33.595  12.480  28.800
 1355BOLB   PO232510  33.235  12.630  28.450
 1355BOLB   GL332511  32.855  12.770  28.400
 1355BOLB   GL432512  32.715  12.740  28.080
 1355BOLB   C1C32513  32.355  12.720  28.470
 1355BOLB   C2C32514  32.065  12.420  28.680
 1355BOLB   C3C32515  31.705  12.610  28.760
 1355BOLB   C4C32516  31.225  12.740  28.790
 1355BOLB   C1D32517  32.445  13.060  28.110
 1355BOLB   C2D32518  32.305  13.370  28.400
 1355BOLB   C3D32519  32.105  13.510  28.770
 1355BOLB   C4D32520  32.075  13.330  29.140
 1356BOLB   NC132521  23.920   8.100  28.050
 1356BOLB   PO132522  23.670   7.870  28.390
 1356BOLB   GL132523  23.900   7.550  28.220
 1356BOLB   GL232524  24.020   7.200  28.470
 1356BOLB   C1A32525  24.120   7.150  27.940
 1356BOLB   C2A32526  24.280   6.910  27.610
 1356BOLB   C3A32527  24.240   6.500  27.390
 1356BOLB   C4A32528  24.090   6.050  27.280
 1356BOLB   C1B32529  24.440   6.950  28.630
 1356BOLB   C2B32530  24.610   6.650  28.900
 1356BOLB   C3B32531  24.680   6.290  28.760
 1356BOLB   C4B32532  24.850   5.940  28.650
 1356BOLB   NC232533  25.040   3.920  26.410
 1356BOLB   PO232534  24.620   4.070  26.420
 1356BOLB   GL332535  24.600   4.460  26.290
 1356BOLB   GL432536  24.750   4.630  26.550
 1356BOLB   C1C32537  24.320   4.800  26.470
 1356BOLB   C2C32538  24.210   5.080  26.380
 1356BOLB   C3C32539  24.160   5.330  26.720
 1356BOLB   C4C32540  23.990   5.730  26.860
 1356BOLB   C1D32541  24.610   4.910  26.810
 1356BOLB   C2D32542  24.650   5.380  26.950
 1356BOLB   C3D32543  24.560   5.800  26.720
 1356BOLB   C4D32544  24.640   6.130  26.860
 1357BOLB   NC132545  24.540   8.520  28.260
 1357BOLB   PO132546  24.410   8.210  27.930
 1357BOLB   GL132547  24.450   7.730  27.860
 1357BOLB   GL232548  24.100   7.700  27.770
 1357BOLB   C1A32549  24.560   7.320  27.790
 1357BOLB   C2A32550  24.750   6.950  27.710
 1357BOLB   C3A32551  24.790   6.550  27.740
 1357BOLB   C4A32552  24.750   6.200  27.500
 1357BOLB   C1B32553  24.040   7.380  27.460
 1357BOLB   C2B32554  23.920   6.970  27.150
 1357BOLB   C3B32555  23.770   6.920  26.830
 1357BOLB   C4B32556  23.620   7.040  26.420
 1357BOLB   NC232557  23.980   3.860  26.570
 1357BOLB   PO232558  24.260   3.780  26.770
 1357BOLB   GL332559  24.290   4.200  26.980
 1357BOLB   GL432560  24.510   4.260  26.900
 1357BOLB   C1C32561  24.230   4.630  26.970
 1357BOLB   C2C32562  24.240   5.090  27.110
 1357BOLB   C3C32563  24.230   5.500  27.220
 1357BOLB   C4C32564  24.550   5.870  27.260
 1357BOLB   C1D32565  24.880   4.610  27.070
 1357BOLB   C2D32566  24.780   5.020  27.270
 1357BOLB   C3D32567  25.010   5.390  27.310
 1357BOLB   C4D32568  25.280   5.660  27.390
 1358BOLB   NC132569  24.670   8.480  36.960
 1358BOLB   PO132570  24.880   8.050  36.920
 1358BOLB   GL132571  24.930   7.670  37.180
 1358BOLB   GL232572  25.350   7.620  37.150
 1358BOLB   C1A32573  24.610   7.560  37.490
 1358BOLB   C2A32574  24.410   7.470  37.870
 1358BOLB   C3A32575  24.360   7.340  38.290
 1358BOLB   C4A32576  24.190   7.130  38.600
 1358BOLB   C1B32577  25.210   7.210  37.280
 1358BOLB   C2B32578  25.170   6.700  37.350
 1358BOLB   C3B32579  25.360   6.470  37.600
 1358BOLB   C4B32580  25.580   6.130  37.550
 1358BOLB   NC232581  23.930   5.220  40.860
 1358BOLB   PO232582  23.720   5.610  40.770
 1358BOLB   GL332583  23.830   5.870  40.330
 1358BOLB   GL432584  24.110   6.090  40.470
 1358BOLB   C1C32585  23.920   6.100  40.000
 1358BOLB   C2C32586  23.920   6.440  39.670
 1358BOLB   C3C32587  24.130   6.620  39.430
 1358BOLB   C4C32588  24.220   6.840  38.940
 1358BOLB   C1D32589  24.290   6.370  40.230
 1358BOLB   C2D32590  24.580   6.680  40.410
 1358BOLB   C3D32591  24.320   7.100  40.380
 1358BOLB   C4D32592  24.410   7.380  40.010
 1359BOLB   NC132593  14.010  20.220  36.300
 1359BOLB   PO132594  13.940  20.280  35.900
 1359BOLB   GL132595  13.500  20.210  36.050
 1359BOLB   GL232596  13.400  20.040  36.220
 1359BOLB   C1A32597  13.060  20.360  36.130
 1359BOLB   C2A32598  12.560  20.510  36.200
 1359BOLB   C3A32599  12.290  20.810  36.460
 1359BOLB   C4A32600  12.040  20.710  36.660
 1359BOLB   C1B32601  13.130  19.740  36.460
 1359BOLB   C2B32602  12.690  19.620  36.510
 1359BOLB   C3B32603  12.320  19.600  36.670
 1359BOLB   C4B32604  12.200  19.780  36.900
 1359BOLB   NC232605  10.130  21.000  36.500
 1359BOLB   PO232606  10.000  20.660  36.710
 1359BOLB   GL332607  10.210  20.830  37.000
 1359BOLB   GL432608  10.430  21.000  36.950
 1359BOLB   C1C32609  10.560  20.570  37.210
 1359BOLB   C2C32610  10.980  20.610  37.190
 1359BOLB   C3C32611  11.390  20.690  37.090
 1359BOLB   C4C32612  11.610  20.770  36.780
 1359BOLB   C1D32613  10.720  21.060  37.240
 1359BOLB   C2D32614  11.090  21.110  37.390
 1359BOLB   C3D32615  11.540  21.170  37.340
 1359BOLB   C4D32616  11.760  21.570  37.010
 1360BOLB   NC132617  23.870  19.670  41.610
 1360BOLB   PO132618  24.140  19.700  41.910
 1360BOLB   GL132619  24.390  20.060  42.020
 1360BOLB   GL232620  24.640  20.320  41.820
 1360BOLB   C1A32621  24.660  20.230  42.330
 1360BOLB   C2A32622  24.800  20.380  42.720
 1360BOLB   C3A32623  25.110  20.570  42.940
 1360BOLB   C4A32624  25.370  20.890  42.960
 1360BOLB   C1B32625  24.440  20.640  42.110
 1360BOLB   C2B32626  24.640  21.060  42.410
 1360BOLB   C3B32627  24.890  21.100  42.640
 1360BOLB   C4B32628  25.050  21.370  42.640
 1360BOLB   NC232629  26.370  22.970  42.650
 1360BOLB   PO232630  26.865  22.870  42.790
 1360BOLB   GL332631  26.685  22.530  42.520
 1360BOLB   GL432632  26.465  22.470  42.170
 1360BOLB   C1C32633  26.715  22.140  42.780
 1360BOLB   C2C32634  26.485  21.730  42.720
 1360BOLB   C3C32635  26.210  21.310  42.690
 1360BOLB   C4C32636  25.810  21.160  42.660
 1360BOLB   C1D32637  26.070  22.580  42.240
 1360BOLB   C2D32638  25.870  22.170  42.310
 1360BOLB   C3D32639  25.610  22.080  42.650
 1360BOLB   C4D32640  25.170  22.130  42.560
 1361BOLB   NC132641  16.940  17.050  22.810
 1361BOLB   PO132642  16.540  17.150  22.920
 1361BOLB   GL132643  16.290  17.020  22.740
 1361BOLB   GL232644  15.970  17.200  22.610
 1361BOLB   C1A32645  16.310  17.230  22.190
 1361BOLB   C2A32646  16.090  17.210  21.830
 1361BOLB   C3A32647  15.870  16.960  21.610
 1361BOLB   C4A32648  15.510  17.000  21.480
 1361BOLB   C1B32649  15.530  17.250  22.550
 1361BOLB   C2B32650  15.260  16.830  22.430
 1361BOLB   C3B32651  14.790  16.840  22.200
 1361BOLB   C4B32652  14.470  16.510  22.200
 1361BOLB   NC232653  14.850  17.300  19.090
 1361BOLB   PO232654  14.510  17.060  19.190
 1361BOLB   GL332655  14.390  17.220  19.600
 1361BOLB   GL432656  14.190  17.010  19.750
 1361BOLB   C1C32657  14.460  17.450  20.050
 1361BOLB   C2C32658  14.620  17.290  20.410
 1361BOLB   C3C32659  14.820  17.150  20.810
 1361BOLB   C4C32660  15.250  17.120  21.090
 1361BOLB   C1D32661  14.440  16.840  20.180
 1361BOLB   C2D32662  14.890  16.840  20.330
 1361BOLB   C3D32663  15.130  16.840  20.640
 1361BOLB   C4D32664  15.530  17.020  20.580
 1362BOLB   NC132665  26.150  24.570  29.480
 1362BOLB   PO132666  25.910  24.610  29.860
 1362BOLB   GL132667  25.450  24.540  29.890
 1362BOLB   GL232668  25.190  24.680  29.970
 1362BOLB   C1A32669  25.400  24.050  29.960
 1362BOLB   C2A32670  25.000  23.720  29.910
 1362BOLB   C3A32671  24.750  23.660  29.620
 1362BOLB   C4A32672  24.650  23.920  29.200
 1362BOLB   C1B32673  24.800  24.440  30.160
 1362BOLB   C2B32674  24.820  24.140  30.470
 1362BOLB   C3B32675  24.580  23.810  30.680
 1362BOLB   C4B32676  24.160  23.680  30.900
 1362BOLB   NC232677  24.480  26.040  28.810
 1362BOLB   PO232678  24.780  25.940  29.140
 1362BOLB   GL332679  24.500  25.550  29.000
 1362BOLB   GL432680  24.160  25.680  28.910
 1362BOLB   C1C32681  24.480  25.130  29.110
 1362BOLB   C2C32682  24.230  24.780  28.890
 1362BOLB   C3C32683  24.260  24.380  28.700
 1362BOLB   C4C32684  24.280  23.960  28.860
 1362BOLB   C1D32685  23.870  25.310  28.850
 1362BOLB   C2D32686  23.460  25.200  29.050
 1362BOLB   C3D32687  23.130  24.980  29.310
 1362BOLB   C4D32688  22.630  24.900  29.430
 1363BOLB   NC132689  16.540  13.200  30.910
 1363BOLB   PO132690  16.530  12.930  31.080
 1363BOLB   GL132691  16.150  12.660  31.090
 1363BOLB   GL232692  16.090  12.490  31.430
 1363BOLB   C1A32693  15.860  12.420  30.830
 1363BOLB   C2A32694  15.570  12.120  30.860
 1363BOLB   C3A32695  15.300  11.730  30.770
 1363BOLB   C4A32696  15.110  11.340  30.930
 1363BOLB   C1B32697  16.110  12.050  31.470
 1363BOLB   C2B32698  15.890  11.640  31.540
 1363BOLB   C3B32699  15.850  11.290  31.840
 1363BOLB   C4B32700  15.660  10.910  32.040
 1363BOLB   NC232701  13.530   9.340  29.830
 1363BOLB   PO232702  13.900   9.210  30.030
 1363BOLB   GL332703  13.960   9.650  30.000
 1363BOLB   GL432704  13.860   9.680  29.640
 1363BOLB   C1C32705  14.310   9.920  30.280
 1363BOLB   C2C32706  14.670  10.230  30.490
 1363BOLB   C3C32707  14.690  10.570  30.760
 1363BOLB   C4C32708  15.060  10.850  30.820
 1363BOLB   C1D32709  14.260   9.830  29.660
 1363BOLB   C2D32710  14.540   9.890  29.360
 1363BOLB   C3D32711  14.910  10.040  29.140
 1363BOLB   C4D32712  15.200  10.280  29.280
 1364BOLB   NC132713  17.960  24.340  37.060
 1364BOLB   PO132714  17.550  24.190  36.940
 1364BOLB   GL132715  17.440  24.490  37.280
 1364BOLB   GL232716  17.460  24.840  37.180
 1364BOLB   C1A32717  17.280  24.900  37.610
 1364BOLB   C2A32718  17.070  25.220  37.490
 1364BOLB   C3A32719  16.910  25.490  37.170
 1364BOLB   C4A32720  17.060  25.850  37.160
 1364BOLB   C1B32721  17.340  25.180  37.020
 1364BOLB   C2B32722  17.290  25.520  36.850
 1364BOLB   C3B32723  17.200  25.910  36.660
 1364BOLB   C4B32724  16.950  26.130  36.480
 1364BOLB   NC232725  15.610   1.820  38.160
 1364BOLB   PO232726  15.770   1.580  37.710
 1364BOLB   GL332727  16.110   1.380  37.620
 1364BOLB   GL432728  16.220   1.370  37.330
 1364BOLB   C1C32729  16.450   0.990  37.690
 1364BOLB   C2C32730  16.720   0.580  37.630
 1364BOLB   C3C32731  16.900   0.120  37.500
 1364BOLB   C4C32732  16.890  26.190  37.280
 1364BOLB   C1D32733  16.120   1.060  37.150
 1364BOLB   C2D32734  15.920   0.610  37.150
 1364BOLB   C3D32735  15.990   0.130  37.170
 1364BOLB   C4D32736  16.390  26.240  37.070
 1365BOLB   NC132737  27.915   9.880  37.490
 1365BOLB   PO132738  28.275   9.960  37.310
 1365BOLB   GL132739  28.555   9.830  37.630
 1365BOLB   GL232740  28.725   9.580  37.680
 1365BOLB   C1A32741  28.375   9.540  37.960
 1365BOLB   C2A32742  28.405   9.150  38.250
 1365BOLB   C3A32743  28.575   8.770  38.170
 1365BOLB   C4A32744  28.455   8.320  38.280
 1365BOLB   C1B32745  28.925   9.230  37.930
 1365BOLB   C2B32746  29.145   8.910  37.860
 1365BOLB   C3B32747  29.505   8.690  37.640
 1365BOLB   C4B32748  29.755   8.740  37.240
 1365BOLB   NC232749  29.275   6.350  39.170
 1365BOLB   PO232750  29.585   6.490  38.960
 1365BOLB   GL332751  29.495   6.860  38.870
 1365BOLB   GL432752  29.665   7.130  38.820
 1365BOLB   C1C32753  29.485   7.020  38.400
 1365BOLB   C2C32754  29.105   7.180  38.140
 1365BOLB   C3C32755  28.935   7.510  38.320
 1365BOLB   C4C32756  28.585   7.870  38.150
 1365BOLB   C1D32757  29.235   7.330  38.750
 1365BOLB   C2D32758  29.145   7.840  38.630
 1365BOLB   C3D32759  28.905   8.140  38.740
 1365BOLB   C4D32760  28.835   8.540  38.810
 1366BOLB   NC132761  27.805  17.260  35.840
 1366BOLB   PO132762  27.975  17.380  36.160
 1366BOLB   GL132763  28.265  17.700  36.110
 1366BOLB   GL232764  28.505  17.470  36.190
 1366BOLB   C1A32765  28.555  17.960  36.060
 1366BOLB   C2A32766  28.915  18.040  36.010
 1366BOLB   C3A32767  29.195  18.390  36.010
 1366BOLB   C4A32768  29.405  18.630  35.740
 1366BOLB   C1B32769  28.995  17.540  36.120
 1366BOLB   C2B32770  29.335  17.630  35.870
 1366BOLB   C3B32771  29.365  18.070  35.630
 1366BOLB   C4B32772  29.665  18.330  35.340
 1366BOLB   NC232773  31.205  20.360  35.240
 1366BOLB   PO232774  30.995  20.120  34.820
 1366BOLB   GL332775  30.715  19.900  34.850
 1366BOLB   GL432776  30.445  20.030  34.880
 1366BOLB   C1C32777  30.415  19.410  34.900
 1366BOLB   C2C32778  30.235  19.000  34.950
 1366BOLB   C3C32779  30.085  18.800  35.320
 1366BOLB   C4C32780  29.865  18.850  35.670
 1366BOLB   C1D32781  29.965  20.220  34.940
 1366BOLB   C2D32782  29.535  20.110  34.970
 1366BOLB   C3D32783  29.155  20.060  35.030
 1366BOLB   C4D32784  28.865  20.040  34.790
 1367BOLB   NC132785  13.780  16.840  32.090
 1367BOLB   PO132786  14.040  16.450  31.860
 1367BOLB   GL132787  13.640  16.400  31.760
 1367BOLB   GL232788  13.520  16.460  32.010
 1367BOLB   C1A32789  13.310  16.050  31.760
 1367BOLB   C2A32790  13.160  15.570  31.780
 1367BOLB   C3A32791  12.810  15.240  31.760
 1367BOLB   C4A32792  12.540  14.930  31.970
 1367BOLB   C1B32793  13.070  16.370  32.060
 1367BOLB   C2B32794  12.730  16.220  32.100
 1367BOLB   C3B32795  12.410  16.190  31.850
 1367BOLB   C4B32796  12.080  16.070  31.580
 1367BOLB   NC232797  11.030  13.550  31.990
 1367BOLB   PO232798  11.390  13.340  32.190
 1367BOLB   GL332799  11.650  13.350  32.520
 1367BOLB   GL432800  11.760  13.020  32.620
 1367BOLB   C1C32801  11.950  13.580  32.640
 1367BOLB   C2C32802  12.370  13.810  32.430
 1367BOLB   C3C32803  12.600  14.160  32.340
 1367BOLB   C4C32804  12.600  14.490  32.330
 1367BOLB   C1D32805  12.170  13.070  32.550
 1367BOLB   C2D32806  12.500  13.300  32.600
 1367BOLB   C3D32807  12.790  13.600  32.690
 1367BOLB   C4D32808  13.050  13.880  32.450
 1368BOLB   NC132809  29.455  11.650  32.630
 1368BOLB   PO132810  29.695  11.850  32.990
 1368BOLB   GL132811  30.225  11.890  32.980
 1368BOLB   GL232812  30.375  12.070  33.210
 1368BOLB   C1A32813  30.655  11.680  33.020
 1368BOLB   C2A32814  31.135  11.490  33.020
 1368BOLB   C3A32815  31.555  11.470  32.990
 1368BOLB   C4A32816  31.995  11.570  32.950
 1368BOLB   C1B32817  30.645  12.200  33.020
 1368BOLB   C2B32818  31.065  12.410  32.990
 1368BOLB   C3B32819  31.475  12.460  32.910
 1368BOLB   C4B32820  31.825  12.680  32.880
 1368BOLB   NC232821  33.535  11.110  32.800
 1368BOLB   PO232822  33.295  10.630  32.760
 1368BOLB   GL332823  33.105  10.980  32.960
 1368BOLB   GL432824  33.135  10.840  33.230
 1368BOLB   C1C32825  32.825  11.230  33.220
 1368BOLB   C2C32826  32.755  11.550  33.500
 1368BOLB   C3C32827  32.555  11.780  33.310
 1368BOLB   C4C32828  32.175  11.810  33.070
 1368BOLB   C1D32829  32.755  10.770  33.400
 1368BOLB   C2D32830  32.315  10.710  33.620
 1368BOLB   C3D32831  31.875  10.760  33.650
 1368BOLB   C4D32832  31.645  10.970  33.800
 1369BOLB   NC132833  22.580  13.720  42.800
 1369BOLB   PO132834  22.150  13.860  42.630
 1369BOLB   GL132835  22.000  13.670  43.040
 1369BOLB   GL232836  21.600  13.660  43.110
 1369BOLB   C1A32837  22.140  13.480  43.360
 1369BOLB   C2A32838  22.060  13.290  43.810
 1369BOLB   C3A32839  22.060  13.390  44.240
 1369BOLB   C4A32840  22.250  13.430  44.560
 1369BOLB   C1B32841  21.290  13.460  43.450
 1369BOLB   C2B32842  21.280  13.620  43.880
 1369BOLB   C3B32843  21.350  13.470  44.340
 1369BOLB   C4B32844  21.740  13.290  44.590
 1369BOLB   NC232845  22.940  12.930  46.630
 1369BOLB   PO232846  22.860  13.230  46.900
 1369BOLB   GL332847  22.880  13.450  46.520
 1369BOLB   GL432848  22.750  13.740  46.550
 1369BOLB   C1C32849  22.910  13.310  46.100
 1369BOLB   C2C32850  22.730  13.000  45.780
 1369BOLB   C3C32851  22.690  13.160  45.360
 1369BOLB   C4C32852  22.340  13.280  44.920
 1369BOLB   C1D32853  22.880  13.880  46.040
 1369BOLB   C2D32854  22.910  14.050  45.660
 1369BOLB   C3D32855  23.060  14.210  45.410
 1369BOLB   C4D32856  23.320  14.270  45.010
 1370BOLB   NC132857  11.930   0.530  31.560
 1370BOLB   PO132858  11.720   0.290  31.900
 1370BOLB   GL132859  12.060   0.060  31.700
 1370BOLB   GL232860  12.380   0.070  31.420
 1370BOLB   C1A32861  12.290  26.160  31.900
 1370BOLB   C2A32862  12.290  25.800  32.090
 1370BOLB   C3A32863  12.380  25.310  32.190
 1370BOLB   C4A32864  12.480  25.140  32.630
 1370BOLB   C1B32865  12.350  26.160  31.320
 1370BOLB   C2B32866  12.720  25.790  31.210
 1370BOLB   C3B32867  13.070  25.930  31.270
 1370BOLB   C4B32868  13.490  25.830  31.020
 1370BOLB   NC232869  11.070  25.740  32.090
 1370BOLB   PO232870  11.120  25.740  32.590
 1370BOLB   GL332871  11.030  25.340  32.920
 1370BOLB   GL432872  11.340  25.360  33.120
 1370BOLB   C1C32873  11.290  24.930  32.850
 1370BOLB   C2C32874  11.660  24.720  32.860
 1370BOLB   C3C32875  12.020  24.620  32.990
 1370BOLB   C4C32876  12.310  24.800  32.930
 1370BOLB   C1D32877  11.490  24.920  33.380
 1370BOLB   C2D32878  11.890  24.690  33.500
 1370BOLB   C3D32879  12.360  24.780  33.480
 1370BOLB   C4D32880  12.540  25.170  33.570
 1371BOLB   NC132881  23.560  16.530  42.780
 1371BOLB   PO132882  23.600  16.040  42.990
 1371BOLB   GL132883  23.850  15.930  43.340
 1371BOLB   GL232884  23.970  15.610  43.460
 1371BOLB   C1A32885  23.880  16.080  43.780
 1371BOLB   C2A32886  23.920  16.080  44.200
 1371BOLB   C3A32887  23.780  15.930  44.540
 1371BOLB   C4A32888  23.500  15.820  44.940
 1371BOLB   C1B32889  24.320  15.840  43.690
 1371BOLB   C2B32890  24.620  15.800  44.060
 1371BOLB   C3B32891  24.730  15.660  44.470
 1371BOLB   C4B32892  25.120  15.820  44.780
 1371BOLB   NC232893  24.120  16.180  47.350
 1371BOLB   PO232894  23.650  16.270  47.370
 1371BOLB   GL332895  23.640  16.220  46.930
 1371BOLB   GL432896  23.360  16.320  46.800
 1371BOLB   C1C32897  23.600  15.990  46.490
 1371BOLB   C2C32898  23.390  15.870  46.110
 1371BOLB   C3C32899  23.320  15.580  45.750
 1371BOLB   C4C32900  23.310  15.640  45.300
 1371BOLB   C1D32901  23.040  16.130  46.480
 1371BOLB   C2D32902  22.980  16.070  46.050
 1371BOLB   C3D32903  22.950  15.920  45.710
 1371BOLB   C4D32904  22.790  15.880  45.280
 1372BOLB   NC132905  20.200   1.760  27.320
 1372BOLB   PO132906  20.590   1.570  27.500
 1372BOLB   GL132907  20.520   1.090  27.720
 1372BOLB   GL232908  20.680   0.820  27.670
 1372BOLB   C1A32909  20.280   0.760  27.960
 1372BOLB   C2A32910  20.410   0.360  28.200
 1372BOLB   C3A32911  20.490  26.420  28.310
 1372BOLB   C4A32912  20.650   0.010  28.760
 1372BOLB   C1B32913  20.850   0.550  27.880
 1372BOLB   C2B32914  20.910   0.260  28.180
 1372BOLB   C3B32915  21.040   0.010  28.470
 1372BOLB   C4B32916  21.320  26.140  28.630
 1372BOLB   NC232917  22.560   1.300  28.180
 1372BOLB   PO232918  22.300   0.950  27.950
 1372BOLB   GL332919  22.200   0.590  28.150
 1372BOLB   GL432920  22.200   0.510  28.530
 1372BOLB   C1C32921  21.820   0.280  28.180
 1372BOLB   C2C32922  21.570   0.160  28.470
 1372BOLB   C3C32923  21.370   0.180  28.870
 1372BOLB   C4C32924  21.030   0.100  29.000
 1372BOLB   C1D32925  21.780   0.550  28.680
 1372BOLB   C2D32926  21.470   0.660  29.000
 1372BOLB   C3D32927  21.250   0.960  29.220
 1372BOLB   C4D32928  21.070   1.320  29.500
 1373BOLB   NC132929  19.360  10.620  27.600
 1373BOLB   PO132930  19.440  10.380  27.220
 1373BOLB   GL132931  19.200  10.080  27.580
 1373BOLB   GL232932  18.970  10.210  27.610
 1373BOLB   C1A32933  19.000   9.600  27.670
 1373BOLB   C2A32934  19.140   9.300  27.870
 1373BOLB   C3A32935  19.100   8.890  27.910
 1373BOLB   C4A32936  19.120   8.500  28.000
 1373BOLB   C1B32937  18.510  10.260  27.440
 1373BOLB   C2B32938  18.110  10.100  27.290
 1373BOLB   C3B32939  17.770   9.800  27.140
 1373BOLB   C4B32940  17.390   9.550  26.960
 1373BOLB   NC232941  17.370   6.630  29.320
 1373BOLB   PO232942  17.800   6.790  29.010
 1373BOLB   GL332943  18.030   7.000  28.850
 1373BOLB   GL432944  18.230   6.900  28.660
 1373BOLB   C1C32945  18.290   7.390  28.760
 1373BOLB   C2C32946  18.590   7.690  28.710
 1373BOLB   C3C32947  18.700   8.160  28.590
 1373BOLB   C4C32948  19.000   8.380  28.350
 1373BOLB   C1D32949  18.610   7.160  28.500
 1373BOLB   C2D32950  18.880   7.080  28.230
 1373BOLB   C3D32951  19.230   6.840  28.100
 1373BOLB   C4D32952  19.320   6.400  28.020
 1374BOLB   NC132953  25.270  19.700  41.370
 1374BOLB   PO132954  25.280  19.460  40.990
 1374BOLB   GL132955  25.670  19.680  41.040
 1374BOLB   GL232956  25.880  19.890  40.730
 1374BOLB   C1A32957  25.960  19.880  41.250
 1374BOLB   C2A32958  26.410  20.030  41.410
 1374BOLB   C3A32959  26.625  20.000  41.820
 1374BOLB   C4A32960  26.715  20.280  42.120
 1374BOLB   C1B32961  26.260  19.990  40.710
 1374BOLB   C2B32962  26.665  20.100  40.810
 1374BOLB   C3B32963  26.955  19.990  41.110
 1374BOLB   C4B32964  27.215  20.210  41.270
 1374BOLB   NC232965  27.305  22.160  43.970
 1374BOLB   PO232966  27.615  21.830  44.010
 1374BOLB   GL332967  27.455  21.610  43.620
 1374BOLB   GL432968  27.485  21.660  43.310
 1374BOLB   C1C32969  27.305  21.250  43.250
 1374BOLB   C2C32970  27.285  21.010  42.850
 1374BOLB   C3C32971  27.045  20.820  42.490
 1374BOLB   C4C32972  26.685  20.620  42.310
 1374BOLB   C1D32973  27.045  21.680  43.160
 1374BOLB   C2D32974  26.565  21.490  43.180
 1374BOLB   C3D32975  26.290  21.080  43.130
 1374BOLB   C4D32976  26.020  20.650  43.210
 1375BOLB   NC132977  23.490   9.990  23.980
 1375BOLB   PO132978  23.630   9.980  24.450
 1375BOLB   GL132979  23.660   9.470  24.310
 1375BOLB   GL232980  23.760   9.550  24.020
 1375BOLB   C1A32981  23.910   9.110  24.220
 1375BOLB   C2A32982  23.890   8.700  24.060
 1375BOLB   C3A32983  23.760   8.350  23.940
 1375BOLB   C4A32984  23.460   8.210  23.710
 1375BOLB   C1B32985  23.650   9.490  23.580
 1375BOLB   C2B32986  23.890   9.360  23.270
 1375BOLB   C3B32987  23.900   8.980  23.230
 1375BOLB   C4B32988  24.000   8.580  23.060
 1375BOLB   NC232989  22.840   6.740  22.150
 1375BOLB   PO232990  22.750   6.370  22.410
 1375BOLB   GL332991  22.870   6.730  22.620
 1375BOLB   GL432992  22.550   6.830  22.860
 1375BOLB   C1C32993  22.960   7.100  22.840
 1375BOLB   C2C32994  22.980   7.310  23.220
 1375BOLB   C3C32995  23.260   7.490  23.460
 1375BOLB   C4C32996  23.420   7.830  23.590
 1375BOLB   C1D32997  22.480   7.020  23.150
 1375BOLB   C2D32998  22.410   7.370  23.290
 1375BOLB   C3D32999  22.360   7.640  23.730
 1375BOLB   C4D33000  22.520   7.900  24.030
 1376BOLB   NC133001  25.150  20.110  36.480
 1376BOLB   PO133002  25.620  20.230  36.330
 1376BOLB   GL133003  25.760  20.680  36.390
 1376BOLB   GL233004  25.600  20.870  36.660
 1376BOLB   C1A33005  26.100  20.930  36.360
 1376BOLB   C2A33006  26.340  21.310  36.240
 1376BOLB   C3A33007  26.390  21.760  36.190
 1376BOLB   C4A33008  26.495  22.190  35.960
 1376BOLB   C1B33009  25.710  21.190  36.350
 1376BOLB   C2B33010  25.950  21.460  36.010
 1376BOLB   C3B33011  26.270  21.430  35.780
 1376BOLB   C4B33012  26.575  21.650  35.690
 1376BOLB   NC233013  27.405  24.230  35.540
 1376BOLB   PO233014  27.675  24.170  35.180
 1376BOLB   GL333015  27.385  23.890  35.190
 1376BOLB   GL433016  27.465  23.710  34.960
 1376BOLB   C1C33017  27.285  23.510  35.410
 1376BOLB   C2C33018  27.145  23.200  35.690
 1376BOLB   C3C33019  26.995  22.940  35.980
 1376BOLB   C4C33020  26.785  22.500  36.140
 1376BOLB   C1D33021  27.675  23.360  35.100
 1376BOLB   C2D33022  27.345  23.030  35.140
 1376BOLB   C3D33023  26.895  22.810  35.320
 1376BOLB   C4D33024  26.465  22.680  35.450
 1377BOLB   NC133025  24.350  12.780  22.070
 1377BOLB   PO133026  23.960  12.850  22.130
 1377BOLB   GL133027  23.840  12.530  21.900
 1377BOLB   GL233028  23.910  12.310  22.160
 1377BOLB   C1A33029  23.940  12.450  21.420
 1377BOLB   C2A33030  23.990  12.390  20.870
 1377BOLB   C3A33031  24.400  12.250  20.720
 1377BOLB   C4A33032  24.500  12.350  20.330
 1377BOLB   C1B33033  24.050  12.000  21.740
 1377BOLB   C2B33034  24.150  11.910  21.480
 1377BOLB   C3B33035  24.360  11.790  21.110
 1377BOLB   C4B33036  24.840  11.580  21.090
 1377BOLB   NC233037  23.600  11.790  18.100
 1377BOLB   PO233038  23.880  12.020  17.900
 1377BOLB   GL333039  23.970  12.050  18.370
 1377BOLB   GL433040  23.650  12.140  18.550
 1377BOLB   C1C33041  24.150  12.360  18.650
 1377BOLB   C2C33042  24.480  12.510  18.950
 1377BOLB   C3C33043  24.620  12.530  19.460
 1377BOLB   C4C33044  24.620  12.390  19.930
 1377BOLB   C1D33045  23.650  12.250  18.910
 1377BOLB   C2D33046  23.650  12.160  19.340
 1377BOLB   C3D33047  23.580  11.850  19.580
 1377BOLB   C4D33048  23.400  11.480  19.650
 1378BOLB   NC133049  25.790   7.220  31.390
 1378BOLB   PO133050  25.420   7.270  31.300
 1378BOLB   GL133051  25.320   6.960  31.450
 1378BOLB   GL233052  25.260   6.580  31.240
 1378BOLB   C1A33053  25.110   6.670  31.750
 1378BOLB   C2A33054  24.780   6.430  32.080
 1378BOLB   C3A33055  24.530   6.150  32.310
 1378BOLB   C4A33056  24.360   5.760  32.470
 1378BOLB   C1B33057  25.540   6.450  31.610
 1378BOLB   C2B33058  25.810   6.020  31.800
 1378BOLB   C3B33059  26.090   5.760  32.000
 1378BOLB   C4B33060  26.455   5.660  32.180
 1378BOLB   NC233061  23.120   3.150  31.920
 1378BOLB   PO233062  23.430   3.380  31.890
 1378BOLB   GL333063  23.610   3.810  32.020
 1378BOLB   GL433064  23.780   3.870  31.740
 1378BOLB   C1C33065  23.600   4.220  32.390
 1378BOLB   C2C33066  23.790   4.560  32.420
 1378BOLB   C3C33067  23.980   4.940  32.570
 1378BOLB   C4C33068  24.090   5.430  32.480
 1378BOLB   C1D33069  23.980   4.280  32.000
 1378BOLB   C2D33070  23.710   4.610  31.930
 1378BOLB   C3D33071  23.350   4.720  32.240
 1378BOLB   C4D33072  23.060   4.990  32.510
 1379BOLB   NC133073  17.640   5.740  33.340
 1379BOLB   PO133074  18.010   6.010  33.400
 1379BOLB   GL133075  18.340   6.240  33.580
 1379BOLB   GL233076  18.490   6.160  34.010
 1379BOLB   C1A33077  18.670   6.470  33.490
 1379BOLB   C2A33078  18.820   6.800  33.520
 1379BOLB   C3A33079  19.290   6.910  33.470
 1379BOLB   C4A33080  19.600   6.820  33.200
 1379BOLB   C1B33081  18.680   6.600  33.980
 1379BOLB   C2B33082  18.820   7.020  34.010
 1379BOLB   C3B33083  18.790   7.530  34.060
 1379BOLB   C4B33084  18.740   7.990  34.190
 1379BOLB   NC233085  18.980   4.790  32.080
 1379BOLB   PO233086  19.470   4.900  31.880
 1379BOLB   GL333087  19.400   5.300  32.030
 1379BOLB   GL433088  19.650   5.300  32.120
 1379BOLB   C1C33089  19.160   5.730  32.050
 1379BOLB   C2C33090  19.170   6.110  32.160
 1379BOLB   C3C33091  19.500   6.240  32.390
 1379BOLB   C4C33092  19.590   6.540  32.720
 1379BOLB   C1D33093  19.720   5.770  31.870
 1379BOLB   C2D33094  19.860   6.180  31.990
 1379BOLB   C3D33095  20.120   6.540  31.970
 1379BOLB   C4D33096  19.930   6.900  31.870
 1380BOLB   NC133097  21.250   9.210  33.150
 1380BOLB   PO133098  21.020   8.790  32.910
 1380BOLB   GL133099  21.120   8.370  33.050
 1380BOLB   GL233100  20.980   8.080  32.840
 1380BOLB   C1A33101  21.120   7.940  33.240
 1380BOLB   C2A33102  21.030   7.620  33.470
 1380BOLB   C3A33103  21.060   7.200  33.400
 1380BOLB   C4A33104  20.990   6.830  33.630
 1380BOLB   C1B33105  21.010   7.840  32.400
 1380BOLB   C2B33106  20.770   7.590  32.030
 1380BOLB   C3B33107  20.490   7.310  32.070
 1380BOLB   C4B33108  20.200   6.990  32.250
 1380BOLB   NC233109  20.830   3.910  33.200
 1380BOLB   PO233110  20.860   4.300  33.240
 1380BOLB   GL333111  20.890   4.710  33.240
 1380BOLB   GL433112  20.630   4.880  33.040
 1380BOLB   C1C33113  20.830   5.070  33.580
 1380BOLB   C2C33114  20.920   5.580  33.750
 1380BOLB   C3C33115  20.790   5.840  33.680
 1380BOLB   C4C33116  20.830   6.300  33.630
 1380BOLB   C1D33117  20.940   5.190  33.080
 1380BOLB   C2D33118  21.200   5.510  33.320
 1380BOLB   C3D33119  21.670   5.780  33.370
 1380BOLB   C4D33120  22.110   5.930  33.100
 1381BOLB   NC133121  24.610  14.940  42.560
 1381BOLB   PO133122  25.000  14.860  42.730
 1381BOLB   GL133123  24.970  14.760  43.040
 1381BOLB   GL233124  25.080  15.030  43.230
 1381BOLB   C1A33125  25.170  14.570  43.400
 1381BOLB   C2A33126  25.410  14.550  43.700
 1381BOLB   C3A33127  25.350  14.270  44.150
 1381BOLB   C4A33128  25.130  14.490  44.510
 1381BOLB   C1B33129  25.140  15.030  43.640
 1381BOLB   C2B33130  25.050  14.780  43.970
 1381BOLB   C3B33131  24.830  14.460  44.000
 1381BOLB   C4B33132  24.630  14.270  44.450
 1381BOLB   NC233133  26.845  14.140  46.320
 1381BOLB   PO233134  26.420  14.080  46.230
 1381BOLB   GL333135  26.370  13.940  45.910
 1381BOLB   GL433136  26.565  14.200  45.770
 1381BOLB   C1C33137  26.070  13.970  45.670
 1381BOLB   C2C33138  25.890  14.280  45.480
 1381BOLB   C3C33139  25.570  14.450  45.190
 1381BOLB   C4C33140  25.450  14.590  44.780
 1381BOLB   C1D33141  26.585  14.130  45.370
 1381BOLB   C2D33142  26.495  14.210  44.890
 1381BOLB   C3D33143  26.380  14.550  44.650
 1381BOLB   C4D33144  26.040  14.600  44.400
 1382BOLB   NC133145  21.800  23.810  32.930
 1382BOLB   PO133146  21.380  23.920  33.000
 1382BOLB   GL133147  21.730  24.250  33.140
 1382BOLB   GL233148  22.130  24.050  33.200
 1382BOLB   C1A33149  22.020  24.550  33.210
 1382BOLB   C2A33150  22.420  24.570  33.400
 1382BOLB   C3A33151  22.810  24.590  33.310
 1382BOLB   C4A33152  23.280  24.740  33.220
 1382BOLB   C1B33153  22.330  24.250  32.980
 1382BOLB   C2B33154  22.590  24.560  32.750
 1382BOLB   C3B33155  22.960  24.630  32.700
 1382BOLB   C4B33156  23.100  24.990  32.600
 1382BOLB   NC233157  25.010  26.070  33.710
 1382BOLB   PO233158  25.150  25.920  33.990
 1382BOLB   GL333159  24.980  25.520  33.660
 1382BOLB   GL433160  24.870  25.220  33.840
 1382BOLB   C1C33161  24.860  25.290  33.310
 1382BOLB   C2C33162  24.490  25.110  33.200
 1382BOLB   C3C33163  24.140  25.030  33.090
 1382BOLB   C4C33164  23.760  24.730  33.030
 1382BOLB   C1D33165  24.700  24.730  33.650
 1382BOLB   C2D33166  24.410  24.470  33.810
 1382BOLB   C3D33167  24.270  24.250  34.180
 1382BOLB   C4D33168  24.420  23.850  34.420
 1383BOLB   NC133169  17.270  24.120  26.480
 1383BOLB   PO133170  17.740  23.980  26.240
 1383BOLB   GL133171  17.770  24.370  26.180
 1383BOLB   GL233172  18.110  24.580  26.120
 1383BOLB   C1A33173  17.530  24.690  26.080
 1383BOLB   C2A33174  17.310  24.810  25.660
 1383BOLB   C3A33175  17.020  24.980  25.450
 1383BOLB   C4A33176  16.770  25.220  25.260
 1383BOLB   C1B33177  18.260  24.970  26.020
 1383BOLB   C2B33178  18.520  25.300  25.740
 1383BOLB   C3B33179  18.840  25.340  25.400
 1383BOLB   C4B33180  18.920  25.000  25.040
 1383BOLB   NC233181  15.640   0.920  24.380
 1383BOLB   PO233182  15.820   0.590  24.500
 1383BOLB   GL333183  16.090   0.350  24.460
 1383BOLB   GL433184  16.220   0.380  24.200
 1383BOLB   C1C33185  16.200  26.410  24.450
 1383BOLB   C2C33186  16.340  26.020  24.410
 1383BOLB   C3C33187  16.440  25.590  24.650
 1383BOLB   C4C33188  16.540  25.300  24.960
 1383BOLB   C1D33189  16.540   0.380  24.520
 1383BOLB   C2D33190  16.720   0.150  24.760
 1383BOLB   C3D33191  17.000  26.370  24.910
 1383BOLB   C4D33192  17.180  26.260  25.160
 1384BOLB   NC133193  22.700   8.810  27.030
 1384BOLB   PO133194  22.510   9.180  26.780
 1384BOLB   GL133195  22.250   8.880  26.600
 1384BOLB   GL233196  22.240   8.690  26.840
 1384BOLB   C1A33197  22.080   8.680  26.290
 1384BOLB   C2A33198  21.980   8.310  26.110
 1384BOLB   C3A33199  21.880   7.890  25.920
 1384BOLB   C4A33200  21.790   7.460  25.830
 1384BOLB   C1B33201  22.370   8.340  26.560
 1384BOLB   C2B33202  22.050   7.970  26.480
 1384BOLB   C3B33203  22.000   7.560  26.300
 1384BOLB   C4B33204  22.050   7.140  26.190
 1384BOLB   NC233205  21.730   5.170  25.580
 1384BOLB   PO233206  21.930   4.830  25.540
 1384BOLB   GL333207  22.200   5.290  25.690
 1384BOLB   GL433208  22.440   5.190  25.920
 1384BOLB   C1C33209  22.120   5.770  25.780
 1384BOLB   C2C33210  22.060   6.260  25.770
 1384BOLB   C3C33211  21.820   6.620  25.630
 1384BOLB   C4C33212  21.760   7.000  25.680
 1384BOLB   C1D33213  22.560   5.570  25.970
 1384BOLB   C2D33214  22.630   6.000  26.030
 1384BOLB   C3D33215  22.550   6.350  25.920
 1384BOLB   C4D33216  22.220   6.650  26.020
 1385BOLB   NC133217  13.900  17.410  33.270
 1385BOLB   PO133218  14.040  17.010  32.940
 1385BOLB   GL133219  13.590  16.970  33.020
 1385BOLB   GL233220  13.490  16.770  33.380
 1385BOLB   C1A33221  13.100  17.020  33.090
 1385BOLB   C2A33222  12.780  17.040  32.790
 1385BOLB   C3A33223  12.470  16.780  32.850
 1385BOLB   C4A33224  11.980  16.620  32.880
 1385BOLB   C1B33225  13.250  16.600  33.620
 1385BOLB   C2B33226  12.800  16.460  33.700
 1385BOLB   C3B33227  12.350  16.320  33.690
 1385BOLB   C4B33228  12.000  15.900  33.700
 1385BOLB   NC233229  10.430  14.790  32.790
 1385BOLB   PO233230  10.200  15.200  32.630
 1385BOLB   GL333231  10.450  15.510  32.570
 1385BOLB   GL433232  10.770  15.480  32.710
 1385BOLB   C1C33233  10.650  15.920  32.450
 1385BOLB   C2C33234  10.920  16.240  32.370
 1385BOLB   C3C33235  11.230  16.320  32.660
 1385BOLB   C4C33236  11.660  16.360  32.760
 1385BOLB   C1D33237  11.120  15.590  32.990
 1385BOLB   C2D33238  11.440  15.610  33.220
 1385BOLB   C3D33239  11.900  15.520  33.280
 1385BOLB   C4D33240  12.170  15.740  33.020
 1386BOLB   NC133241  22.160  14.550  43.140
 1386BOLB   PO133242  22.430  14.840  43.170
 1386BOLB   GL133243  22.150  14.970  43.470
 1386BOLB   GL233244  22.360  15.220  43.660
 1386BOLB   C1A33245  21.940  14.820  43.850
 1386BOLB   C2A33246  22.160  15.000  44.190
 1386BOLB   C3A33247  21.960  15.280  44.420
 1386BOLB   C4A33248  21.890  15.420  44.860
 1386BOLB   C1B33249  22.360  15.420  44.090
 1386BOLB   C2B33250  22.510  15.220  44.530
 1386BOLB   C3B33251  22.290  15.090  44.850
 1386BOLB   C4B33252  22.000  14.890  45.170
 1386BOLB   NC233253  20.860  14.970  47.100
 1386BOLB   PO233254  20.550  14.790  46.760
 1386BOLB   GL333255  20.780  14.970  46.590
 1386BOLB   GL433256  20.740  14.850  46.330
 1386BOLB   C1C33257  21.060  15.250  46.480
 1386BOLB   C2C33258  21.240  15.330  46.090
 1386BOLB   C3C33259  21.270  15.320  45.550
 1386BOLB   C4C33260  21.660  15.460  45.300
 1386BOLB   C1D33261  20.860  15.080  46.030
 1386BOLB   C2D33262  20.830  15.290  45.660
 1386BOLB   C3D33263  20.870  15.600  45.320
 1386BOLB   C4D33264  21.230  15.720  44.970
 1387BOLB   NC133265  27.095  18.400  36.620
 1387BOLB   PO133266  27.025  18.510  37.060
 1387BOLB   GL133267  27.215  18.820  36.900
 1387BOLB   GL233268  27.035  19.110  37.000
 1387BOLB   C1A33269  27.545  19.080  36.900
 1387BOLB   C2A33270  27.785  19.380  37.030
 1387BOLB   C3A33271  27.785  19.790  37.150
 1387BOLB   C4A33272  27.915  20.180  36.900
 1387BOLB   C1B33273  27.135  19.360  36.820
 1387BOLB   C2B33274  27.465  19.700  36.760
 1387BOLB   C3B33275  27.815  20.000  36.440
 1387BOLB   C4B33276  28.055  19.940  36.140
 1387BOLB   NC233277  29.695  21.980  36.810
 1387BOLB   PO233278  29.575  21.730  36.450
 1387BOLB   GL333279  29.195  21.520  36.550
 1387BOLB   GL433280  29.375  21.150  36.580
 1387BOLB   C1C33281  28.815  21.290  36.480
 1387BOLB   C2C33282  28.805  20.910  36.360
 1387BOLB   C3C33283  28.555  20.700  36.660
 1387BOLB   C4C33284  28.125  20.450  36.640
 1387BOLB   C1D33285  29.325  20.690  36.260
 1387BOLB   C2D33286  28.935  20.410  36.350
 1387BOLB   C3D33287  28.775  20.200  36.690
 1387BOLB   C4D33288  28.985  19.900  36.870
 1388BOLB   NC133289  18.060  12.400  26.080
 1388BOLB   PO133290  17.700  12.490  26.370
 1388BOLB   GL133291  17.420  12.250  26.180
 1388BOLB   GL233292  17.530  11.910  26.270
 1388BOLB   C1A33293  17.020  12.120  25.990
 1388BOLB   C2A33294  16.630  12.060  25.830
 1388BOLB   C3A33295  16.230  12.200  25.680
 1388BOLB   C4A33296  16.040  11.990  25.300
 1388BOLB   C1B33297  17.130  11.800  26.330
 1388BOLB   C2B33298  16.810  11.720  26.250
 1388BOLB   C3B33299  16.420  11.520  26.270
 1388BOLB   C4B33300  15.980  11.420  26.380
 1388BOLB   NC233301  14.330  10.760  24.590
 1388BOLB   PO233302  14.250  10.970  24.220
 1388BOLB   GL333303  14.400  11.340  24.310
 1388BOLB   GL433304  14.500  11.410  24.110
 1388BOLB   C1C33305  14.790  11.320  24.590
 1388BOLB   C2C33306  15.280  11.340  24.720
 1388BOLB   C3C33307  15.640  11.510  24.880
 1388BOLB   C4C33308  15.950  11.650  25.070
 1388BOLB   C1D33309  14.850  11.570  24.040
 1388BOLB   C2D33310  15.230  11.780  24.120
 1388BOLB   C3D33311  15.280  12.190  24.420
 1388BOLB   C4D33312  15.260  12.670  24.440
 1389BOLB   NC133313  14.910  26.160  22.400
 1389BOLB   PO133314  14.640  25.860  22.180
 1389BOLB   GL133315  14.720  25.700  22.600
 1389BOLB   GL233316  14.600  25.370  22.500
 1389BOLB   C1A33317  14.970  25.470  22.860
 1389BOLB   C2A33318  15.250  25.160  23.050
 1389BOLB   C3A33319  15.200  24.930  23.440
 1389BOLB   C4A33320  15.130  24.760  23.790
 1389BOLB   C1B33321  14.710  25.000  22.570
 1389BOLB   C2B33322  14.950  24.700  22.300
 1389BOLB   C3B33323  15.080  24.290  22.080
 1389BOLB   C4B33324  15.400  24.300  21.790
 1389BOLB   NC233325  13.020  25.650  24.720
 1389BOLB   PO233326  13.220  25.720  24.270
 1389BOLB   GL333327  13.450  25.440  24.060
 1389BOLB   GL433328  13.350  25.220  23.880
 1389BOLB   C1C33329  13.830  25.340  24.260
 1389BOLB   C2C33330  14.240  25.200  24.180
 1389BOLB   C3C33331  14.490  24.930  24.240
 1389BOLB   C4C33332  14.890  24.670  24.160
 1389BOLB   C1D33333  13.440  24.960  24.210
 1389BOLB   C2D33334  13.550  24.750  24.610
 1389BOLB   C3D33335  13.700  24.470  24.810
 1389BOLB   C4D33336  14.030  24.650  25.010
 1390BOLB   NC133337  26.420  10.080  38.270
 1390BOLB   PO133338  26.010   9.970  38.530
 1390BOLB   GL133339  26.100   9.550  38.890
 1390BOLB   GL233340  26.190   9.540  39.290
 1390BOLB   C1A33341  26.300   9.100  39.000
 1390BOLB   C2A33342  26.545   8.920  39.260
 1390BOLB   C3A33343  26.505   8.590  39.570
 1390BOLB   C4A33344  26.545   8.260  39.750
 1390BOLB   C1B33345  25.940   9.250  39.340
 1390BOLB   C2B33346  26.070   8.860  39.430
 1390BOLB   C3B33347  26.070   8.350  39.590
 1390BOLB   C4B33348  26.120   8.120  40.010
 1390BOLB   NC233349  26.935   6.200  41.140
 1390BOLB   PO233350  27.095   6.120  40.820
 1390BOLB   GL333351  26.915   6.420  40.550
 1390BOLB   GL433352  26.765   6.490  40.730
 1390BOLB   C1C33353  26.675   6.740  40.340
 1390BOLB   C2C33354  26.685   7.020  40.040
 1390BOLB   C3C33355  26.725   7.450  40.010
 1390BOLB   C4C33356  26.655   7.830  39.770
 1390BOLB   C1D33357  26.515   6.770  40.790
 1390BOLB   C2D33358  26.230   7.060  40.520
 1390BOLB   C3D33359  26.210   7.320  40.170
 1390BOLB   C4D33360  26.240   7.660  39.940
 1391BOLB   NC133361  28.215   9.190  29.080
 1391BOLB   PO133362  28.285   9.400  28.650
 1391BOLB   GL133363  28.305   8.920  28.640
 1391BOLB   GL233364  28.455   8.850  28.490
 1391BOLB   C1A33365  28.525   8.430  28.670
 1391BOLB   C2A33366  28.645   8.190  28.300
 1391BOLB   C3A33367  28.815   7.910  28.000
 1391BOLB   C4A33368  28.735   7.780  27.580
 1391BOLB   C1B33369  28.655   8.700  28.120
 1391BOLB   C2B33370  28.955   8.430  27.980
 1391BOLB   C3B33371  29.365   8.060  28.260
 1391BOLB   C4B33372  29.695   7.830  28.340
 1391BOLB   NC233373  29.375   5.750  26.810
 1391BOLB   PO233374  29.695   6.060  26.640
 1391BOLB   GL333375  29.585   6.410  26.810
 1391BOLB   GL433376  29.835   6.690  26.870
 1391BOLB   C1C33377  29.365   6.730  26.900
 1391BOLB   C2C33378  29.215   7.050  27.050
 1391BOLB   C3C33379  28.765   7.120  27.120
 1391BOLB   C4C33380  28.625   7.370  27.270
 1391BOLB   C1D33381  29.705   7.110  27.060
 1391BOLB   C2D33382  29.595   7.430  27.320
 1391BOLB   C3D33383  29.705   7.670  27.640
 1391BOLB   C4D33384  29.545   8.090  27.800
 1392BOLB   NC133385  19.620  15.550  42.020
 1392BOLB   PO133386  19.420  15.870  42.350
 1392BOLB   GL133387  19.240  15.600  42.710
 1392BOLB   GL233388  18.910  15.640  42.660
 1392BOLB   C1A33389  19.230  15.270  43.030
 1392BOLB   C2A33390  18.940  15.140  43.350
 1392BOLB   C3A33391  18.970  14.980  43.780
 1392BOLB   C4A33392  19.020  14.740  44.100
 1392BOLB   C1B33393  18.760  15.490  42.990
 1392BOLB   C2B33394  18.470  15.390  43.200
 1392BOLB   C3B33395  18.130  15.090  43.380
 1392BOLB   C4B33396  17.890  14.790  43.620
 1392BOLB   NC233397  18.330  13.780  46.040
 1392BOLB   PO233398  18.550  13.970  46.350
 1392BOLB   GL333399  18.760  14.150  45.910
 1392BOLB   GL433400  18.520  14.300  45.780
 1392BOLB   C1C33401  18.930  14.160  45.450
 1392BOLB   C2C33402  19.070  14.080  45.060
 1392BOLB   C3C33403  19.090  14.130  44.730
 1392BOLB   C4C33404  19.140  14.270  44.390
 1392BOLB   C1D33405  18.500  14.270  45.280
 1392BOLB   C2D33406  18.560  13.960  44.860
 1392BOLB   C3D33407  18.380  13.580  44.760
 1392BOLB   C4D33408  18.220  13.320  44.530
 1393BOLB   NC133409  15.120  21.590  37.060
 1393BOLB   PO133410  14.740  21.230  36.940
 1393BOLB   GL133411  14.350  21.480  37.020
 1393BOLB   GL233412  14.060  21.430  36.710
 1393BOLB   C1A33413  13.920  21.840  37.070
 1393BOLB   C2A33414  13.470  21.730  37.200
 1393BOLB   C3A33415  13.050  21.720  37.320
 1393BOLB   C4A33416  12.810  21.400  37.570
 1393BOLB   C1B33417  13.710  21.630  36.660
 1393BOLB   C2B33418  13.360  21.900  36.600
 1393BOLB   C3B33419  12.920  22.020  36.830
 1393BOLB   C4B33420  12.650  22.120  37.170
 1393BOLB   NC233421   9.860  21.430  37.700
 1393BOLB   PO233422  10.250  21.640  37.450
 1393BOLB   GL333423  10.610  21.820  37.400
 1393BOLB   GL433424  10.760  22.120  37.230
 1393BOLB   C1C33425  11.010  21.680  37.370
 1393BOLB   C2C33426  11.590  21.680  37.420
 1393BOLB   C3C33427  12.050  21.610  37.520
 1393BOLB   C4C33428  12.350  21.370  37.670
 1393BOLB   C1D33429  11.200  22.060  37.190
 1393BOLB   C2D33430  11.610  22.110  37.120
 1393BOLB   C3D33431  11.840  22.020  36.750
 1393BOLB   C4D33432  12.060  22.160  36.340
 1394BOLB   NC133433  11.670  18.930  21.450
 1394BOLB   PO133434  11.840  19.250  21.440
 1394BOLB   GL133435  11.850  19.090  21.890
 1394BOLB   GL233436  12.110  18.770  21.720
 1394BOLB   C1A33437  11.940  19.110  22.290
 1394BOLB   C2A33438  11.980  18.890  22.690
 1394BOLB   C3A33439  12.440  18.580  22.740
 1394BOLB   C4A33440  12.830  18.500  22.840
 1394BOLB   C1B33441  12.440  18.900  22.070
 1394BOLB   C2B33442  12.800  18.930  22.310
 1394BOLB   C3B33443  13.000  18.950  22.730
 1394BOLB   C4B33444  13.210  18.750  23.050
 1394BOLB   NC233445  12.210  17.240  21.490
 1394BOLB   PO233446  12.070  17.670  21.270
 1394BOLB   GL333447  12.460  17.660  21.560
 1394BOLB   GL433448  12.640  17.340  21.750
 1394BOLB   C1C33449  12.860  17.840  21.640
 1394BOLB   C2C33450  13.160  18.010  21.940
 1394BOLB   C3C33451  13.340  18.140  22.370
 1394BOLB   C4C33452  13.130  18.380  22.630
 1394BOLB   C1D33453  13.070  17.410  21.600
 1394BOLB   C2D33454  13.500  17.550  21.750
 1394BOLB   C3D33455  13.700  17.840  22.100
 1394BOLB   C4D33456  13.920  17.860  22.480
 1395BOLB   NC133457  23.210  10.900  39.800
 1395BOLB   PO133458  23.030  10.470  40.000
 1395BOLB   GL133459  22.810  10.050  40.140
 1395BOLB   GL233460  22.650   9.940  39.940
 1395BOLB   C1A33461  22.850   9.800  40.430
 1395BOLB   C2A33462  22.900   9.760  40.920
 1395BOLB   C3A33463  23.000   9.680  41.350
 1395BOLB   C4A33464  22.810   9.520  41.680
 1395BOLB   C1B33465  22.820   9.480  39.980
 1395BOLB   C2B33466  22.830   9.110  39.900
 1395BOLB   C3B33467  22.690   8.720  39.970
 1395BOLB   C4B33468  22.280   8.540  40.130
 1395BOLB   NC233469  22.050   7.870  43.130
 1395BOLB   PO233470  22.330   7.740  42.880
 1395BOLB   GL333471  22.380   8.040  42.730
 1395BOLB   GL433472  22.660   7.980  42.530
 1395BOLB   C1C33473  22.300   8.520  42.630
 1395BOLB   C2C33474  22.390   8.930  42.590
 1395BOLB   C3C33475  22.550   9.180  42.330
 1395BOLB   C4C33476  22.610   9.560  41.990
 1395BOLB   C1D33477  22.570   8.190  42.150
 1395BOLB   C2D33478  22.560   8.300  41.810
 1395BOLB   C3D33479  22.570   8.360  41.450
 1395BOLB   C4D33480  22.520   8.460  40.960
 1396BOLB   NC133481  23.150  21.310  33.140
 1396BOLB   PO133482  23.270  21.250  32.750
 1396BOLB   GL133483  23.700  21.360  32.710
 1396BOLB   GL233484  23.770  21.370  32.390
 1396BOLB   C1A33485  24.100  21.450  32.860
 1396BOLB   C2A33486  24.540  21.400  32.820
 1396BOLB   C3A33487  24.850  21.570  32.520
 1396BOLB   C4A33488  25.270  21.740  32.720
 1396BOLB   C1B33489  24.200  21.430  32.310
 1396BOLB   C2B33490  24.480  21.350  31.930
 1396BOLB   C3B33491  24.890  21.460  31.680
 1396BOLB   C4B33492  25.220  21.770  31.520
 1396BOLB   NC233493  26.350  23.200  31.600
 1396BOLB   PO233494  26.695  22.950  31.850
 1396BOLB   GL333495  26.390  22.780  31.950
 1396BOLB   GL433496  26.250  22.660  31.690
 1396BOLB   C1C33497  26.140  22.650  32.190
 1396BOLB   C2C33498  25.870  22.650  32.370
 1396BOLB   C3C33499  25.750  22.430  32.710
 1396BOLB   C4C33500  25.490  22.130  32.750
 1396BOLB   C1D33501  26.070  22.280  31.850
 1396BOLB   C2D33502  25.870  22.170  32.230
 1396BOLB   C3D33503  25.820  21.810  32.400
 1396BOLB   C4D33504  25.790  21.510  32.650
 1397BOLB   NC133505  20.210  13.120  22.780
 1397BOLB   PO133506  19.980  13.510  22.700
 1397BOLB   GL133507  19.730  13.300  22.460
 1397BOLB   GL233508  19.930  13.250  22.160
 1397BOLB   C1A33509  19.320  13.300  22.300
 1397BOLB   C2A33510  19.080  13.290  21.950
 1397BOLB   C3A33511  18.920  12.880  21.780
 1397BOLB   C4A33512  19.010  12.470  21.490
 1397BOLB   C1B33513  19.660  13.060  22.000
 1397BOLB   C2B33514  19.370  12.840  21.870
 1397BOLB   C3B33515  19.540  12.580  21.620
 1397BOLB   C4B33516  19.480  12.590  21.210
 1397BOLB   NC233517  18.390  11.310  19.770
 1397BOLB   PO233518  18.780  11.340  19.420
 1397BOLB   GL333519  18.760  11.650  19.750
 1397BOLB   GL433520  18.690  11.960  19.600
 1397BOLB   C1C33521  18.750  11.710  20.190
 1397BOLB   C2C33522  18.530  11.660  20.510
 1397BOLB   C3C33523  18.590  11.870  20.940
 1397BOLB   C4C33524  18.750  12.030  21.330
 1397BOLB   C1D33525  18.780  12.170  20.010
 1397BOLB   C2D33526  18.750  12.510  20.260
 1397BOLB   C3D33527  18.850  12.750  20.550
 1397BOLB   C4D33528  18.850  12.870  21.060
 1398BOLB   NC133529  14.790  19.910  37.430
 1398BOLB   PO133530  14.620  19.480  37.620
 1398BOLB   GL133531  14.260  19.690  37.620
 1398BOLB   GL233532  13.990  19.470  37.530
 1398BOLB   C1A33533  13.740  19.940  37.640
 1398BOLB   C2A33534  13.310  19.980  37.770
 1398BOLB   C3A33535  12.810  19.860  37.780
 1398BOLB   C4A33536  12.360  20.020  37.690
 1398BOLB   C1B33537  13.580  19.550  37.260
 1398BOLB   C2B33538  13.140  19.660  37.360
 1398BOLB   C3B33539  13.010  20.120  37.420
 1398BOLB   C4B33540  12.760  20.430  37.520
 1398BOLB   NC233541  10.280  21.470  37.920
 1398BOLB   PO233542  10.160  21.060  37.940
 1398BOLB   GL333543  10.520  20.820  37.740
 1398BOLB   GL433544  10.450  20.510  37.800
 1398BOLB   C1C33545  10.910  20.760  37.710
 1398BOLB   C2C33546  11.380  20.790  37.840
 1398BOLB   C3C33547  11.680  20.470  37.870
 1398BOLB   C4C33548  12.170  20.330  37.640
 1398BOLB   C1D33549  10.700  20.230  37.500
 1398BOLB   C2D33550  10.740  19.880  37.480
 1398BOLB   C3D33551  10.550  19.590  37.200
 1398BOLB   C4D33552  10.640  19.580  36.740
 1399BOLB   NC133553  16.620  15.750  24.100
 1399BOLB   PO133554  16.680  15.750  23.570
 1399BOLB   GL133555  16.600  15.580  23.180
 1399BOLB   GL233556  16.320  15.440  23.190
 1399BOLB   C1A33557  16.800  15.580  22.780
 1399BOLB   C2A33558  16.860  15.640  22.350
 1399BOLB   C3A33559  16.900  15.520  21.910
 1399BOLB   C4A33560  16.690  15.270  21.550
 1399BOLB   C1B33561  16.380  15.340  22.770
 1399BOLB   C2B33562  16.690  15.190  22.400
 1399BOLB   C3B33563  16.470  15.190  21.980
 1399BOLB   C4B33564  16.310  15.010  21.510
 1399BOLB   NC233565  16.100  13.790  19.160
 1399BOLB   PO233566  16.440  14.190  19.230
 1399BOLB   GL333567  16.630  14.100  19.630
 1399BOLB   GL433568  16.690  13.860  19.890
 1399BOLB   C1C33569  16.820  14.380  20.100
 1399BOLB   C2C33570  16.890  14.600  20.470
 1399BOLB   C3C33571  16.800  14.680  20.920
 1399BOLB   C4C33572  16.720  14.960  21.260
 1399BOLB   C1D33573  16.500  13.970  20.190
 1399BOLB   C2D33574  16.560  14.160  20.540
 1399BOLB   C3D33575  16.830  14.130  20.850
 1399BOLB   C4D33576  17.070  14.240  21.190
 1400BOLB   NC133577  18.810  24.830  32.570
 1400BOLB   PO133578  19.030  24.680  32.210
 1400BOLB   GL133579  19.020  25.010  32.110
 1400BOLB   GL233580  19.390  25.150  31.860
 1400BOLB   C1A33581  18.910  25.380  31.870
 1400BOLB   C2A33582  18.810  25.820  31.790
 1400BOLB   C3A33583  18.670  26.280  31.870
 1400BOLB   C4A33584  18.400   0.170  32.040
 1400BOLB   C1B33585  19.360  25.390  32.140
 1400BOLB   C2B33586  19.360  25.880  32.220
 1400BOLB   C3B33587  18.960  26.200  32.330
 1400BOLB   C4B33588  18.570   0.030  32.560
 1400BOLB   NC233589  17.770   2.050  31.380
 1400BOLB   PO233590  17.440   2.240  31.670
 1400BOLB   GL333591  17.410   1.850  31.650
 1400BOLB   GL433592  17.240   1.820  31.400
 1400BOLB   C1C33593  17.590   1.460  31.660
 1400BOLB   C2C33594  17.640   1.110  31.800
 1400BOLB   C3C33595  17.980   0.890  32.060
 1400BOLB   C4C33596  18.180   0.530  32.180
 1400BOLB   C1D33597  17.170   1.400  31.520
 1400BOLB   C2D33598  16.810   1.050  31.450
 1400BOLB   C3D33599  16.670   0.750  31.570
 1400BOLB   C4D33600  16.540   0.450  31.830
 1401BOLB   NC133601  13.420  20.610  32.320
 1401BOLB   PO133602  13.210  20.790  32.010
 1401BOLB   GL133603  12.870  20.570  31.930
 1401BOLB   GL233604  12.740  20.670  32.200
 1401BOLB   C1A33605  12.580  20.220  31.860
 1401BOLB   C2A33606  12.140  20.170  31.820
 1401BOLB   C3A33607  11.810  20.360  31.640
 1401BOLB   C4A33608  11.450  20.490  31.580
 1401BOLB   C1B33609  12.370  20.780  32.370
 1401BOLB   C2B33610  12.060  21.020  32.540
 1401BOLB   C3B33611  11.700  21.150  32.570
 1401BOLB   C4B33612  11.410  21.360  32.870
 1401BOLB   NC233613   9.020  21.380  32.080
 1401BOLB   PO233614   9.160  21.020  32.340
 1401BOLB   GL333615   9.490  21.220  31.970
 1401BOLB   GL433616   9.270  21.210  31.670
 1401BOLB   C1C33617   9.880  21.150  31.980
 1401BOLB   C2C33618  10.290  21.140  31.830
 1401BOLB   C3C33619  10.720  21.000  31.740
 1401BOLB   C4C33620  10.960  20.650  31.600
 1401BOLB   C1D33621   9.590  21.180  31.430
 1401BOLB   C2D33622  10.060  21.140  31.400
 1401BOLB   C3D33623  10.410  20.890  31.340
 1401BOLB   C4D33624  10.730  20.690  31.090
 1402BOLB   NC133625  26.605  11.380  24.490
 1402BOLB   PO133626  26.545  11.620  24.150
 1402BOLB   GL133627  26.985  11.480  24.010
 1402BOLB   GL233628  27.005  11.670  23.840
 1402BOLB   C1A33629  27.205  11.190  23.830
 1402BOLB   C2A33630  27.225  10.820  23.560
 1402BOLB   C3A33631  27.545  10.710  23.320
 1402BOLB   C4A33632  27.705  10.390  23.110
 1402BOLB   C1B33633  27.505  11.550  23.730
 1402BOLB   C2B33634  27.605  11.230  23.490
 1402BOLB   C3B33635  27.475  11.170  23.160
 1402BOLB   C4B33636  27.095  11.280  22.820
 1402BOLB   NC233637  28.995   9.250  21.380
 1402BOLB   PO233638  28.655   9.010  21.550
 1402BOLB   GL333639  28.165   9.010  21.820
 1402BOLB   GL433640  28.385   9.010  22.060
 1402BOLB   C1C33641  27.955   9.440  21.980
 1402BOLB   C2C33642  28.065   9.860  21.970
 1402BOLB   C3C33643  28.015  10.140  22.370
 1402BOLB   C4C33644  27.965  10.130  22.770
 1402BOLB   C1D33645  28.275   9.010  22.510
 1402BOLB   C2D33646  28.085   9.230  22.800
 1402BOLB   C3D33647  27.805   9.460  22.970
 1402BOLB   C4D33648  27.605   9.760  23.080
 1403BOLB   NC133649  17.030  17.980  41.270
 1403BOLB   PO133650  16.930  17.680  40.920
 1403BOLB   GL133651  16.540  17.770  41.150
 1403BOLB   GL233652  16.570  18.030  41.410
 1403BOLB   C1A33653  16.120  17.840  41.350
 1403BOLB   C2A33654  15.710  17.990  41.400
 1403BOLB   C3A33655  15.440  18.120  41.700
 1403BOLB   C4A33656  15.120  18.040  42.000
 1403BOLB   C1B33657  16.340  18.060  41.710
 1403BOLB   C2B33658  15.910  18.080  41.860
 1403BOLB   C3B33659  15.600  17.990  42.160
 1403BOLB   C4B33660  15.280  17.750  42.430
 1403BOLB   NC233661  14.380  18.090  44.290
 1403BOLB   PO233662  14.620  17.710  44.130
 1403BOLB   GL333663  14.830  17.580  43.690
 1403BOLB   GL433664  14.780  17.190  43.620
 1403BOLB   C1C33665  14.980  17.670  43.250
 1403BOLB   C2C33666  15.000  17.630  42.820
 1403BOLB   C3C33667  14.690  17.570  42.520
 1403BOLB   C4C33668  14.880  17.800  42.110
 1403BOLB   C1D33669  15.080  17.100  43.210
 1403BOLB   C2D33670  15.350  17.220  42.870
 1403BOLB   C3D33671  15.570  17.290  42.570
 1403BOLB   C4D33672  15.610  17.510  42.200
 1404BOLB   NC133673  19.360  11.220  33.770
 1404BOLB   PO133674  19.030  10.870  33.690
 1404BOLB   GL133675  18.510  10.630  33.730
 1404BOLB   GL233676  18.230  10.760  33.880
 1404BOLB   C1A33677  18.390  10.280  34.070
 1404BOLB   C2A33678  18.040  10.030  34.120
 1404BOLB   C3A33679  17.750   9.720  34.060
 1404BOLB   C4A33680  17.390   9.470  33.960
 1404BOLB   C1B33681  17.990  10.360  33.720
 1404BOLB   C2B33682  17.870  10.240  33.380
 1404BOLB   C3B33683  17.700   9.910  33.230
 1404BOLB   C4B33684  17.610   9.690  32.850
 1404BOLB   NC233685  16.080   7.560  34.760
 1404BOLB   PO233686  16.460   7.440  34.970
 1404BOLB   GL333687  16.570   7.650  34.570
 1404BOLB   GL433688  16.830   7.510  34.420
 1404BOLB   C1C33689  16.700   7.990  34.220
 1404BOLB   C2C33690  16.920   8.310  34.110
 1404BOLB   C3C33691  17.100   8.640  33.900
 1404BOLB   C4C33692  17.120   9.080  33.960
 1404BOLB   C1D33693  17.120   7.720  34.120
 1404BOLB   C2D33694  17.290   8.020  34.090
 1404BOLB   C3D33695  17.440   8.220  34.350
 1404BOLB   C4D33696  17.480   8.210  34.760
 1405BOLB   NC133697  26.655   7.950  29.990
 1405BOLB   PO133698  26.635   8.140  29.580
 1405BOLB   GL133699  26.795   7.770  29.520
 1405BOLB   GL233700  27.125   7.730  29.480
 1405BOLB   C1A33701  26.895   7.260  29.520
 1405BOLB   C2A33702  27.205   7.140  29.200
 1405BOLB   C3A33703  27.145   6.830  28.900
 1405BOLB   C4A33704  27.545   6.620  28.750
 1405BOLB   C1B33705  27.515   7.640  29.510
 1405BOLB   C2B33706  27.805   7.360  29.450
 1405BOLB   C3B33707  28.165   7.130  29.650
 1405BOLB   C4B33708  28.345   6.790  29.900
 1405BOLB   NC233709  28.165   4.240  28.840
 1405BOLB   PO233710  28.555   4.530  28.840
 1405BOLB   GL333711  28.225   4.750  28.770
 1405BOLB   GL433712  27.935   4.710  28.850
 1405BOLB   C1C33713  28.135   5.250  28.890
 1405BOLB   C2C33714  27.895   5.450  29.110
 1405BOLB   C3C33715  27.685   5.830  29.170
 1405BOLB   C4C33716  27.745   6.310  29.000
 1405BOLB   C1D33717  27.625   5.080  28.860
 1405BOLB   C2D33718  27.315   5.390  29.030
 1405BOLB   C3D33719  27.245   5.550  29.330
 1405BOLB   C4D33720  26.865   5.580  29.600
 1406BOLB   NC133721  16.800  12.750  36.460
 1406BOLB   PO133722  16.490  13.050  36.320
 1406BOLB   GL133723  16.170  12.710  36.420
 1406BOLB   GL233724  16.150  12.790  36.770
 1406BOLB   C1A33725  15.790  12.590  36.360
 1406BOLB   C2A33726  15.300  12.680  36.430
 1406BOLB   C3A33727  14.920  12.390  36.320
 1406BOLB   C4A33728  14.530  12.180  36.510
 1406BOLB   C1B33729  15.680  12.710  36.840
 1406BOLB   C2B33730  15.210  12.430  36.820
 1406BOLB   C3B33731  14.910  12.110  36.800
 1406BOLB   C4B33732  14.760  11.780  36.960
 1406BOLB   NC233733  12.470  10.970  36.490
 1406BOLB   PO233734  12.860  10.690  36.740
 1406BOLB   GL333735  12.960  10.870  36.440
 1406BOLB   GL433736  13.290  10.680  36.410
 1406BOLB   C1C33737  13.200  11.210  36.350
 1406BOLB   C2C33738  13.510  11.600  36.380
 1406BOLB   C3C33739  13.820  11.820  36.530
 1406BOLB   C4C33740  14.240  11.970  36.600
 1406BOLB   C1D33741  13.690  10.840  36.580
 1406BOLB   C2D33742  14.070  11.090  36.400
 1406BOLB   C3D33743  14.190  11.530  36.250
 1406BOLB   C4D33744  14.340  11.910  36.080
 1407BOLB   NC133745  22.670  16.090  42.840
 1407BOLB   PO133746  22.630  15.900  43.310
 1407BOLB   GL133747  22.640  15.660  43.670
 1407BOLB   GL233748  22.360  15.950  43.730
 1407BOLB   C1A33749  22.900  15.580  44.020
 1407BOLB   C2A33750  22.980  15.370  44.330
 1407BOLB   C3A33751  23.000  15.060  44.610
 1407BOLB   C4A33752  22.840  14.970  45.000
 1407BOLB   C1B33753  22.470  15.980  44.220
 1407BOLB   C2B33754  22.550  15.820  44.660
 1407BOLB   C3B33755  22.360  15.580  44.970
 1407BOLB   C4B33756  22.160  15.310  45.400
 1407BOLB   NC233757  22.370  14.060  47.330
 1407BOLB   PO233758  22.060  14.220  47.340
 1407BOLB   GL333759  22.110  14.200  46.890
 1407BOLB   GL433760  22.350  13.960  46.680
 1407BOLB   C1C33761  22.070  14.450  46.520
 1407BOLB   C2C33762  22.070  14.670  46.110
 1407BOLB   C3C33763  22.230  14.760  45.710
 1407BOLB   C4C33764  22.490  14.950  45.300
 1407BOLB   C1D33765  22.450  14.130  46.310
 1407BOLB   C2D33766  22.480  14.060  45.920
 1407BOLB   C3D33767  22.350  14.180  45.460
 1407BOLB   C4D33768  21.890  14.110  45.310
 1408BOLB   NC133769  25.540  15.320  41.880
 1408BOLB   PO133770  25.670  15.100  42.350
 1408BOLB   GL133771  25.790  15.370  42.720
 1408BOLB   GL233772  25.750  15.620  42.840
 1408BOLB   C1A33773  25.930  15.250  43.140
 1408BOLB   C2A33774  26.230  15.500  43.350
 1408BOLB   C3A33775  26.465  15.650  43.630
 1408BOLB   C4A33776  26.745  15.820  43.840
 1408BOLB   C1B33777  26.190  15.720  42.890
 1408BOLB   C2B33778  26.595  15.730  43.150
 1408BOLB   C3B33779  26.945  15.740  43.370
 1408BOLB   C4B33780  27.225  15.980  43.820
 1408BOLB   NC233781  27.545  16.090  46.130
 1408BOLB   PO233782  27.815  16.090  45.770
 1408BOLB   GL333783  27.575  16.060  45.390
 1408BOLB   GL433784  27.705  16.330  45.090
 1408BOLB   C1C33785  27.255  15.740  45.290
 1408BOLB   C2C33786  27.195  15.670  44.950
 1408BOLB   C3C33787  27.035  15.820  44.590
 1408BOLB   C4C33788  26.865  15.920  44.230
 1408BOLB   C1D33789  27.635  16.400  44.720
 1408BOLB   C2D33790  27.675  16.610  44.410
 1408BOLB   C3D33791  27.375  16.800  44.100
 1408BOLB   C4D33792  27.095  16.470  43.870
 1409BOLB   NC133793  17.470  12.900  26.170
 1409BOLB   PO133794  17.760  12.700  25.830
 1409BOLB   GL133795  17.520  12.420  25.700
 1409BOLB   GL233796  17.660  12.090  25.770
 1409BOLB   C1A33797  17.240  12.070  25.530
 1409BOLB   C2A33798  16.970  11.710  25.310
 1409BOLB   C3A33799  16.790  11.700  24.890
 1409BOLB   C4A33800  16.600  11.620  24.500
 1409BOLB   C1B33801  17.430  11.690  25.760
 1409BOLB   C2B33802  17.000  11.700  25.800
 1409BOLB   C3B33803  16.590  11.580  25.760
 1409BOLB   C4B33804  16.210  11.530  25.450
 1409BOLB   NC233805  15.350  11.190  22.470
 1409BOLB   PO233806  15.270  11.090  22.910
 1409BOLB   GL333807  15.750  11.230  22.990
 1409BOLB   GL433808  15.790  10.880  22.980
 1409BOLB   C1C33809  16.100  11.600  23.120
 1409BOLB   C2C33810  16.380  11.840  23.300
 1409BOLB   C3C33811  16.440  11.880  23.810
 1409BOLB   C4C33812  16.420  11.680  24.190
 1409BOLB   C1D33813  16.190  11.090  23.090
 1409BOLB   C2D33814  16.430  11.300  23.450
 1409BOLB   C3D33815  16.640  11.370  23.810
 1409BOLB   C4D33816  16.900  11.320  24.260
 1410BOLB   NC133817  25.210   3.200  31.230
 1410BOLB   PO133818  25.170   3.720  31.270
 1410BOLB   GL133819  25.170   4.010  30.970
 1410BOLB   GL233820  25.420   4.120  30.920
 1410BOLB   C1A33821  25.010   4.390  30.750
 1410BOLB   C2A33822  24.740   4.780  30.670
 1410BOLB   C3A33823  24.480   5.120  30.760
 1410BOLB   C4A33824  24.200   5.340  30.940
 1410BOLB   C1B33825  25.460   4.460  31.190
 1410BOLB   C2B33826  25.530   4.750  31.360
 1410BOLB   C3B33827  25.570   5.080  31.700
 1410BOLB   C4B33828  25.590   5.040  32.150
 1410BOLB   NC233829  23.450   3.050  30.250
 1410BOLB   PO233830  23.670   3.480  30.160
 1410BOLB   GL333831  23.760   3.840  30.420
 1410BOLB   GL433832  24.080   3.900  30.690
 1410BOLB   C1C33833  23.600   4.130  30.600
 1410BOLB   C2C33834  23.650   4.570  30.770
 1410BOLB   C3C33835  23.600   4.890  31.140
 1410BOLB   C4C33836  23.860   5.200  31.270
 1410BOLB   C1D33837  24.060   4.330  30.970
 1410BOLB   C2D33838  24.090   4.780  30.920
 1410BOLB   C3D33839  23.930   5.040  30.720
 1410BOLB   C4D33840  23.880   5.120  30.300
 1411BOLB   NC133841  14.130  21.670  35.860
 1411BOLB   PO133842  14.560  21.590  35.990
 1411BOLB   GL133843  14.450  21.980  36.270
 1411BOLB   GL233844  14.180  21.840  36.330
 1411BOLB   C1A33845  14.220  22.210  36.640
 1411BOLB   C2A33846  13.700  22.220  36.810
 1411BOLB   C3A33847  13.380  22.170  37.070
 1411BOLB   C4A33848  13.070  22.260  37.390
 1411BOLB   C1B33849  13.830  22.080  36.350
 1411BOLB   C2B33850  13.430  22.310  36.240
 1411BOLB   C3B33851  13.010  22.170  36.350
 1411BOLB   C4B33852  12.610  22.230  36.400
 1411BOLB   NC233853  11.380  22.710  38.790
 1411BOLB   PO233854  11.560  22.410  39.130
 1411BOLB   GL333855  11.720  22.090  39.020
 1411BOLB   GL433856  12.000  22.090  39.090
 1411BOLB   C1C33857  11.860  21.940  38.610
 1411BOLB   C2C33858  12.110  22.170  38.250
 1411BOLB   C3C33859  12.460  22.260  38.130
 1411BOLB   C4C33860  12.790  22.420  37.820
 1411BOLB   C1D33861  12.320  21.710  39.030
 1411BOLB   C2D33862  12.750  21.680  38.870
 1411BOLB   C3D33863  13.120  21.450  38.730
 1411BOLB   C4D33864  13.560  21.560  38.580
 1412BOLB   NC133865  13.000   1.370  34.620
 1412BOLB   PO133866  13.300   0.950  34.620
 1412BOLB   GL133867  13.350   0.630  34.400
 1412BOLB   GL233868  13.180   0.370  34.130
 1412BOLB   C1A33869  13.600   0.330  34.450
 1412BOLB   C2A33870  13.880   0.040  34.200
 1412BOLB   C3A33871  14.100  26.090  34.200
 1412BOLB   C4A33872  14.450  26.060  34.010
 1412BOLB   C1B33873  13.620   0.460  33.990
 1412BOLB   C2B33874  13.990   0.480  33.920
 1412BOLB   C3B33875  14.100   0.320  33.550
 1412BOLB   C4B33876  14.330   0.150  33.180
 1412BOLB   NC233877  14.720   1.630  35.400
 1412BOLB   PO233878  14.450   1.380  35.140
 1412BOLB   GL333879  14.390   0.890  34.960
 1412BOLB   GL433880  14.210   0.830  34.610
 1412BOLB   C1C33881  14.510   0.410  34.950
 1412BOLB   C2C33882  14.760   0.110  34.800
 1412BOLB   C3C33883  14.840  26.440  34.430
 1412BOLB   C4C33884  14.890  26.220  34.060
 1412BOLB   C1D33885  14.130   0.350  34.480
 1412BOLB   C2D33886  14.370  26.430  34.580
 1412BOLB   C3D33887  14.440  26.040  34.570
 1412BOLB   C4D33888  14.370  25.620  34.240
 1413BOLB   NC133889  13.540  20.790  30.110
 1413BOLB   PO133890  13.520  20.420  29.970
 1413BOLB   GL133891  13.050  20.590  29.960
 1413BOLB   GL233892  12.840  20.400  29.760
 1413BOLB   C1A33893  12.740  20.900  29.850
 1413BOLB   C2A33894  12.350  21.160  29.750
 1413BOLB   C3A33895  11.880  21.240  29.930
 1413BOLB   C4A33896  11.590  21.250  29.760
 1413BOLB   C1B33897  12.530  20.650  29.470
 1413BOLB   C2B33898  12.520  20.990  29.180
 1413BOLB   C3B33899  12.250  21.310  28.920
 1413BOLB   C4B33900  12.000  21.680  28.890
 1413BOLB   NC233901   9.030  21.930  30.150
 1413BOLB   PO233902   9.250  22.190  29.760
 1413BOLB   GL333903   9.680  22.060  29.930
 1413BOLB   GL433904   9.830  22.290  30.280
 1413BOLB   C1C33905  10.050  21.940  29.970
 1413BOLB   C2C33906  10.420  21.780  29.890
 1413BOLB   C3C33907  10.910  21.710  29.650
 1413BOLB   C4C33908  11.320  21.420  29.630
 1413BOLB   C1D33909  10.120  22.560  30.640
 1413BOLB   C2D33910  10.100  22.510  31.020
 1413BOLB   C3D33911   9.940  22.510  31.490
 1413BOLB   C4D33912   9.980  22.500  31.920
 1414BOLB   NC133913  16.480  13.630  26.990
 1414BOLB   PO133914  16.690  13.230  26.860
 1414BOLB   GL133915  16.380  13.060  27.070
 1414BOLB   GL233916  16.140  13.350  27.220
 1414BOLB   C1A33917  16.060  12.610  26.940
 1414BOLB   C2A33918  15.690  12.310  26.860
 1414BOLB   C3A33919  15.420  12.010  26.870
 1414BOLB   C4A33920  15.310  11.680  27.200
 1414BOLB   C1B33921  15.920  13.050  27.120
 1414BOLB   C2B33922  15.600  12.900  27.120
 1414BOLB   C3B33923  15.390  12.510  27.240
 1414BOLB   C4B33924  15.480  12.280  27.650
 1414BOLB   NC233925  13.510  10.090  28.170
 1414BOLB   PO233926  13.860   9.780  28.030
 1414BOLB   GL333927  14.070  10.170  27.850
 1414BOLB   GL433928  13.740  10.320  27.790
 1414BOLB   C1C33929  14.210  10.460  27.480
 1414BOLB   C2C33930  14.420  10.780  27.320
 1414BOLB   C3C33931  14.600  11.250  27.390
 1414BOLB   C4C33932  14.970  11.460  27.400
 1414BOLB   C1D33933  13.900  10.730  27.720
 1414BOLB   C2D33934  14.290  10.960  27.770
 1414BOLB   C3D33935  14.530  11.250  27.950
 1414BOLB   C4D33936  14.710  11.660  28.260
 1415BOLB   NC133937  13.050  21.070  30.920
 1415BOLB   PO133938  12.740  20.660  30.800
 1415BOLB   GL133939  12.270  20.870  30.780
 1415BOLB   GL233940  12.210  20.910  31.170
 1415BOLB   C1A33941  11.960  21.160  30.710
 1415BOLB   C2A33942  11.710  21.500  30.790
 1415BOLB   C3A33943  11.900  21.920  30.730
 1415BOLB   C4A33944  11.690  22.260  30.840
 1415BOLB   C1B33945  11.800  20.800  31.090
 1415BOLB   C2B33946  11.560  20.670  30.790
 1415BOLB   C3B33947  11.110  20.730  30.800
 1415BOLB   C4B33948  10.750  20.800  30.580
 1415BOLB   NC233949   9.690  23.390  30.800
 1415BOLB   PO233950   9.920  23.810  30.950
 1415BOLB   GL333951  10.280  23.570  31.090
 1415BOLB   GL433952  10.210  23.230  31.090
 1415BOLB   C1C33953  10.720  23.340  31.060
 1415BOLB   C2C33954  11.050  23.040  31.210
 1415BOLB   C3C33955  11.420  22.950  31.030
 1415BOLB   C4C33956  11.750  22.670  30.970
 1415BOLB   C1D33957  10.540  22.840  31.080
 1415BOLB   C2D33958  10.670  22.420  30.970
 1415BOLB   C3D33959  10.460  22.200  30.680
 1415BOLB   C4D33960  10.330  22.190  30.220
 1416BOLB   NC133961  16.070  13.010  34.330
 1416BOLB   PO133962  15.740  13.260  34.110
 1416BOLB   GL133963  15.320  13.220  34.130
 1416BOLB   GL233964  15.130  13.500  34.300
 1416BOLB   C1A33965  14.910  13.060  34.090
 1416BOLB   C2A33966  14.610  12.790  33.890
 1416BOLB   C3A33967  14.280  12.830  33.760
 1416BOLB   C4A33968  13.850  12.820  33.850
 1416BOLB   C1B33969  14.890  13.220  34.580
 1416BOLB   C2B33970  14.460  13.330  34.630
 1416BOLB   C3B33971  14.020  13.210  34.640
 1416BOLB   C4B33972  13.860  13.440  34.970
 1416BOLB   NC233973  11.780  11.000  34.740
 1416BOLB   PO233974  11.960  11.280  34.580
 1416BOLB   GL333975  12.330  11.600  34.460
 1416BOLB   GL433976  12.300  11.940  34.530
 1416BOLB   C1C33977  12.730  11.710  34.310
 1416BOLB   C2C33978  12.930  12.130  34.180
 1416BOLB   C3C33979  13.240  12.370  33.930
 1416BOLB   C4C33980  13.500  12.670  33.800
 1416BOLB   C1D33981  12.590  12.200  34.530
 1416BOLB   C2D33982  12.940  12.450  34.570
 1416BOLB   C3D33983  13.350  12.410  34.460
 1416BOLB   C4D33984  13.660  12.200  34.350
 1417BOLB   NC133985  22.400   8.990  27.590
 1417BOLB   PO133986  22.610   8.560  27.950
 1417BOLB   GL133987  22.880   8.100  27.870
 1417BOLB   GL233988  23.060   7.850  27.650
 1417BOLB   C1A33989  22.770   7.530  27.890
 1417BOLB   C2A33990  22.740   7.140  27.850
 1417BOLB   C3A33991  22.900   6.810  28.090
 1417BOLB   C4A33992  22.860   6.380  27.990
 1417BOLB   C1B33993  23.230   7.470  27.630
 1417BOLB   C2B33994  23.210   7.060  27.820
 1417BOLB   C3B33995  23.290   6.720  27.810
 1417BOLB   C4B33996  23.530   6.240  27.600
 1417BOLB   NC233997  22.670   4.360  26.460
 1417BOLB   PO233998  22.210   4.570  26.630
 1417BOLB   GL333999  22.420   4.890  26.860
 1417BOLB   GL434000  22.460   4.980  27.190
 1417BOLB   C1C34001  22.650   5.190  26.790
 1417BOLB   C2C34002  22.640   5.500  27.060
 1417BOLB   C3C34003  22.640   5.710  27.410
 1417BOLB   C4C34004  22.680   6.120  27.660
 1417BOLB   C1D34005  22.470   5.280  27.590
 1417BOLB   C2D34006  22.470   5.650  27.880
 1417BOLB   C3D34007  22.560   6.030  28.150
 1417BOLB   C4D34008  22.650   5.990  28.510
 1418BOLB   NC134009  17.870  22.470  38.960
 1418BOLB   PO134010  17.930  22.970  38.960
 1418BOLB   GL134011  18.040  23.240  39.260
 1418BOLB   GL234012  18.060  23.480  39.110
 1418BOLB   C1A34013  17.820  23.480  39.640
 1418BOLB   C2A34014  17.820  23.650  40.140
 1418BOLB   C3A34015  17.820  23.800  40.550
 1418BOLB   C4A34016  17.710  24.050  40.950
 1418BOLB   C1B34017  17.860  23.860  39.310
 1418BOLB   C2B34018  17.860  23.950  39.710
 1418BOLB   C3B34019  17.760  24.190  40.150
 1418BOLB   C4B34020  17.830  24.400  40.550
 1418BOLB   NC234021  18.020  25.890  42.150
 1418BOLB   PO234022  18.240  26.110  41.940
 1418BOLB   GL334023  18.190  25.720  41.640
 1418BOLB   GL434024  18.310  25.800  41.340
 1418BOLB   C1C34025  18.140  25.330  41.640
 1418BOLB   C2C34026  18.230  24.930  41.720
 1418BOLB   C3C34027  18.150  24.510  41.460
 1418BOLB   C4C34028  17.910  24.470  41.040
 1418BOLB   C1D34029  18.610  25.460  41.490
 1418BOLB   C2D34030  18.520  25.130  41.260
 1418BOLB   C3D34031  18.330  25.230  40.890
 1418BOLB   C4D34032  18.100  25.210  40.510
 1419BOLB   NC134033  18.990  24.420  29.130
 1419BOLB   PO134034  18.690  24.440  28.920
 1419BOLB   GL134035  18.770  24.850  29.000
 1419BOLB   GL234036  18.510  24.980  28.810
 1419BOLB   C1A34037  19.020  25.180  29.150
 1419BOLB   C2A34038  19.370  25.390  28.940
 1419BOLB   C3A34039  19.490  25.820  29.170
 1419BOLB   C4A34040  19.460  26.120  29.390
 1419BOLB   C1B34041  18.280  25.320  28.830
 1419BOLB   C2B34042  18.350  25.770  29.020
 1419BOLB   C3B34043  18.340  26.130  29.220
 1419BOLB   C4B34044  18.560  26.370  29.530
 1419BOLB   NC234045  19.040   2.010  28.880
 1419BOLB   PO234046  19.490   2.060  28.880
 1419BOLB   GL334047  19.410   1.750  29.090
 1419BOLB   GL434048  19.510   1.580  29.330
 1419BOLB   C1C34049  19.370   1.340  28.910
 1419BOLB   C2C34050  19.390   0.860  29.090
 1419BOLB   C3C34051  19.420   0.400  29.380
 1419BOLB   C4C34052  19.460   0.100  29.560
 1419BOLB   C1D34053  19.520   1.280  29.670
 1419BOLB   C2D34054  19.340   0.890  29.610
 1419BOLB   C3D34055  19.190   0.560  29.870
 1419BOLB   C4D34056  19.220   0.230  30.010
 1420BOLB   NC134057  22.710  21.720  40.260
 1420BOLB   PO134058  22.300  21.980  40.070
 1420BOLB   GL134059  22.640  22.240  40.210
 1420BOLB   GL234060  22.590  22.410  39.990
 1420BOLB   C1A34061  22.690  22.680  40.380
 1420BOLB   C2A34062  22.840  22.960  40.590
 1420BOLB   C3A34063  23.110  23.180  40.880
 1420BOLB   C4A34064  23.520  23.300  40.990
 1420BOLB   C1B34065  22.780  22.760  39.850
 1420BOLB   C2B34066  22.940  23.090  39.720
 1420BOLB   C3B34067  23.010  23.430  39.830
 1420BOLB   C4B34068  23.250  23.600  40.150
 1420BOLB   NC234069  24.400  25.280  41.270
 1420BOLB   PO234070  24.810  25.130  41.500
 1420BOLB   GL334071  24.520  24.810  41.310
 1420BOLB   GL434072  24.240  24.700  41.540
 1420BOLB   C1C34073  24.260  24.700  40.920
 1420BOLB   C2C34074  24.020  24.410  40.830
 1420BOLB   C3C34075  23.670  24.190  40.810
 1420BOLB   C4C34076  23.570  23.760  40.980
 1420BOLB   C1D34077  24.210  24.270  41.590
 1420BOLB   C2D34078  24.270  23.850  41.560
 1420BOLB   C3D34079  24.350  23.550  41.320
 1420BOLB   C4D34080  24.640  23.650  40.980
 1421BOLB   NC134081  24.740   7.130  34.660
 1421BOLB   PO134082  25.050   7.410  34.460
 1421BOLB   GL134083  25.230   7.080  34.750
 1421BOLB   GL234084  25.420   7.080  34.480
 1421BOLB   C1A34085  25.300   6.750  35.090
 1421BOLB   C2A34086  25.470   6.510  35.360
 1421BOLB   C3A34087  25.540   6.210  35.720
 1421BOLB   C4A34088  25.910   5.970  35.910
 1421BOLB   C1B34089  25.850   6.970  34.620
 1421BOLB   C2B34090  26.190   6.770  34.510
 1421BOLB   C3B34091  26.370   6.330  34.290
 1421BOLB   C4B34092  26.330   5.930  34.100
 1421BOLB   NC234093  26.010   3.320  36.160
 1421BOLB   PO234094  26.400   3.640  36.180
 1421BOLB   GL334095  26.330   4.030  36.190
 1421BOLB   GL434096  26.290   4.130  35.860
 1421BOLB   C1C34097  26.330   4.470  36.460
 1421BOLB   C2C34098  26.240   4.920  36.440
 1421BOLB   C3C34099  26.150   5.400  36.440
 1421BOLB   C4C34100  25.880   5.650  36.210
 1421BOLB   C1D34101  26.030   4.100  35.460
 1421BOLB   C2D34102  25.660   4.210  35.230
 1421BOLB   C3D34103  25.520   4.560  34.960
 1421BOLB   C4D34104  25.170   4.910  34.830
 1422BOLB   NC134105  24.720  17.500  42.480
 1422BOLB   PO134106  24.820  17.880  42.380
 1422BOLB   GL134107  24.980  18.260  42.490
 1422BOLB   GL234108  24.750  18.530  42.630
 1422BOLB   C1A34109  25.310  18.620  42.520
 1422BOLB   C2A34110  25.580  18.830  42.610
 1422BOLB   C3A34111  25.840  19.140  42.750
 1422BOLB   C4A34112  26.110  19.520  43.030
 1422BOLB   C1B34113  25.100  18.830  42.970
 1422BOLB   C2B34114  25.490  18.800  43.160
 1422BOLB   C3B34115  25.790  19.110  43.310
 1422BOLB   C4B34116  26.230  19.150  43.340
 1422BOLB   NC234117  27.685  20.240  44.860
 1422BOLB   PO234118  27.945  20.210  44.480
 1422BOLB   GL334119  27.815  19.790  44.380
 1422BOLB   GL434120  27.705  19.410  44.550
 1422BOLB   C1C34121  27.515  19.850  43.920
 1422BOLB   C2C34122  27.085  19.940  43.730
 1422BOLB   C3C34123  26.715  19.950  43.460
 1422BOLB   C4C34124  26.400  19.620  43.360
 1422BOLB   C1D34125  27.475  19.130  44.100
 1422BOLB   C2D34126  27.425  19.100  43.670
 1422BOLB   C3D34127  27.445  18.760  43.270
 1422BOLB   C4D34128  27.285  18.780  42.810
 1423BOLB   NC134129  26.390   9.450  26.450
 1423BOLB   PO134130  26.340   9.290  26.000
 1423BOLB   GL134131  26.555   8.940  25.940
 1423BOLB   GL234132  26.615   8.630  26.210
 1423BOLB   C1A34133  26.515   8.480  25.710
 1423BOLB   C2A34134  26.825   8.210  25.740
 1423BOLB   C3A34135  27.075   7.980  25.600
 1423BOLB   C4A34136  27.465   8.020  25.480
 1423BOLB   C1B34137  26.400   8.230  26.220
 1423BOLB   C2B34138  26.260   8.060  25.780
 1423BOLB   C3B34139  26.060   7.810  25.550
 1423BOLB   C4B34140  26.080   7.830  25.130
 1423BOLB   NC234141  28.325   5.610  24.820
 1423BOLB   PO234142  28.115   5.980  24.820
 1423BOLB   GL334143  28.025   6.380  25.000
 1423BOLB   GL434144  28.195   6.650  24.820
 1423BOLB   C1C34145  27.875   6.590  25.340
 1423BOLB   C2C34146  27.885   6.880  25.650
 1423BOLB   C3C34147  27.995   7.370  25.610
 1423BOLB   C4C34148  27.725   7.740  25.520
 1423BOLB   C1D34149  27.815   6.830  24.810
 1423BOLB   C2D34150  27.645   7.270  24.710
 1423BOLB   C3D34151  27.225   7.500  24.880
 1423BOLB   C4D34152  26.915   7.750  25.150
 1424BOLB   NC134153  26.865  11.810  24.530
 1424BOLB   PO134154  26.945  12.200  24.450
 1424BOLB   GL134155  27.185  12.000  24.240
 1424BOLB   GL234156  27.415  12.150  24.130
 1424BOLB   C1A34157  27.405  11.470  24.270
 1424BOLB   C2A34158  27.725  11.220  24.070
 1424BOLB   C3A34159  28.045  10.890  24.200
 1424BOLB   C4A34160  28.205  10.550  24.040
 1424BOLB   C1B34161  27.695  12.020  23.880
 1424BOLB   C2B34162  28.015  11.870  23.510
 1424BOLB   C3B34163  28.015  11.880  23.080
 1424BOLB   C4B34164  28.295  11.680  22.770
 1424BOLB   NC234165  29.565   8.690  23.300
 1424BOLB   PO234166  29.285   8.570  23.080
 1424BOLB   GL334167  29.085   8.750  23.400
 1424BOLB   GL434168  29.075   8.630  23.660
 1424BOLB   C1C34169  28.775   9.050  23.360
 1424BOLB   C2C34170  28.705   9.440  23.510
 1424BOLB   C3C34171  28.405   9.810  23.560
 1424BOLB   C4C34172  28.315  10.180  23.780
 1424BOLB   C1D34173  28.705   8.790  23.800
 1424BOLB   C2D34174  28.425   9.090  23.920
 1424BOLB   C3D34175  28.105   9.290  24.170
 1424BOLB   C4D34176  27.615   9.500  24.050
 1425BOLB   NC134177  26.635  24.160  32.090
 1425BOLB   PO134178  26.300  24.220  32.460
 1425BOLB   GL134179  26.240  23.930  32.610
 1425BOLB   GL234180  25.910  23.810  32.480
 1425BOLB   C1A34181  26.250  23.480  32.590
 1425BOLB   C2A34182  26.170  23.190  32.910
 1425BOLB   C3A34183  26.080  23.190  33.380
 1425BOLB   C4A34184  25.730  23.100  33.770
 1425BOLB   C1B34185  25.740  23.460  32.500
 1425BOLB   C2B34186  25.610  23.110  32.230
 1425BOLB   C3B34187  25.420  22.810  32.280
 1425BOLB   C4B34188  25.150  22.560  32.610
 1425BOLB   NC234189  26.725  25.330  35.030
 1425BOLB   PO234190  26.735  25.150  34.510
 1425BOLB   GL334191  26.370  24.880  34.570
 1425BOLB   GL434192  26.060  25.020  34.480
 1425BOLB   C1C34193  26.440  24.380  34.490
 1425BOLB   C2C34194  26.080  24.050  34.530
 1425BOLB   C3C34195  25.860  23.720  34.580
 1425BOLB   C4C34196  25.630  23.400  34.210
 1425BOLB   C1D34197  25.840  24.660  34.560
 1425BOLB   C2D34198  25.530  24.330  34.680
 1425BOLB   C3D34199  25.480  23.930  34.810
 1425BOLB   C4D34200  25.290  23.540  34.590
 1426BOLB   NC134201  28.325   9.650  31.020
 1426BOLB   PO134202  28.795   9.550  30.810
 1426BOLB   GL134203  29.255   9.410  30.710
 1426BOLB   GL234204  29.435   9.670  30.460
 1426BOLB   C1A34205  29.605   9.210  30.640
 1426BOLB   C2A34206  29.905   8.850  30.520
 1426BOLB   C3A34207  30.285   8.530  30.370
 1426BOLB   C4A34208  30.545   8.120  30.190
 1426BOLB   C1B34209  29.595   9.460  30.120
 1426BOLB   C2B34210  29.975   9.320  29.870
 1426BOLB   C3B34211  30.315   9.410  29.590
 1426BOLB   C4B34212  30.325   9.870  29.310
 1426BOLB   NC234213  31.285   5.880  29.800
 1426BOLB   PO234214  31.305   5.910  30.200
 1426BOLB   GL334215  30.885   6.110  30.160
 1426BOLB   GL434216  30.625   6.010  30.220
 1426BOLB   C1C34217  30.745   6.640  30.090
 1426BOLB   C2C34218  30.655   6.990  29.910
 1426BOLB   C3C34219  30.905   7.370  29.980
 1426BOLB   C4C34220  30.735   7.690  30.160
 1426BOLB   C1D34221  30.245   6.210  30.070
 1426BOLB   C2D34222  30.275   6.610  29.910
 1426BOLB   C3D34223  30.175   6.950  30.210
 1426BOLB   C4D34224  30.045   6.960  30.720
 1427BOLB   NC134225  28.335  14.750  37.130
 1427BOLB   PO134226  28.655  14.970  37.380
 1427BOLB   GL134227  29.085  14.900  37.400
 1427BOLB   GL234228  29.135  15.050  37.810
 1427BOLB   C1A34229  29.515  14.880  37.540
 1427BOLB   C2A34230  29.935  14.910  37.530
 1427BOLB   C3A34231  30.395  14.980  37.560
 1427BOLB   C4A34232  30.805  14.900  37.660
 1427BOLB   C1B34233  29.505  15.060  37.970
 1427BOLB   C2B34234  29.745  14.950  38.190
 1427BOLB   C3B34235  29.735  14.920  38.680
 1427BOLB   C4B34236  30.025  14.880  38.910
 1427BOLB   NC234237  33.565  14.100  38.450
 1427BOLB   PO234238  33.115  14.110  38.490
 1427BOLB   GL334239  32.665  14.290  38.450
 1427BOLB   GL434240  32.585  14.090  38.120
 1427BOLB   C1C34241  32.305  14.600  38.220
 1427BOLB   C2C34242  31.985  14.710  38.000
 1427BOLB   C3C34243  31.445  14.770  38.120
 1427BOLB   C4C34244  31.205  14.850  37.840
 1427BOLB   C1D34245  32.195  14.240  37.870
 1427BOLB   C2D34246  31.965  14.560  37.550
 1427BOLB   C3D34247  31.795  14.890  37.530
 1427BOLB   C4D34248  31.985  15.180  37.650
 1428BOLB   NC134249  13.900  22.300  28.850
 1428BOLB   PO134250  13.920  22.090  28.390
 1428BOLB   GL134251  13.550  21.900  28.570
 1428BOLB   GL234252  13.420  22.100  28.860
 1428BOLB   C1A34253  13.160  21.920  28.310
 1428BOLB   C2A34254  12.730  22.010  28.310
 1428BOLB   C3A34255  12.310  22.330  28.250
 1428BOLB   C4A34256  11.960  22.630  28.300
 1428BOLB   C1B34257  13.330  22.380  28.460
 1428BOLB   C2B34258  13.350  22.690  28.210
 1428BOLB   C3B34259  13.430  23.040  27.920
 1428BOLB   C4B34260  13.500  23.320  27.660
 1428BOLB   NC234261  10.040  24.060  28.660
 1428BOLB   PO234262  10.300  24.120  28.530
 1428BOLB   GL334263  10.740  24.090  28.670
 1428BOLB   GL434264  10.910  24.250  28.840
 1428BOLB   C1C34265  11.050  23.900  28.420
 1428BOLB   C2C34266  11.440  23.760  28.080
 1428BOLB   C3C34267  11.680  23.420  28.220
 1428BOLB   C4C34268  11.790  22.990  28.300
 1428BOLB   C1D34269  11.230  23.980  29.040
 1428BOLB   C2D34270  11.410  23.870  29.470
 1428BOLB   C3D34271  11.340  23.420  29.580
 1428BOLB   C4D34272  11.410  23.040  29.320
 1429BOLB   NC134273  24.380  12.180  41.630
 1429BOLB   PO134274  24.400  12.550  41.720
 1429BOLB   GL134275  24.740  12.420  42.000
 1429BOLB   GL234276  24.970  12.590  42.310
 1429BOLB   C1A34277  24.940  12.120  42.340
 1429BOLB   C2A34278  25.180  11.830  42.570
 1429BOLB   C3A34279  25.130  11.460  42.690
 1429BOLB   C4A34280  25.100  10.970  42.630
 1429BOLB   C1B34281  24.870  12.440  42.760
 1429BOLB   C2B34282  24.530  12.310  43.040
 1429BOLB   C3B34283  24.190  12.260  43.320
 1429BOLB   C4B34284  23.980  12.210  43.640
 1429BOLB   NC234285  26.200   9.680  44.470
 1429BOLB   PO234286  25.900   9.800  44.300
 1429BOLB   GL334287  25.970   9.960  43.930
 1429BOLB   GL434288  25.780  10.190  43.840
 1429BOLB   C1C34289  25.980   9.880  43.440
 1429BOLB   C2C34290  25.600   9.970  43.250
 1429BOLB   C3C34291  25.540  10.350  42.930
 1429BOLB   C4C34292  25.230  10.680  42.890
 1429BOLB   C1D34293  25.760  10.340  43.470
 1429BOLB   C2D34294  25.590  10.710  43.300
 1429BOLB   C3D34295  25.500  11.040  43.020
 1429BOLB   C4D34296  25.720  11.460  42.820
 1430BOLB   NC134297  13.450  19.280  29.240
 1430BOLB   PO134298  13.310  18.770  29.360
 1430BOLB   GL134299  12.950  18.610  29.360
 1430BOLB   GL234300  12.700  18.680  29.110
 1430BOLB   C1A34301  12.590  18.560  29.620
 1430BOLB   C2A34302  12.260  18.400  29.720
 1430BOLB   C3A34303  11.880  18.310  29.520
 1430BOLB   C4A34304  11.500  18.270  29.640
 1430BOLB   C1B34305  12.200  18.530  29.190
 1430BOLB   C2B34306  11.810  18.710  29.050
 1430BOLB   C3B34307  11.330  18.670  29.090
 1430BOLB   C4B34308  11.220  19.020  29.380
 1430BOLB   NC234309   9.090  17.940  30.410
 1430BOLB   PO234310   9.140  18.310  30.190
 1430BOLB   GL334311   9.510  18.170  30.040
 1430BOLB   GL434312   9.800  18.290  29.780
 1430BOLB   C1C34313   9.840  17.880  30.060
 1430BOLB   C2C34314  10.250  17.750  29.810
 1430BOLB   C3C34315  10.640  17.980  29.830
 1430BOLB   C4C34316  11.040  18.270  29.790
 1430BOLB   C1D34317  10.230  18.200  30.000
 1430BOLB   C2D34318  10.550  18.180  30.270
 1430BOLB   C3D34319  10.900  18.240  30.300
 1430BOLB   C4D34320  11.400  18.360  30.220
 1431BOLB   NC134321  19.400  22.120  39.640
 1431BOLB   PO134322  19.350  22.480  39.820
 1431BOLB   GL134323  19.330  22.850  40.070
 1431BOLB   GL234324  19.310  23.180  39.930
 1431BOLB   C1A34325  19.280  22.980  40.420
 1431BOLB   C2A34326  19.360  22.980  40.890
 1431BOLB   C3A34327  19.210  23.260  41.230
 1431BOLB   C4A34328  18.940  23.320  41.560
 1431BOLB   C1B34329  19.290  23.670  40.090
 1431BOLB   C2B34330  19.050  23.830  40.440
 1431BOLB   C3B34331  18.720  23.990  40.740
 1431BOLB   C4B34332  18.340  24.210  40.740
 1431BOLB   NC234333  18.470  24.740  43.510
 1431BOLB   PO234334  18.870  24.700  43.460
 1431BOLB   GL334335  18.730  24.300  43.260
 1431BOLB   GL434336  19.010  24.380  43.100
 1431BOLB   C1C34337  18.520  23.950  43.080
 1431BOLB   C2C34338  18.480  23.870  42.570
 1431BOLB   C3C34339  18.610  23.580  42.190
 1431BOLB   C4C34340  18.690  23.660  41.780
 1431BOLB   C1D34341  19.220  24.290  42.800
 1431BOLB   C2D34342  19.230  24.640  42.470
 1431BOLB   C3D34343  19.330  24.470  42.080
 1431BOLB   C4D34344  19.480  24.330  41.710
 1432BOLB   NC134345  22.390  22.850  30.300
 1432BOLB   PO134346  22.400  22.850  29.940
 1432BOLB   GL134347  22.880  22.930  30.070
 1432BOLB   GL234348  23.030  23.130  29.910
 1432BOLB   C1A34349  23.250  23.030  30.350
 1432BOLB   C2A34350  23.630  23.220  30.450
 1432BOLB   C3A34351  23.980  23.470  30.500
 1432BOLB   C4A34352  24.150  23.940  30.390
 1432BOLB   C1B34353  23.000  23.520  29.710
 1432BOLB   C2B34354  22.940  23.910  29.980
 1432BOLB   C3B34355  23.160  24.120  30.200
 1432BOLB   C4B34356  23.330  24.570  30.330
 1432BOLB   NC234357  25.340  25.570  29.800
 1432BOLB   PO234358  25.070  25.970  29.970
 1432BOLB   GL334359  24.860  25.590  30.150
 1432BOLB   GL434360  24.840  25.450  30.420
 1432BOLB   C1C34361  24.490  25.420  30.090
 1432BOLB   C2C34362  24.440  25.030  30.160
 1432BOLB   C3C34363  24.330  24.580  30.100
 1432BOLB   C4C34364  24.340  24.270  30.360
 1432BOLB   C1D34365  24.910  25.040  30.270
 1432BOLB   C2D34366  24.670  24.760  30.510
 1432BOLB   C3D34367  24.330  24.530  30.820
 1432BOLB   C4D34368  24.470  24.200  30.910
 1433BOLB   NC134369  16.110  24.570  32.930
 1433BOLB   PO134370  16.430  24.660  33.280
 1433BOLB   GL134371  16.430  25.100  33.170
 1433BOLB   GL234372  16.590  25.260  32.870
 1433BOLB   C1A34373  16.120  25.480  33.090
 1433BOLB   C2A34374  16.050  25.920  33.220
 1433BOLB   C3A34375  15.720  26.180  33.460
 1433BOLB   C4A34376  15.430  26.380  33.810
 1433BOLB   C1B34377  16.560  25.800  33.000
 1433BOLB   C2B34378  16.620  26.070  33.290
 1433BOLB   C3B34379  16.640  26.170  33.750
 1433BOLB   C4B34380  16.410   0.020  33.950
 1433BOLB   NC234381  14.480   2.300  34.640
 1433BOLB   PO234382  14.950   2.190  34.650
 1433BOLB   GL334383  15.050   1.840  34.410
 1433BOLB   GL434384  15.250   1.850  34.090
 1433BOLB   C1C34385  15.110   1.410  34.320
 1433BOLB   C2C34386  14.880   1.030  34.250
 1433BOLB   C3C34387  14.990   0.710  33.970
 1433BOLB   C4C34388  15.140   0.340  33.720
 1433BOLB   C1D34389  15.620   1.810  33.770
 1433BOLB   C2D34390  16.010   1.810  33.660
 1433BOLB   C3D34391  16.110   1.730  33.270
 1433BOLB   C4D34392  16.390   1.470  33.180
 1434BOLB   NC134393  19.260  10.430  26.740
 1434BOLB   PO134394  18.850  10.740  26.770
 1434BOLB   GL134395  18.730  10.320  26.900
 1434BOLB   GL234396  18.750  10.300  26.490
 1434BOLB   C1A34397  18.440   9.930  26.920
 1434BOLB   C2A34398  18.290   9.530  26.940
 1434BOLB   C3A34399  18.150   9.170  26.620
 1434BOLB   C4A34400  17.960   8.900  26.290
 1434BOLB   C1B34401  18.480   9.930  26.390
 1434BOLB   C2B34402  18.180   9.740  26.460
 1434BOLB   C3B34403  17.830   9.560  26.660
 1434BOLB   C4B34404  17.630   9.170  26.620
 1434BOLB   NC234405  15.750   8.350  25.290
 1434BOLB   PO234406  16.170   8.230  25.350
 1434BOLB   GL334407  16.390   8.480  25.650
 1434BOLB   GL434408  16.450   8.770  25.500
 1434BOLB   C1C34409  16.500   8.610  26.040
 1434BOLB   C2C34410  16.720   8.700  26.350
 1434BOLB   C3C34411  17.160   8.910  26.380
 1434BOLB   C4C34412  17.610   8.770  26.230
 1434BOLB   C1D34413  16.710   9.020  25.920
 1434BOLB   C2D34414  16.890   9.320  26.270
 1434BOLB   C3D34415  17.020   9.300  26.660
 1434BOLB   C4D34416  17.090   9.150  27.080
 1435BOLB   NC134417  10.510  24.470  29.000
 1435BOLB   PO134418  10.380  24.400  29.420
 1435BOLB   GL134419  10.780  24.450  29.510
 1435BOLB   GL234420  10.830  24.820  29.580
 1435BOLB   C1A34421  10.900  23.930  29.490
 1435BOLB   C2A34422  10.780  23.500  29.350
 1435BOLB   C3A34423  10.900  23.070  29.210
 1435BOLB   C4A34424  11.070  22.830  28.880
 1435BOLB   C1B34425  11.050  24.770  29.160
 1435BOLB   C2B34426  11.300  24.520  28.850
 1435BOLB   C3B34427  11.430  24.190  28.500
 1435BOLB   C4B34428  11.490  23.710  28.660
 1435BOLB   NC234429   9.170  22.130  29.260
 1435BOLB   PO234430   9.540  21.940  29.400
 1435BOLB   GL334431   9.910  21.820  29.340
 1435BOLB   GL434432   9.980  22.190  29.440
 1435BOLB   C1C34433  10.370  21.810  29.320
 1435BOLB   C2C34434  10.810  21.950  29.190
 1435BOLB   C3C34435  11.100  22.190  29.200
 1435BOLB   C4C34436  11.290  22.490  29.030
 1435BOLB   C1D34437  10.340  22.260  29.680
 1435BOLB   C2D34438  10.770  22.260  29.620
 1435BOLB   C3D34439  11.160  22.200  29.790
 1435BOLB   C4D34440  11.350  21.940  29.500
 1436BOLB   NC134441  23.950   7.880  34.610
 1436BOLB   PO134442  24.260   7.630  34.480
 1436BOLB   GL134443  24.160   7.170  34.530
 1436BOLB   GL234444  24.230   7.010  34.860
 1436BOLB   C1A34445  23.720   6.930  34.310
 1436BOLB   C2A34446  23.600   6.580  34.120
 1436BOLB   C3A34447  23.630   6.160  34.160
 1436BOLB   C4A34448  23.730   5.800  34.250
 1436BOLB   C1B34449  23.970   6.750  35.050
 1436BOLB   C2B34450  23.980   6.280  35.070
 1436BOLB   C3B34451  24.380   6.250  34.900
 1436BOLB   C4B34452  24.620   6.500  34.590
 1436BOLB   NC234453  23.360   3.420  35.150
 1436BOLB   PO234454  23.380   3.190  34.700
 1436BOLB   GL334455  23.380   3.620  34.650
 1436BOLB   GL434456  23.380   3.610  34.350
 1436BOLB   C1C34457  23.470   4.110  34.720
 1436BOLB   C2C34458  23.590   4.610  34.610
 1436BOLB   C3C34459  23.750   5.000  34.540
 1436BOLB   C4C34460  23.580   5.370  34.320
 1436BOLB   C1D34461  23.670   3.940  34.300
 1436BOLB   C2D34462  23.890   4.320  34.300
 1436BOLB   C3D34463  23.860   4.740  34.080
 1436BOLB   C4D34464  23.640   5.180  33.850
 1437BOLB   NC134465  18.610   0.520  23.570
 1437BOLB   PO134466  18.630   0.830  23.950
 1437BOLB   GL134467  18.480   0.460  24.180
 1437BOLB   GL234468  18.240   0.520  24.390
 1437BOLB   C1A34469  18.420   0.030  24.160
 1437BOLB   C2A34470  18.220  26.200  24.100
 1437BOLB   C3A34471  18.130  25.900  23.820
 1437BOLB   C4A34472  17.980  25.370  23.770
 1437BOLB   C1B34473  18.400   0.200  24.700
 1437BOLB   C2B34474  18.510   0.160  25.110
 1437BOLB   C3B34475  18.340  26.320  25.420
 1437BOLB   C4B34476  18.090  26.100  25.640
 1437BOLB   NC234477  17.980   0.370  22.900
 1437BOLB   PO234478  18.000   0.050  22.550
 1437BOLB   GL334479  17.890  26.250  22.910
 1437BOLB   GL434480  18.000  26.330  23.110
 1437BOLB   C1C34481  17.650  25.870  23.020
 1437BOLB   C2C34482  17.600  25.490  22.860
 1437BOLB   C3C34483  17.870  25.140  23.020
 1437BOLB   C4C34484  18.090  25.120  23.420
 1437BOLB   C1D34485  18.090  26.020  23.340
 1437BOLB   C2D34486  18.230  25.580  23.430
 1437BOLB   C3D34487  18.580  25.320  23.520
 1437BOLB   C4D34488  18.780  25.200  23.860
 1438BOLB   NC134489  28.575  17.740  21.060
 1438BOLB   PO134490  28.785  17.800  21.490
 1438BOLB   GL134491  28.445  17.770  21.660
 1438BOLB   GL234492  28.345  17.520  21.500
 1438BOLB   C1A34493  27.975  17.840  21.630
 1438BOLB   C2A34494  27.605  17.870  21.590
 1438BOLB   C3A34495  27.285  18.230  21.660
 1438BOLB   C4A34496  26.925  18.420  21.900
 1438BOLB   C1B34497  28.375  17.070  21.520
 1438BOLB   C2B34498  28.435  16.750  21.640
 1438BOLB   C3B34499  28.335  16.520  21.920
 1438BOLB   C4B34500  28.245  16.180  22.170
 1438BOLB   NC234501  27.195  20.670  20.820
 1438BOLB   PO234502  27.005  20.410  20.580
 1438BOLB   GL334503  26.845  20.190  20.880
 1438BOLB   GL434504  26.525  20.330  21.090
 1438BOLB   C1C34505  26.775  19.820  21.150
 1438BOLB   C2C34506  26.725  19.470  21.490
 1438BOLB   C3C34507  26.815  19.270  21.910
 1438BOLB   C4C34508  26.875  18.830  22.080
 1438BOLB   C1D34509  26.280  20.000  21.250
 1438BOLB   C2D34510  25.890  19.740  21.350
 1438BOLB   C3D34511  25.770  19.520  21.670
 1438BOLB   C4D34512  25.730  19.260  21.990
 1439BOLB   NC134513  15.900  15.000  25.760
 1439BOLB   PO134514  15.930  15.350  25.610
 1439BOLB   GL134515  15.540  15.090  25.360
 1439BOLB   GL234516  15.200  15.260  25.280
 1439BOLB   C1A34517  15.550  14.720  25.320
 1439BOLB   C2A34518  15.310  14.410  25.310
 1439BOLB   C3A34519  14.800  14.460  25.210
 1439BOLB   C4A34520  14.420  14.240  25.290
 1439BOLB   C1B34521  15.320  15.360  24.910
 1439BOLB   C2B34522  15.000  15.560  24.560
 1439BOLB   C3B34523  14.690  15.610  24.230
 1439BOLB   C4B34524  14.530  15.500  23.810
 1439BOLB   NC234525  12.660  12.380  25.300
 1439BOLB   PO234526  12.520  12.680  25.020
 1439BOLB   GL334527  13.010  12.690  24.980
 1439BOLB   GL434528  13.080  12.870  24.640
 1439BOLB   C1C34529  13.410  12.660  25.110
 1439BOLB   C2C34530  13.730  13.050  25.280
 1439BOLB   C3C34531  13.900  13.520  25.270
 1439BOLB   C4C34532  14.260  13.860  25.320
 1439BOLB   C1D34533  13.330  13.240  24.580
 1439BOLB   C2D34534  13.610  13.520  24.500
 1439BOLB   C3D34535  13.880  13.710  24.800
 1439BOLB   C4D34536  14.260  13.680  24.880
 1440BOLB   NC134537  19.790  24.770  32.670
 1440BOLB   PO134538  19.320  24.630  32.800
 1440BOLB   GL134539  19.270  25.020  32.690
 1440BOLB   GL234540  19.340  25.000  32.490
 1440BOLB   C1A34541  19.000  25.450  32.460
 1440BOLB   C2A34542  18.840  25.720  32.280
 1440BOLB   C3A34543  18.410  25.970  32.340
 1440BOLB   C4A34544  18.160  26.240  32.430
 1440BOLB   C1B34545  19.590  25.370  32.660
 1440BOLB   C2B34546  19.750  25.800  32.790
 1440BOLB   C3B34547  19.840  26.330  32.870
 1440BOLB   C4B34548  19.940   0.310  32.820
 1440BOLB   NC234549  18.240   2.550  32.540
 1440BOLB   PO234550  18.140   2.290  32.100
 1440BOLB   GL334551  18.400   1.930  32.240
 1440BOLB   GL434552  18.630   1.730  32.220
 1440BOLB   C1C34553  18.170   1.600  32.410
 1440BOLB   C2C34554  18.030   1.150  32.460
 1440BOLB   C3C34555  18.300   0.720  32.580
 1440BOLB   C4C34556  18.120   0.250  32.590
 1440BOLB   C1D34557  18.450   1.360  32.070
 1440BOLB   C2D34558  18.440   1.020  32.070
 1440BOLB   C3D34559  18.590   0.660  31.900
 1440BOLB   C4D34560  18.760   0.340  31.730
 1441BOLB   NC134561  22.790  21.350  25.490
 1441BOLB   PO134562  22.550  21.610  25.220
 1441BOLB   GL134563  22.970  21.490  24.920
 1441BOLB   GL234564  23.190  21.510  25.120
 1441BOLB   C1A34565  23.180  21.550  24.620
 1441BOLB   C2A34566  23.180  21.820  24.270
 1441BOLB   C3A34567  23.270  22.140  23.950
 1441BOLB   C4A34568  23.580  22.340  23.680
 1441BOLB   C1B34569  23.220  21.940  24.980
 1441BOLB   C2B34570  23.340  22.390  24.940
 1441BOLB   C3B34571  23.270  22.810  24.590
 1441BOLB   C4B34572  23.520  23.140  24.250
 1441BOLB   NC234573  24.840  23.460  22.460
 1441BOLB   PO234574  24.870  23.800  22.760
 1441BOLB   GL334575  24.840  23.590  23.110
 1441BOLB   GL434576  24.790  23.270  23.070
 1441BOLB   C1C34577  24.950  23.350  23.520
 1441BOLB   C2C34578  24.740  22.910  23.530
 1441BOLB   C3C34579  24.410  22.600  23.500
 1441BOLB   C4C34580  23.940  22.430  23.660
 1441BOLB   C1D34581  24.610  22.910  23.050
 1441BOLB   C2D34582  24.240  22.830  23.090
 1441BOLB   C3D34583  23.740  22.570  23.150
 1441BOLB   C4D34584  23.400  22.380  23.200
 1442BOLB   NC134585  21.650  11.780  22.970
 1442BOLB   PO134586  22.070  11.860  22.720
 1442BOLB   GL134587  21.940  11.590  22.370
 1442BOLB   GL234588  22.260  11.400  22.320
 1442BOLB   C1A34589  21.880  11.310  21.990
 1442BOLB   C2A34590  21.720  11.210  21.580
 1442BOLB   C3A34591  21.450  10.970  21.550
 1442BOLB   C4A34592  21.560  10.550  21.340
 1442BOLB   C1B34593  21.930  11.060  22.460
 1442BOLB   C2B34594  21.830  10.750  22.440
 1442BOLB   C3B34595  21.660  10.310  22.260
 1442BOLB   C4B34596  21.410   9.930  22.210
 1442BOLB   NC234597  22.490   9.180  19.180
 1442BOLB   PO234598  22.360   9.280  19.500
 1442BOLB   GL334599  22.560   9.780  19.610
 1442BOLB   GL434600  22.820   9.730  19.740
 1442BOLB   C1C34601  22.450  10.110  19.880
 1442BOLB   C2C34602  22.090  10.170  20.090
 1442BOLB   C3C34603  21.890  10.360  20.510
 1442BOLB   C4C34604  21.780  10.510  20.910
 1442BOLB   C1D34605  22.850   9.830  20.250
 1442BOLB   C2D34606  22.900  10.010  20.600
 1442BOLB   C3D34607  22.690  10.220  20.970
 1442BOLB   C4D34608  22.590  10.310  21.390
 1443BOLB   NC134609  13.160  19.520  30.200
 1443BOLB   PO134610  12.960  19.800  30.490
 1443BOLB   GL134611  12.680  20.140  30.260
 1443BOLB   GL234612  12.500  20.200  30.520
 1443BOLB   C1A34613  12.380  20.190  29.940
 1443BOLB   C2A34614  12.030  20.180  29.830
 1443BOLB   C3A34615  11.650  20.440  29.850
 1443BOLB   C4A34616  11.330  20.760  29.710
 1443BOLB   C1B34617  12.110  20.470  30.280
 1443BOLB   C2B34618  12.160  20.730  29.900
 1443BOLB   C3B34619  11.990  20.770  29.540
 1443BOLB   C4B34620  11.920  21.100  29.280
 1443BOLB   NC234621   9.470  21.480  27.980
 1443BOLB   PO234622   9.410  21.720  28.320
 1443BOLB   GL334623   9.750  21.360  28.370
 1443BOLB   GL434624   9.890  21.310  28.050
 1443BOLB   C1C34625  10.060  21.090  28.760
 1443BOLB   C2C34626  10.350  20.860  28.970
 1443BOLB   C3C34627  10.750  20.870  29.160
 1443BOLB   C4C34628  10.910  21.040  29.600
 1443BOLB   C1D34629  10.280  21.300  28.370
 1443BOLB   C2D34630  10.650  21.200  28.630
 1443BOLB   C3D34631  11.030  21.150  28.840
 1443BOLB   C4D34632  11.420  20.830  28.830
 1444BOLB   NC134633  14.690  11.760  22.550
 1444BOLB   PO134634  14.930  11.490  22.280
 1444BOLB   GL134635  15.140  11.720  22.550
 1444BOLB   GL234636  15.330  11.620  22.790
 1444BOLB   C1A34637  15.280  12.130  22.760
 1444BOLB   C2A34638  15.650  12.410  22.970
 1444BOLB   C3A34639  16.030  12.620  23.160
 1444BOLB   C4A34640  16.110  12.880  23.530
 1444BOLB   C1B34641  15.470  11.940  23.120
 1444BOLB   C2B34642  15.840  12.050  23.340
 1444BOLB   C3B34643  16.090  12.200  23.520
 1444BOLB   C4B34644  16.220  12.450  23.860
 1444BOLB   NC234645  18.060  13.420  25.330
 1444BOLB   PO234646  17.950  13.220  24.970
 1444BOLB   GL334647  17.490  13.160  24.780
 1444BOLB   GL434648  17.410  12.880  25.010
 1444BOLB   C1C34649  17.230  13.190  24.420
 1444BOLB   C2C34650  16.800  13.090  24.340
 1444BOLB   C3C34651  16.410  12.920  24.280
 1444BOLB   C4C34652  16.170  12.970  23.950
 1444BOLB   C1D34653  17.000  12.790  25.000
 1444BOLB   C2D34654  16.710  12.540  25.080
 1444BOLB   C3D34655  16.670  12.150  24.770
 1444BOLB   C4D34656  16.670  12.140  24.390
 1445BOLB   NC134657  21.890   9.100  36.480
 1445BOLB   PO134658  21.820   9.120  36.940
 1445BOLB   GL134659  21.770   8.830  37.220
 1445BOLB   GL234660  21.980   8.650  37.400
 1445BOLB   C1A34661  21.570   8.430  37.340
 1445BOLB   C2A34662  21.180   8.130  37.300
 1445BOLB   C3A34663  20.970   7.820  37.390
 1445BOLB   C4A34664  20.550   7.670  37.130
 1445BOLB   C1B34665  21.990   8.200  37.490
 1445BOLB   C2B34666  22.100   7.790  37.530
 1445BOLB   C3B34667  22.450   7.520  37.660
 1445BOLB   C4B34668  22.670   7.250  37.440
 1445BOLB   NC234669  19.120   5.710  37.790
 1445BOLB   PO234670  19.150   5.710  37.370
 1445BOLB   GL334671  19.430   5.950  37.540
 1445BOLB   GL434672  19.590   5.890  37.870
 1445BOLB   C1C34673  19.560   6.330  37.340
 1445BOLB   C2C34674  19.550   6.770  37.160
 1445BOLB   C3C34675  19.930   7.000  36.980
 1445BOLB   C4C34676  20.310   7.230  37.040
 1445BOLB   C1D34677  19.890   6.170  37.680
 1445BOLB   C2D34678  20.020   6.530  37.430
 1445BOLB   C3D34679  20.030   6.420  37.010
 1445BOLB   C4D34680  19.580   6.270  36.810
 1446BOLB   NC134681  14.330  16.220  32.250
 1446BOLB   PO134682  14.170  15.890  31.920
 1446BOLB   GL134683  13.850  15.970  31.630
 1446BOLB   GL234684  13.900  16.130  31.380
 1446BOLB   C1A34685  13.620  15.600  31.660
 1446BOLB   C2A34686  13.430  15.290  31.470
 1446BOLB   C3A34687  13.370  14.900  31.370
 1446BOLB   C4A34688  13.020  14.680  31.180
 1446BOLB   C1B34689  13.440  16.210  31.240
 1446BOLB   C2B34690  12.990  15.990  31.180
 1446BOLB   C3B34691  12.990  15.610  31.350
 1446BOLB   C4B34692  12.770  15.130  31.230
 1446BOLB   NC234693  11.370  13.410  30.620
 1446BOLB   PO234694  11.180  13.310  30.970
 1446BOLB   GL334695  11.580  13.570  31.050
 1446BOLB   GL434696  11.840  13.570  30.840
 1446BOLB   C1C34697  11.880  13.560  31.410
 1446BOLB   C2C34698  12.240  13.730  31.590
 1446BOLB   C3C34699  12.540  13.960  31.400
 1446BOLB   C4C34700  12.710  14.340  31.190
 1446BOLB   C1D34701  11.950  13.080  30.780
 1446BOLB   C2D34702  12.300  13.230  30.540
 1446BOLB   C3D34703  12.650  13.370  30.690
 1446BOLB   C4D34704  13.080  13.420  30.720
 1447BOLB   NC134705  14.210  20.870  33.970
 1447BOLB   PO134706  13.720  20.740  34.080
 1447BOLB   GL134707  13.250  20.760  34.280
 1447BOLB   GL234708  13.180  20.430  34.320
 1447BOLB   C1A34709  12.880  20.810  34.520
 1447BOLB   C2A34710  12.480  20.830  34.810
 1447BOLB   C3A34711  12.020  20.730  34.840
 1447BOLB   C4A34712  11.670  21.010  34.870
 1447BOLB   C1B34713  12.710  20.330  34.230
 1447BOLB   C2B34714  12.350  20.560  34.330
 1447BOLB   C3B34715  12.020  20.830  34.290
 1447BOLB   C4B34716  11.710  21.130  34.350
 1447BOLB   NC234717   9.790  22.050  33.820
 1447BOLB   PO234718   9.920  21.870  34.210
 1447BOLB   GL334719  10.130  21.520  34.120
 1447BOLB   GL434720  10.100  21.430  33.710
 1447BOLB   C1C34721  10.530  21.430  34.180
 1447BOLB   C2C34722  10.790  21.220  34.540
 1447BOLB   C3C34723  11.050  21.340  34.780
 1447BOLB   C4C34724  11.440  21.340  34.840
 1447BOLB   C1D34725  10.470  21.730  33.780
 1447BOLB   C2D34726  10.830  21.820  33.580
 1447BOLB   C3D34727  11.170  21.820  33.630
 1447BOLB   C4D34728  11.570  21.610  33.870
 1448BOLB   NC134729  32.345  11.420  26.210
 1448BOLB   PO134730  32.305  11.070  25.890
 1448BOLB   GL134731  32.015  10.900  26.240
 1448BOLB   GL234732  32.115  10.690  26.430
 1448BOLB   C1A34733  31.585  10.890  26.380
 1448BOLB   C2A34734  31.125  10.730  26.590
 1448BOLB   C3A34735  30.755  10.460  26.690
 1448BOLB   C4A34736  30.635  10.000  26.690
 1448BOLB   C1B34737  31.715  10.490  26.560
 1448BOLB   C2B34738  31.405  10.300  26.770
 1448BOLB   C3B34739  31.025  10.320  27.110
 1448BOLB   C4B34740  30.705  10.110  27.240
 1448BOLB   NC234741  32.175   9.300  24.680
 1448BOLB   PO234742  32.075   9.470  25.130
 1448BOLB   GL334743  31.645   9.450  25.350
 1448BOLB   GL434744  31.605   9.740  25.410
 1448BOLB   C1C34745  31.275   9.240  25.470
 1448BOLB   C2C34746  30.835   9.310  25.620
 1448BOLB   C3C34747  30.685   9.510  26.020
 1448BOLB   C4C34748  30.635   9.600  26.420
 1448BOLB   C1D34749  31.195   9.810  25.470
 1448BOLB   C2D34750  30.755   9.780  25.600
 1448BOLB   C3D34751  30.455  10.120  25.730
 1448BOLB   C4D34752  30.225  10.500  25.870
 1449BOLB   NC134753  31.855  16.400  40.640
 1449BOLB   PO134754  31.905  15.940  40.500
 1449BOLB   GL134755  31.515  15.690  40.270
 1449BOLB   GL234756  31.565  15.880  39.830
 1449BOLB   C1A34757  31.205  15.770  40.170
 1449BOLB   C2A34758  30.795  15.890  40.030
 1449BOLB   C3A34759  30.515  16.180  40.110
 1449BOLB   C4A34760  30.375  16.420  40.470
 1449BOLB   C1B34761  31.275  15.760  39.620
 1449BOLB   C2B34762  31.045  15.490  39.390
 1449BOLB   C3B34763  30.675  15.450  39.080
 1449BOLB   C4B34764  30.365  15.220  38.880
 1449BOLB   NC234765  31.585  18.040  40.060
 1449BOLB   PO234766  31.585  18.340  39.740
 1449BOLB   GL334767  31.305  17.940  39.660
 1449BOLB   GL434768  31.235  17.870  39.340
 1449BOLB   C1C34769  30.995  17.660  39.920
 1449BOLB   C2C34770  30.865  17.300  40.000
 1449BOLB   C3C34771  30.595  17.160  40.320
 1449BOLB   C4C34772  30.325  16.850  40.480
 1449BOLB   C1D34773  30.765  18.000  39.470
 1449BOLB   C2D34774  30.495  17.920  39.780
 1449BOLB   C3D34775  30.035  17.910  39.620
 1449BOLB   C4D34776  29.815  18.190  39.340
 1450BOLB   NC134777  20.420   9.080  29.540
 1450BOLB   PO134778  20.880   8.940  29.660
 1450BOLB   GL134779  20.520   8.630  29.580
 1450BOLB   GL234780  20.320   8.530  29.880
 1450BOLB   C1A34781  20.530   8.210  29.460
 1450BOLB   C2A34782  20.350   7.810  29.370
 1450BOLB   C3A34783  20.560   7.420  29.240
 1450BOLB   C4A34784  20.720   7.190  28.940
 1450BOLB   C1B34785  20.150   8.180  30.130
 1450BOLB   C2B34786  20.230   7.710  30.130
 1450BOLB   C3B34787  20.190   7.310  30.180
 1450BOLB   C4B34788  20.290   6.920  30.380
 1450BOLB   NC234789  20.080   4.770  28.220
 1450BOLB   PO234790  19.640   4.980  28.390
 1450BOLB   GL334791  19.610   5.320  28.540
 1450BOLB   GL434792  19.780   5.340  28.810
 1450BOLB   C1C34793  19.840   5.640  28.460
 1450BOLB   C2C34794  19.950   6.100  28.550
 1450BOLB   C3C34795  20.300   6.370  28.620
 1450BOLB   C4C34796  20.470   6.790  28.790
 1450BOLB   C1D34797  20.090   5.640  28.900
 1450BOLB   C2D34798  20.170   6.110  29.020
 1450BOLB   C3D34799  20.460   6.470  29.210
 1450BOLB   C4D34800  20.520   6.910  29.340
 1451BOLB   NC134801  19.030  23.470  25.490
 1451BOLB   PO134802  18.980  23.470  25.020
 1451BOLB   GL134803  19.170  23.780  25.040
 1451BOLB   GL234804  19.050  24.050  24.940
 1451BOLB   C1A34805  19.490  23.930  24.750
 1451BOLB   C2A34806  19.770  24.050  24.440
 1451BOLB   C3A34807  20.190  24.110  24.330
 1451BOLB   C4A34808  20.510  24.260  24.070
 1451BOLB   C1B34809  19.130  24.520  24.890
 1451BOLB   C2B34810  19.370  24.940  24.840
 1451BOLB   C3B34811  19.600  25.350  25.030
 1451BOLB   C4B34812  19.890  25.380  25.260
 1451BOLB   NC234813  21.690  26.090  24.100
 1451BOLB   PO234814  21.940  25.830  23.910
 1451BOLB   GL334815  21.930  25.460  23.770
 1451BOLB   GL434816  22.130  25.310  23.700
 1451BOLB   C1C34817  21.680  25.260  23.420
 1451BOLB   C2C34818  21.380  25.030  23.540
 1451BOLB   C3C34819  21.090  24.880  23.770
 1451BOLB   C4C34820  20.830  24.510  23.750
 1451BOLB   C1D34821  22.090  24.890  23.850
 1451BOLB   C2D34822  21.740  24.640  23.650
 1451BOLB   C3D34823  21.480  24.590  23.930
 1451BOLB   C4D34824  21.280  24.900  24.290
 1452BOLB   NC134825  19.890  10.080  27.000
 1452BOLB   PO134826  19.630  10.210  26.580
 1452BOLB   GL134827  19.290  10.140  26.330
 1452BOLB   GL234828  19.200  10.280  26.040
 1452BOLB   C1A34829  19.010   9.880  26.560
 1452BOLB   C2A34830  18.750   9.540  26.680
 1452BOLB   C3A34831  18.600   9.110  26.850
 1452BOLB   C4A34832  18.590   8.750  26.970
 1452BOLB   C1B34833  18.870   9.950  26.040
 1452BOLB   C2B34834  18.490   9.600  25.980
 1452BOLB   C3B34835  18.170   9.330  26.130
 1452BOLB   C4B34836  17.740   9.380  26.200
 1452BOLB   NC234837  16.030   7.940  26.930
 1452BOLB   PO234838  16.350   7.840  26.720
 1452BOLB   GL334839  16.730   7.780  26.680
 1452BOLB   GL434840  16.840   7.930  26.420
 1452BOLB   C1C34841  17.210   7.970  26.890
 1452BOLB   C2C34842  17.570   8.190  27.070
 1452BOLB   C3C34843  17.920   8.240  26.980
 1452BOLB   C4C34844  18.360   8.430  26.880
 1452BOLB   C1D34845  16.830   8.290  26.190
 1452BOLB   C2D34846  17.130   8.580  26.020
 1452BOLB   C3D34847  17.220   8.950  25.910
 1452BOLB   C4D34848  17.250   9.360  25.920
 1453BOLB   NC134849  25.800  20.340  36.740
 1453BOLB   PO134850  25.650  20.500  37.170
 1453BOLB   GL134851  26.030  20.720  36.900
 1453BOLB   GL234852  26.200  20.770  37.210
 1453BOLB   C1A34853  26.430  20.790  36.770
 1453BOLB   C2A34854  26.795  20.490  36.830
 1453BOLB   C3A34855  27.195  20.720  36.770
 1453BOLB   C4A34856  27.455  20.810  36.600
 1453BOLB   C1B34857  26.595  20.710  37.310
 1453BOLB   C2B34858  27.005  20.890  37.170
 1453BOLB   C3B34859  27.465  21.140  37.040
 1453BOLB   C4B34860  27.665  21.530  37.140
 1453BOLB   NC234861  29.295  22.050  35.790
 1453BOLB   PO234862  29.035  22.410  35.710
 1453BOLB   GL334863  28.765  22.070  35.850
 1453BOLB   GL434864  28.835  21.830  35.570
 1453BOLB   C1C34865  28.395  21.800  35.730
 1453BOLB   C2C34866  28.105  21.520  35.700
 1453BOLB   C3C34867  27.955  21.120  35.930
 1453BOLB   C4C34868  27.685  20.990  36.310
 1453BOLB   C1D34869  28.585  22.200  35.400
 1453BOLB   C2D34870  28.185  22.380  35.290
 1453BOLB   C3D34871  27.685  22.270  35.300
 1453BOLB   C4D34872  27.305  22.100  35.500
 1454BOLB   NC134873  29.065   9.600  37.230
 1454BOLB   PO134874  28.645   9.490  37.160
 1454BOLB   GL134875  28.875   9.070  37.270
 1454BOLB   GL234876  29.075   9.210  37.480
 1454BOLB   C1A34877  29.205   8.780  37.220
 1454BOLB   C2A34878  29.475   8.370  37.080
 1454BOLB   C3A34879  29.455   8.010  37.120
 1454BOLB   C4A34880  29.155   7.840  37.410
 1454BOLB   C1B34881  29.495   9.190  37.620
 1454BOLB   C2B34882  29.825   9.350  37.380
 1454BOLB   C3B34883  30.215   9.240  37.140
 1454BOLB   C4B34884  30.655   9.360  37.150
 1454BOLB   NC234885  30.805   6.850  38.900
 1454BOLB   PO234886  30.695   7.270  38.970
 1454BOLB   GL334887  30.405   7.420  38.720
 1454BOLB   GL434888  30.435   7.660  38.530
 1454BOLB   C1C34889  29.985   7.500  38.630
 1454BOLB   C2C34890  29.525   7.540  38.380
 1454BOLB   C3C34891  29.325   7.630  38.040
 1454BOLB   C4C34892  29.095   7.530  37.780
 1454BOLB   C1D34893  30.435   7.830  38.090
 1454BOLB   C2D34894  30.325   8.080  37.790
 1454BOLB   C3D34895  30.065   8.510  37.690
 1454BOLB   C4D34896  29.955   8.940  37.690
 1455BOLB   NC134897  17.620  20.680  39.450
 1455BOLB   PO134898  17.720  20.940  39.880
 1455BOLB   GL134899  17.400  21.090  40.340
 1455BOLB   GL234900  17.410  21.440  40.260
 1455BOLB   C1A34901  17.120  21.010  40.670
 1455BOLB   C2A34902  16.740  21.180  40.970
 1455BOLB   C3A34903  16.480  21.490  41.170
 1455BOLB   C4A34904  16.480  22.010  41.150
 1455BOLB   C1B34905  17.140  21.770  40.600
 1455BOLB   C2B34906  16.770  21.940  40.720
 1455BOLB   C3B34907  16.570  22.360  40.810
 1455BOLB   C4B34908  16.570  22.840  40.720
 1455BOLB   NC234909  15.510  23.390  43.000
 1455BOLB   PO234910  15.250  23.180  42.740
 1455BOLB   GL334911  15.330  22.950  42.420
 1455BOLB   GL434912  15.020  22.880  42.270
 1455BOLB   C1C34913  15.700  22.860  42.270
 1455BOLB   C2C34914  16.030  22.910  42.030
 1455BOLB   C3C34915  16.210  22.580  41.730
 1455BOLB   C4C34916  16.330  22.300  41.470
 1455BOLB   C1D34917  15.310  22.700  41.980
 1455BOLB   C2D34918  15.700  22.660  41.750
 1455BOLB   C3D34919  15.790  22.260  41.540
 1455BOLB   C4D34920  16.060  21.810  41.440
 1456BOLB   NC134921  23.280  22.350  36.950
 1456BOLB   PO134922  23.700  22.180  37.030
 1456BOLB   GL134923  24.040  22.370  36.950
 1456BOLB   GL234924  24.200  22.430  36.650
 1456BOLB   C1A34925  24.390  22.640  37.190
 1456BOLB   C2A34926  24.710  22.930  37.280
 1456BOLB   C3A34927  25.070  22.950  37.570
 1456BOLB   C4A34928  25.530  23.060  37.600
 1456BOLB   C1B34929  24.590  22.630  36.630
 1456BOLB   C2B34930  25.000  22.830  36.800
 1456BOLB   C3B34931  25.100  23.150  36.980
 1456BOLB   C4B34932  25.200  23.490  37.280
 1456BOLB   NC234933  27.035  24.940  38.440
 1456BOLB   PO234934  26.555  24.890  38.450
 1456BOLB   GL334935  26.280  24.660  38.220
 1456BOLB   GL434936  26.020  24.810  38.230
 1456BOLB   C1C34937  26.050  24.320  38.150
 1456BOLB   C2C34938  26.090  23.990  37.940
 1456BOLB   C3C34939  26.190  23.620  37.730
 1456BOLB   C4C34940  25.900  23.280  37.600
 1456BOLB   C1D34941  25.770  24.740  37.950
 1456BOLB   C2D34942  25.440  24.360  37.980
 1456BOLB   C3D34943  25.170  24.040  38.160
 1456BOLB   C4D34944  24.800  24.120  38.340
 1457BOLB   NC134945  17.160  23.000  24.850
 1457BOLB   PO134946  17.250  23.180  24.420
 1457BOLB   GL134947  17.200  23.540  24.210
 1457BOLB   GL234948  16.930  23.730  24.080
 1457BOLB   C1A34949  17.350  23.990  24.010
 1457BOLB   C2A34950  17.340  24.330  24.160
 1457BOLB   C3A34951  17.260  24.830  24.300
 1457BOLB   C4A34952  17.280  25.210  24.320
 1457BOLB   C1B34953  16.820  23.540  23.730
 1457BOLB   C2B34954  16.600  23.640  23.430
 1457BOLB   C3B34955  16.350  23.980  23.240
 1457BOLB   C4B34956  16.420  24.180  22.860
 1457BOLB   NC234957  16.310   0.330  23.380
 1457BOLB   PO234958  16.110  26.430  23.070
 1457BOLB   GL334959  15.930  26.120  23.420
 1457BOLB   GL434960  16.050  26.250  23.650
 1457BOLB   C1C34961  16.010  25.780  23.740
 1457BOLB   C2C34962  16.460  25.850  23.960
 1457BOLB   C3C34963  16.680  25.610  24.220
 1457BOLB   C4C34964  17.080  25.520  24.240
 1457BOLB   C1D34965  16.400  26.370  23.860
 1457BOLB   C2D34966  16.680  26.250  24.210
 1457BOLB   C3D34967  16.970  26.010  24.390
 1457BOLB   C4D34968  17.180  25.810  24.750
 1458BOLB   NC134969  13.490  19.520  34.330
 1458BOLB   PO134970  13.490  20.000  34.390
 1458BOLB   GL134971  13.000  19.860  34.530
 1458BOLB   GL234972  12.780  19.700  34.310
 1458BOLB   C1A34973  12.640  19.830  34.880
 1458BOLB   C2A34974  12.210  19.680  34.890
 1458BOLB   C3A34975  11.860  19.690  34.750
 1458BOLB   C4A34976  11.470  19.390  34.750
 1458BOLB   C1B34977  12.340  19.870  34.270
 1458BOLB   C2B34978  11.950  19.790  34.290
 1458BOLB   C3B34979  11.560  19.880  34.310
 1458BOLB   C4B34980  11.250  20.120  34.130
 1458BOLB   NC234981   9.390  20.420  34.820
 1458BOLB   PO234982   9.280  19.950  34.680
 1458BOLB   GL334983   9.730  19.950  34.800
 1458BOLB   GL434984   9.880  20.240  34.900
 1458BOLB   C1C34985  10.120  19.800  34.950
 1458BOLB   C2C34986  10.540  19.720  34.930
 1458BOLB   C3C34987  10.860  19.520  34.860
 1458BOLB   C4C34988  11.100  19.310  34.650
 1458BOLB   C1D34989  10.120  20.220  34.570
 1458BOLB   C2D34990  10.570  20.420  34.370
 1458BOLB   C3D34991  10.790  20.230  34.000
 1458BOLB   C4D34992  11.020  20.260  33.670
 1459BOLB   NC134993  17.240  11.460  34.900
 1459BOLB   PO134994  17.040  11.490  35.300
 1459BOLB   GL134995  16.690  11.340  35.330
 1459BOLB   GL234996  16.590  11.320  35.610
 1459BOLB   C1A34997  16.430  11.000  35.200
 1459BOLB   C2A34998  16.110  10.680  35.270
 1459BOLB   C3A34999  15.730  10.470  35.250
 1459BOLB   C4A35000  15.350  10.560  35.410
 1459BOLB   C1B35001  16.330  10.910  35.670
 1459BOLB   C2B35002  16.110  10.770  36.030
 1459BOLB   C3B35003  16.070  10.490  36.410
 1459BOLB   C4B35004  15.930  10.660  36.810
 1459BOLB   NC235005  14.080   9.040  36.040
 1459BOLB   PO235006  13.950   9.470  36.120
 1459BOLB   GL335007  14.320   9.480  35.920
 1459BOLB   GL435008  14.370   9.510  35.510
 1459BOLB   C1C35009  14.660   9.880  36.090
 1459BOLB   C2C35010  14.710  10.280  36.330
 1459BOLB   C3C35011  14.930  10.600  36.220
 1459BOLB   C4C35012  15.160  10.600  35.760
 1459BOLB   C1D35013  14.700   9.330  35.310
 1459BOLB   C2D35014  14.870   9.150  34.950
 1459BOLB   C3D35015  15.040   9.380  34.650
 1459BOLB   C4D35016  15.280   9.310  34.450
 1460BOLB   NC135017  16.380  17.390  40.010
 1460BOLB   PO135018  16.280  17.730  40.280
 1460BOLB   GL135019  15.990  17.760  40.450
 1460BOLB   GL235020  15.960  17.660  40.800
 1460BOLB   C1A35021  15.520  17.900  40.470
 1460BOLB   C2A35022  15.130  17.920  40.740
 1460BOLB   C3A35023  14.750  17.880  40.740
 1460BOLB   C4A35024  14.340  18.010  40.560
 1460BOLB   C1B35025  15.610  17.650  40.990
 1460BOLB   C2B35026  15.200  17.760  41.250
 1460BOLB   C3B35027  14.920  17.970  41.440
 1460BOLB   C4B35028  14.540  18.110  41.720
 1460BOLB   NC235029  11.810  17.700  41.030
 1460BOLB   PO235030  11.910  17.300  40.920
 1460BOLB   GL335031  12.250  17.560  40.960
 1460BOLB   GL435032  12.270  17.500  40.540
 1460BOLB   C1C35033  12.620  17.680  40.870
 1460BOLB   C2C35034  13.130  17.700  40.870
 1460BOLB   C3C35035  13.580  17.880  40.760
 1460BOLB   C4C35036  13.940  17.920  40.600
 1460BOLB   C1D35037  12.730  17.450  40.370
 1460BOLB   C2D35038  13.040  16.960  40.320
 1460BOLB   C3D35039  13.420  16.960  40.190
 1460BOLB   C4D35040  13.850  17.090  40.270
 1461BOLB   NC135041  25.020  18.940  40.550
 1461BOLB   PO135042  25.500  19.020  40.780
 1461BOLB   GL135043  25.730  19.200  41.070
 1461BOLB   GL235044  26.090  19.070  41.050
 1461BOLB   C1A35045  25.930  19.400  41.410
 1461BOLB   C2A35046  26.240  19.630  41.790
 1461BOLB   C3A35047  26.505  19.740  42.230
 1461BOLB   C4A35048  26.575  19.720  42.730
 1461BOLB   C1B35049  26.350  19.010  41.420
 1461BOLB   C2B35050  26.715  19.050  41.680
 1461BOLB   C3B35051  26.955  18.820  41.990
 1461BOLB   C4B35052  27.225  18.750  42.300
 1461BOLB   NC235053  27.685  19.500  45.160
 1461BOLB   PO235054  27.405  19.930  45.110
 1461BOLB   GL335055  27.295  19.860  44.620
 1461BOLB   GL435056  27.435  20.180  44.380
 1461BOLB   C1C35057  27.165  19.560  44.220
 1461BOLB   C2C35058  26.985  19.450  43.820
 1461BOLB   C3C35059  26.965  19.510  43.360
 1461BOLB   C4C35060  26.765  19.780  43.000
 1461BOLB   C1D35061  26.975  20.150  44.200
 1461BOLB   C2D35062  26.675  20.210  43.860
 1461BOLB   C3D35063  26.220  19.970  43.700
 1461BOLB   C4D35064  25.940  19.580  43.600
 1462BOLB   NC135065  16.880  12.930  29.260
 1462BOLB   PO135066  16.380  12.790  29.330
 1462BOLB   GL135067  15.880  12.710  29.360
 1462BOLB   GL235068  15.610  12.860  29.390
 1462BOLB   C1A35069  15.500  12.420  29.360
 1462BOLB   C2A35070  15.320  12.310  28.950
 1462BOLB   C3A35071  15.120  12.070  28.740
 1462BOLB   C4A35072  14.750  11.720  28.760
 1462BOLB   C1B35073  15.260  12.840  28.980
 1462BOLB   C2B35074  14.860  12.960  28.950
 1462BOLB   C3B35075  14.420  13.030  28.950
 1462BOLB   C4B35076  14.060  12.880  29.140
 1462BOLB   NC235077  12.670  11.580  28.180
 1462BOLB   PO235078  12.820  11.370  27.780
 1462BOLB   GL335079  13.010  11.640  27.790
 1462BOLB   GL435080  13.130  11.790  27.550
 1462BOLB   C1C35081  13.240  11.760  28.030
 1462BOLB   C2C35082  13.540  11.870  28.230
 1462BOLB   C3C35083  13.880  11.720  28.550
 1462BOLB   C4C35084  14.290  11.770  28.680
 1462BOLB   C1D35085  13.490  11.990  27.590
 1462BOLB   C2D35086  13.690  12.200  27.430
 1462BOLB   C3D35087  14.040  12.220  27.070
 1462BOLB   C4D35088  14.390  12.050  26.970
 1463BOLB   NC135089  27.385   9.550  26.890
 1463BOLB   PO135090  27.705   9.810  26.660
 1463BOLB   GL135091  28.055   9.710  26.440
 1463BOLB   GL235092  27.785   9.680  26.180
 1463BOLB   C1A35093  28.245   9.390  26.360
 1463BOLB   C2A35094  28.675   9.160  26.380
 1463BOLB   C3A35095  29.025   8.950  26.370
 1463BOLB   C4A35096  29.045   8.550  26.120
 1463BOLB   C1B35097  28.145   9.560  25.840
 1463BOLB   C2B35098  28.275   9.690  25.430
 1463BOLB   C3B35099  28.155   9.650  25.020
 1463BOLB   C4B35100  28.275   9.620  24.500
 1463BOLB   NC235101  31.365   7.270  25.300
 1463BOLB   PO235102  31.125   7.690  25.450
 1463BOLB   GL335103  30.725   7.950  25.560
 1463BOLB   GL435104  30.555   7.690  25.640
 1463BOLB   C1C35105  30.415   8.100  25.850
 1463BOLB   C2C35106  30.055   8.010  26.000
 1463BOLB   C3C35107  29.665   7.940  26.050
 1463BOLB   C4C35108  29.255   8.170  25.990
 1463BOLB   C1D35109  30.165   7.580  25.860
 1463BOLB   C2D35110  29.765   7.460  25.730
 1463BOLB   C3D35111  29.315   7.590  25.780
 1463BOLB   C4D35112  28.945   7.200  25.660
 1464BOLB   NC135113  17.220  11.810  31.220
 1464BOLB   PO135114  17.040  11.920  31.590
 1464BOLB   GL135115  16.750  11.640  31.340
 1464BOLB   GL235116  16.570  11.830  31.170
 1464BOLB   C1A35117  16.400  11.370  31.230
 1464BOLB   C2A35118  15.850  11.180  31.380
 1464BOLB   C3A35119  15.590  10.910  31.490
 1464BOLB   C4A35120  15.380  10.610  31.720
 1464BOLB   C1B35121  16.120  11.710  31.070
 1464BOLB   C2B35122  15.680  11.600  31.100
 1464BOLB   C3B35123  15.440  11.460  31.400
 1464BOLB   C4B35124  15.320  11.350  31.830
 1464BOLB   NC235125  13.890   9.330  31.710
 1464BOLB   PO235126  13.520   9.510  31.630
 1464BOLB   GL335127  13.820   9.790  31.570
 1464BOLB   GL435128  13.720   9.920  31.290
 1464BOLB   C1C35129  14.150  10.020  31.700
 1464BOLB   C2C35130  14.560  10.110  31.550
 1464BOLB   C3C35131  14.930  10.210  31.700
 1464BOLB   C4C35132  15.250  10.270  31.830
 1464BOLB   C1D35133  14.150  10.270  31.290
 1464BOLB   C2D35134  14.550  10.560  31.290
 1464BOLB   C3D35135  14.480  10.990  31.330
 1464BOLB   C4D35136  14.860  11.290  31.540
 1465BOLB   NC135137  15.740  24.270  34.280
 1465BOLB   PO135138  15.370  23.960  34.420
 1465BOLB   GL135139  15.170  24.310  34.580
 1465BOLB   GL235140  15.290  24.530  34.460
 1465BOLB   C1A35141  14.980  24.520  34.970
 1465BOLB   C2A35142  14.890  24.900  35.090
 1465BOLB   C3A35143  14.680  25.220  35.410
 1465BOLB   C4A35144  14.470  25.370  35.620
 1465BOLB   C1B35145  15.170  24.930  34.670
 1465BOLB   C2B35146  15.290  25.350  34.650
 1465BOLB   C3B35147  15.400  25.750  34.690
 1465BOLB   C4B35148  15.310  26.220  34.660
 1465BOLB   NC235149  13.500   1.050  36.450
 1465BOLB   PO235150  13.610   0.750  36.120
 1465BOLB   GL335151  13.880   0.460  36.260
 1465BOLB   GL435152  14.090   0.510  36.490
 1465BOLB   C1C35153  13.870   0.060  36.500
 1465BOLB   C2C35154  13.750  26.110  36.430
 1465BOLB   C3C35155  13.910  25.970  36.060
 1465BOLB   C4C35156  14.220  25.720  35.830
 1465BOLB   C1D35157  14.330   0.090  36.340
 1465BOLB   C2D35158  14.440  26.310  35.990
 1465BOLB   C3D35159  14.610  25.980  35.680
 1465BOLB   C4D35160  14.810  25.750  35.500
 1466BOLB   NC135161  29.395  10.930  30.570
 1466BOLB   PO135162  29.125  11.130  30.240
 1466BOLB   GL135163  29.555  11.180  30.050
 1466BOLB   GL235164  29.645  11.400  29.810
 1466BOLB   C1A35165  29.935  11.190  30.260
 1466BOLB   C2A35166  30.305  10.880  30.230
 1466BOLB   C3A35167  30.615  10.450  30.140
 1466BOLB   C4A35168  30.985  10.360  30.050
 1466BOLB   C1B35169  29.915  11.460  29.430
 1466BOLB   C2B35170  30.245  11.510  29.260
 1466BOLB   C3B35171  30.385  12.010  29.140
 1466BOLB   C4B35172  30.745  12.310  29.050
 1466BOLB   NC235173  33.685   9.820  29.170
 1466BOLB   PO235174  33.525  10.190  29.320
 1466BOLB   GL335175  33.055  10.150  29.240
 1466BOLB   GL435176  32.845  10.480  29.240
 1466BOLB   C1C35177  32.585  10.190  29.530
 1466BOLB   C2C35178  32.255  10.090  29.820
 1466BOLB   C3C35179  31.815  10.150  29.980
 1466BOLB   C4C35180  31.375  10.230  29.990
 1466BOLB   C1D35181  32.495  10.560  29.170
 1466BOLB   C2D35182  32.055  10.550  28.910
 1466BOLB   C3D35183  31.605  10.620  28.870
 1466BOLB   C4D35184  31.195  10.680  28.810
 1467BOLB   NC135185  25.340   7.870  30.000
 1467BOLB   PO135186  25.720   7.620  29.960
 1467BOLB   GL135187  25.710   7.210  29.810
 1467BOLB   GL235188  25.860   7.010  30.160
 1467BOLB   C1A35189  25.990   6.970  29.630
 1467BOLB   C2A35190  26.280   6.670  29.740
 1467BOLB   C3A35191  26.320   6.240  29.680
 1467BOLB   C4A35192  26.595   5.990  29.790
 1467BOLB   C1B35193  25.810   6.620  29.960
 1467BOLB   C2B35194  25.790   6.430  29.670
 1467BOLB   C3B35195  25.660   5.950  29.660
 1467BOLB   C4B35196  25.670   5.580  29.470
 1467BOLB   NC235197  28.555   4.710  30.350
 1467BOLB   PO235198  28.465   4.490  30.060
 1467BOLB   GL335199  28.115   4.750  29.990
 1467BOLB   GL435200  28.075   4.880  29.680
 1467BOLB   C1C35201  27.735   5.040  30.080
 1467BOLB   C2C35202  27.415   5.400  30.030
 1467BOLB   C3C35203  27.205   5.670  30.180
 1467BOLB   C4C35204  26.995   5.940  30.100
 1467BOLB   C1D35205  27.835   5.160  29.620
 1467BOLB   C2D35206  27.595   5.580  29.610
 1467BOLB   C3D35207  27.315   5.870  29.710
 1467BOLB   C4D35208  26.995   6.010  29.450
 1468BOLB   NC135209  25.450  18.690  27.470
 1468BOLB   PO135210  25.830  18.300  27.690
 1468BOLB   GL135211  26.040  18.670  27.610
 1468BOLB   GL235212  26.080  18.780  27.260
 1468BOLB   C1A35213  26.180  19.000  27.960
 1468BOLB   C2A35214  26.430  19.200  28.290
 1468BOLB   C3A35215  26.635  19.590  28.580
 1468BOLB   C4A35216  26.965  19.840  28.410
 1468BOLB   C1B35217  26.440  19.020  27.460
 1468BOLB   C2B35218  26.795  19.240  27.460
 1468BOLB   C3B35219  27.145  19.540  27.600
 1468BOLB   C4B35220  27.325  19.830  27.350
 1468BOLB   NC235221  28.455  21.960  28.210
 1468BOLB   PO235222  28.045  21.720  28.090
 1468BOLB   GL335223  27.995  21.260  28.030
 1468BOLB   GL435224  27.955  21.170  27.690
 1468BOLB   C1C35225  27.595  21.020  28.040
 1468BOLB   C2C35226  27.445  20.610  27.930
 1468BOLB   C3C35227  27.395  20.210  27.860
 1468BOLB   C4C35228  27.245  19.840  28.120
 1468BOLB   C1D35229  27.875  20.730  27.590
 1468BOLB   C2D35230  27.875  20.380  27.790
 1468BOLB   C3D35231  27.835  20.030  27.920
 1468BOLB   C4D35232  27.835  19.800  28.310
 1469BOLB   NC135233  18.340  10.850  34.780
 1469BOLB   PO135234  18.420  10.550  35.100
 1469BOLB   GL135235  18.220  10.200  34.960
 1469BOLB   GL235236  17.980  10.230  35.080
 1469BOLB   C1A35237  18.350  10.060  34.540
 1469BOLB   C2A35238  18.490   9.800  34.190
 1469BOLB   C3A35239  18.290   9.450  33.970
 1469BOLB   C4A35240  18.230   9.030  33.840
 1469BOLB   C1B35241  17.950   9.760  35.110
 1469BOLB   C2B35242  18.240   9.590  35.340
 1469BOLB   C3B35243  18.660   9.580  35.360
 1469BOLB   C4B35244  19.010   9.460  35.610
 1469BOLB   NC235245  17.540   6.230  33.700
 1469BOLB   PO235246  17.350   6.590  33.830
 1469BOLB   GL335247  17.660   6.950  33.810
 1469BOLB   GL435248  17.670   7.080  33.500
 1469BOLB   C1C35249  17.790   7.280  34.050
 1469BOLB   C2C35250  17.780   7.770  34.060
 1469BOLB   C3C35251  17.870   8.250  33.990
 1469BOLB   C4C35252  18.000   8.600  33.910
 1469BOLB   C1D35253  17.800   7.550  33.620
 1469BOLB   C2D35254  18.210   7.610  33.780
 1469BOLB   C3D35255  18.560   7.260  33.700
 1469BOLB   C4D35256  18.340   6.890  33.530
 1470BOLB   NC135257  13.160  19.620  32.660
 1470BOLB   PO135258  13.150  19.200  32.660
 1470BOLB   GL135259  12.860  19.220  32.590
 1470BOLB   GL235260  12.650  19.050  32.760
 1470BOLB   C1A35261  12.520  19.300  32.340
 1470BOLB   C2A35262  12.180  19.270  32.180
 1470BOLB   C3A35263  11.850  18.980  32.110
 1470BOLB   C4A35264  11.440  18.900  32.310
 1470BOLB   C1B35265  12.380  18.800  32.400
 1470BOLB   C2B35266  12.210  18.500  32.190
 1470BOLB   C3B35267  11.910  18.170  32.250
 1470BOLB   C4B35268  11.590  17.870  32.100
 1470BOLB   NC235269   8.970  18.650  32.780
 1470BOLB   PO235270   9.260  18.930  32.780
 1470BOLB   GL335271   9.580  19.190  32.540
 1470BOLB   GL435272   9.510  19.420  32.520
 1470BOLB   C1C35273   9.960  19.160  32.330
 1470BOLB   C2C35274  10.240  18.810  32.360
 1470BOLB   C3C35275  10.640  18.750  32.420
 1470BOLB   C4C35276  11.130  18.860  32.540
 1470BOLB   C1D35277   9.840  19.620  32.710
 1470BOLB   C2D35278  10.330  19.650  32.700
 1470BOLB   C3D35279  10.660  19.710  32.410
 1470BOLB   C4D35280  11.020  19.810  32.230
 1471BOLB   NC135281  22.370  20.900  23.640
 1471BOLB   PO135282  22.500  21.010  24.010
 1471BOLB   GL135283  22.870  21.020  23.770
 1471BOLB   GL235284  23.120  20.920  23.950
 1471BOLB   C1A35285  23.250  21.120  23.510
 1471BOLB   C2A35286  23.530  21.410  23.410
 1471BOLB   C3A35287  23.920  21.630  23.080
 1471BOLB   C4A35288  24.190  21.900  22.890
 1471BOLB   C1B35289  23.530  21.260  23.880
 1471BOLB   C2B35290  23.700  21.720  23.750
 1471BOLB   C3B35291  23.970  21.960  23.380
 1471BOLB   C4B35292  24.500  21.850  23.360
 1471BOLB   NC235293  25.740  23.050  23.180
 1471BOLB   PO235294  26.120  22.910  23.500
 1471BOLB   GL335295  25.850  22.570  23.400
 1471BOLB   GL435296  26.110  22.300  23.320
 1471BOLB   C1C35297  25.580  22.350  23.290
 1471BOLB   C2C35298  25.310  22.100  23.410
 1471BOLB   C3C35299  24.990  21.930  23.260
 1471BOLB   C4C35300  24.650  21.950  22.920
 1471BOLB   C1D35301  26.080  22.060  23.510
 1471BOLB   C2D35302  25.740  21.920  23.590
 1471BOLB   C3D35303  25.370  21.650  23.490
 1471BOLB   C4D35304  25.260  21.360  23.280
 1472BOLB   NC135305  16.630   1.720  29.170
 1472BOLB   PO135306  16.630   2.020  28.900
 1472BOLB   GL135307  16.870   1.550  28.740
 1472BOLB   GL235308  16.830   1.430  28.470
 1472BOLB   C1A35309  16.980   1.220  29.040
 1472BOLB   C2A35310  16.810   1.090  29.380
 1472BOLB   C3A35311  16.920   0.650  29.630
 1472BOLB   C4A35312  17.190   0.400  29.680
 1472BOLB   C1B35313  17.120   1.090  28.400
 1472BOLB   C2B35314  17.380   0.770  28.470
 1472BOLB   C3B35315  17.510   0.280  28.490
 1472BOLB   C4B35316  17.680  26.440  28.120
 1472BOLB   NC235317  18.360   2.410  29.710
 1472BOLB   PO235318  18.030   2.240  30.110
 1472BOLB   GL335319  18.040   1.820  30.100
 1472BOLB   GL435320  18.000   1.680  29.820
 1472BOLB   C1C35321  17.980   1.420  30.310
 1472BOLB   C2C35322  18.030   0.990  30.040
 1472BOLB   C3C35323  17.920   0.440  29.970
 1472BOLB   C4C35324  17.480   0.230  29.790
 1472BOLB   C1D35325  18.040   1.280  29.640
 1472BOLB   C2D35326  18.050   0.870  29.550
 1472BOLB   C3D35327  18.310   0.400  29.620
 1472BOLB   C4D35328  18.680   0.330  29.840
 1473BOLB   NC135329  21.210  22.280  25.320
 1473BOLB   PO135330  21.060  22.010  24.990
 1473BOLB   GL135331  21.010  22.420  24.890
 1473BOLB   GL235332  20.900  22.470  24.580
 1473BOLB   C1A35333  21.180  22.840  24.840
 1473BOLB   C2A35334  21.340  23.220  24.830
 1473BOLB   C3A35335  21.380  23.680  24.600
 1473BOLB   C4A35336  21.580  23.890  24.360
 1473BOLB   C1B35337  21.080  22.760  24.400
 1473BOLB   C2B35338  21.100  23.000  24.070
 1473BOLB   C3B35339  20.900  23.350  23.860
 1473BOLB   C4B35340  20.950  23.560  23.490
 1473BOLB   NC235341  23.350  26.040  23.690
 1473BOLB   PO235342  23.340  25.650  23.900
 1473BOLB   GL335343  23.100  25.350  24.150
 1473BOLB   GL435344  22.910  25.330  23.890
 1473BOLB   C1C35345  22.730  25.160  24.330
 1473BOLB   C2C35346  22.490  24.800  24.230
 1473BOLB   C3C35347  22.020  24.590  24.280
 1473BOLB   C4C35348  21.670  24.310  24.430
 1473BOLB   C1D35349  22.590  25.030  23.750
 1473BOLB   C2D35350  22.430  24.560  23.740
 1473BOLB   C3D35351  21.980  24.290  23.850
 1473BOLB   C4D35352  21.620  24.150  23.760
 1474BOLB   NC135353  23.200   8.100  29.650
 1474BOLB   PO135354  23.530   7.750  29.420
 1474BOLB   GL135355  23.440   7.360  29.320
 1474BOLB   GL235356  23.770   7.170  29.400
 1474BOLB   C1A35357  23.250   7.070  29.020
 1474BOLB   C2A35358  23.200   6.650  28.960
 1474BOLB   C3A35359  23.380   6.360  28.720
 1474BOLB   C4A35360  23.510   6.010  28.440
 1474BOLB   C1B35361  23.640   6.780  29.230
 1474BOLB   C2B35362  23.710   6.330  29.080
 1474BOLB   C3B35363  23.610   5.880  29.010
 1474BOLB   C4B35364  23.820   5.490  28.640
 1474BOLB   NC235365  22.860   4.060  27.190
 1474BOLB   PO235366  23.020   4.240  26.800
 1474BOLB   GL335367  23.140   4.490  27.200
 1474BOLB   GL435368  22.820   4.620  27.320
 1474BOLB   C1C35369  23.290   4.770  27.510
 1474BOLB   C2C35370  23.340   4.840  27.970
 1474BOLB   C3C35371  23.240   5.140  28.220
 1474BOLB   C4C35372  23.400   5.540  28.340
 1474BOLB   C1D35373  22.960   5.050  27.310
 1474BOLB   C2D35374  23.270   5.290  27.320
 1474BOLB   C3D35375  23.310   5.680  27.330
 1474BOLB   C4D35376  23.160   5.920  27.680
 1475BOLB   NC135377  24.400  20.270  18.750
 1475BOLB   PO135378  24.720  20.000  19.010
 1475BOLB   GL135379  24.720  19.660  19.120
 1475BOLB   GL235380  24.890  19.670  19.420
 1475BOLB   C1A35381  24.330  19.500  19.200
 1475BOLB   C2A35382  24.100  19.470  19.650
 1475BOLB   C3A35383  23.770  19.560  19.970
 1475BOLB   C4A35384  23.580  19.250  20.340
 1475BOLB   C1B35385  24.710  19.280  19.470
 1475BOLB   C2B35386  24.350  18.930  19.480
 1475BOLB   C3B35387  24.100  18.690  19.710
 1475BOLB   C4B35388  24.010  18.480  20.040
 1475BOLB   NC235389  24.420  21.000  19.180
 1475BOLB   PO235390  24.670  20.530  19.140
 1475BOLB   GL335391  24.590  20.270  19.480
 1475BOLB   GL435392  24.750  20.210  19.700
 1475BOLB   C1C35393  24.370  19.910  19.740
 1475BOLB   C2C35394  24.280  19.700  20.130
 1475BOLB   C3C35395  24.170  19.430  20.370
 1475BOLB   C4C35396  23.910  19.210  20.530
 1475BOLB   C1D35397  24.810  19.850  19.920
 1475BOLB   C2D35398  24.680  19.460  20.210
 1475BOLB   C3D35399  24.610  19.120  20.460
 1475BOLB   C4D35400  24.350  18.900  20.600
 1476BOLB   NC135401  18.330  23.490  38.720
 1476BOLB   PO135402  18.580  23.130  38.910
 1476BOLB   GL135403  18.530  23.420  39.260
 1476BOLB   GL235404  18.650  23.240  39.460
 1476BOLB   C1A35405  18.570  23.780  39.510
 1476BOLB   C2A35406  18.900  24.050  39.660
 1476BOLB   C3A35407  19.190  24.160  40.030
 1476BOLB   C4A35408  19.350  24.240  40.390
 1476BOLB   C1B35409  18.590  23.280  39.830
 1476BOLB   C2B35410  18.290  23.510  39.870
 1476BOLB   C3B35411  18.240  23.960  39.940
 1476BOLB   C4B35412  18.200  24.240  40.270
 1476BOLB   NC235413  19.440  26.330  41.880
 1476BOLB   PO235414  19.260  26.300  41.460
 1476BOLB   GL335415  19.460  26.040  41.180
 1476BOLB   GL435416  19.430  26.050  40.760
 1476BOLB   C1C35417  19.290  25.710  41.050
 1476BOLB   C2C35418  19.350  25.240  41.030
 1476BOLB   C3C35419  19.680  24.850  40.950
 1476BOLB   C4C35420  19.550  24.380  40.790
 1476BOLB   C1D35421  19.710  25.670  40.630
 1476BOLB   C2D35422  19.820  25.450  40.190
 1476BOLB   C3D35423  19.810  25.260  39.790
 1476BOLB   C4D35424  19.860  25.360  39.380
 1477BOLB   NC135425  19.180  10.530  28.090
 1477BOLB   PO135426  18.930  10.600  28.440
 1477BOLB   GL135427  18.500  10.500  28.360
 1477BOLB   GL235428  18.300  10.810  28.280
 1477BOLB   C1A35429  18.390  10.170  28.390
 1477BOLB   C2A35430  18.410   9.720  28.320
 1477BOLB   C3A35431  18.240   9.410  28.090
 1477BOLB   C4A35432  18.000   9.000  28.020
 1477BOLB   C1B35433  18.030  10.480  28.190
 1477BOLB   C2B35434  17.660  10.200  28.090
 1477BOLB   C3B35435  17.260  10.110  27.920
 1477BOLB   C4B35436  16.920   9.990  28.110
 1477BOLB   NC235437  17.490   6.500  27.260
 1477BOLB   PO235438  17.530   6.720  27.610
 1477BOLB   GL335439  17.580   7.160  27.660
 1477BOLB   GL435440  17.250   7.220  27.870
 1477BOLB   C1C35441  17.790   7.430  27.860
 1477BOLB   C2C35442  17.890   7.890  27.900
 1477BOLB   C3C35443  18.110   8.310  27.870
 1477BOLB   C4C35444  18.040   8.650  28.020
 1477BOLB   C1D35445  17.110   7.730  27.900
 1477BOLB   C2D35446  17.350   8.160  27.920
 1477BOLB   C3D35447  17.630   8.320  27.990
 1477BOLB   C4D35448  17.590   8.740  28.200
 1478BOLB   NC135449  27.265  11.670  26.810
 1478BOLB   PO135450  27.485  11.400  26.480
 1478BOLB   GL135451  28.065  11.120  26.280
 1478BOLB   GL235452  28.345  11.310  26.430
 1478BOLB   C1A35453  28.445  11.080  25.950
 1478BOLB   C2A35454  28.935  11.080  25.860
 1478BOLB   C3A35455  29.365  10.990  25.760
 1478BOLB   C4A35456  29.605  11.090  25.390
 1478BOLB   C1B35457  28.795  11.310  26.270
 1478BOLB   C2B35458  29.265  11.210  26.210
 1478BOLB   C3B35459  29.535  10.870  26.220
 1478BOLB   C4B35460  29.855  10.570  26.150
 1478BOLB   NC235461  31.795  10.820  24.820
 1478BOLB   PO235462  31.605  10.620  24.600
 1478BOLB   GL335463  31.215  10.610  24.840
 1478BOLB   GL435464  31.005  10.800  24.680
 1478BOLB   C1C35465  30.995  10.680  25.190
 1478BOLB   C2C35466  30.905  11.080  25.240
 1478BOLB   C3C35467  30.415  11.260  25.390
 1478BOLB   C4C35468  29.955  11.240  25.170
 1478BOLB   C1D35469  30.945  11.250  24.780
 1478BOLB   C2D35470  30.545  11.280  24.890
 1478BOLB   C3D35471  30.165  11.280  24.730
 1478BOLB   C4D35472  29.925  10.960  24.590
 1479BOLB   NC135473  15.350  16.180  38.990
 1479BOLB   PO135474  15.240  16.250  38.590
 1479BOLB   GL135475  14.880  16.140  38.810
 1479BOLB   GL235476  14.890  16.250  39.210
 1479BOLB   C1A35477  14.440  15.990  38.970
 1479BOLB   C2A35478  13.970  15.940  39.100
 1479BOLB   C3A35479  13.890  15.740  39.490
 1479BOLB   C4A35480  13.650  15.690  39.850
 1479BOLB   C1B35481  14.820  15.900  39.340
 1479BOLB   C2B35482  14.570  15.510  39.330
 1479BOLB   C3B35483  14.100  15.300  39.240
 1479BOLB   C4B35484  13.770  14.960  39.350
 1479BOLB   NC235485  11.670  14.410  40.010
 1479BOLB   PO235486  11.760  14.750  40.270
 1479BOLB   GL335487  12.150  14.890  40.060
 1479BOLB   GL435488  12.140  15.080  39.770
 1479BOLB   C1C35489  12.410  15.180  40.150
 1479BOLB   C2C35490  12.590  15.530  40.050
 1479BOLB   C3C35491  13.040  15.760  40.240
 1479BOLB   C4C35492  13.420  15.790  40.200
 1479BOLB   C1D35493  12.570  15.330  39.610
 1479BOLB   C2D35494  12.730  15.760  39.400
 1479BOLB   C3D35495  12.960  16.000  39.200
 1479BOLB   C4D35496  13.200  16.420  39.250
 1480BOLB   NC135497  24.770  14.390  42.780
 1480BOLB   PO135498  24.500  14.650  42.920
 1480BOLB   GL135499  24.640  14.440  43.270
 1480BOLB   GL235500  24.320  14.310  43.440
 1480BOLB   C1A35501  24.870  14.190  43.480
 1480BOLB   C2A35502  25.090  14.040  43.750
 1480BOLB   C3A35503  24.920  13.960  44.110
 1480BOLB   C4A35504  25.200  13.610  44.350
 1480BOLB   C1B35505  24.480  14.130  43.760
 1480BOLB   C2B35506  24.410  14.010  44.100
 1480BOLB   C3B35507  24.330  13.690  44.300
 1480BOLB   C4B35508  24.280  13.250  44.470
 1480BOLB   NC235509  25.830  11.090  45.530
 1480BOLB   PO235510  25.760  11.490  45.390
 1480BOLB   GL335511  25.650  11.630  44.970
 1480BOLB   GL435512  25.670  11.350  44.770
 1480BOLB   C1C35513  25.740  12.180  44.870
 1480BOLB   C2C35514  25.710  12.440  44.550
 1480BOLB   C3C35515  25.480  12.810  44.480
 1480BOLB   C4C35516  25.300  13.290  44.550
 1480BOLB   C1D35517  25.420  11.640  44.580
 1480BOLB   C2D35518  25.570  12.000  44.400
 1480BOLB   C3D35519  25.470  12.260  44.010
 1480BOLB   C4D35520  25.100  12.380  43.770
 1481BOLB   NC135521  25.520  16.700  41.940
 1481BOLB   PO135522  25.680  16.900  42.360
 1481BOLB   GL135523  25.830  16.930  42.790
 1481BOLB   GL235524  25.730  16.880  43.060
 1481BOLB   C1A35525  26.210  17.050  43.090
 1481BOLB   C2A35526  26.475  17.390  43.190
 1481BOLB   C3A35527  26.825  17.620  43.220
 1481BOLB   C4A35528  27.085  17.220  43.130
 1481BOLB   C1B35529  25.760  16.850  43.420
 1481BOLB   C2B35530  25.910  17.070  43.650
 1481BOLB   C3B35531  26.150  17.220  44.130
 1481BOLB   C4B35532  26.080  17.520  44.510
 1481BOLB   NC235533  28.145  16.520  45.350
 1481BOLB   PO235534  28.105  16.890  45.220
 1481BOLB   GL335535  27.945  17.160  44.830
 1481BOLB   GL435536  27.975  17.560  44.720
 1481BOLB   C1C35537  27.785  17.110  44.340
 1481BOLB   C2C35538  27.805  16.900  43.920
 1481BOLB   C3C35539  27.795  17.060  43.560
 1481BOLB   C4C35540  27.485  17.160  43.250
 1481BOLB   C1D35541  27.555  17.480  44.600
 1481BOLB   C2D35542  27.445  17.010  44.700
 1481BOLB   C3D35543  27.315  16.710  44.950
 1481BOLB   C4D35544  26.995  16.450  45.180
 1482BOLB   NC135545  24.420  20.450  34.030
 1482BOLB   PO135546  24.420  20.870  34.080
 1482BOLB   GL135547  24.630  21.180  33.920
 1482BOLB   GL235548  24.790  21.190  34.210
 1482BOLB   C1A35549  24.930  21.540  33.800
 1482BOLB   C2A35550  25.160  21.890  33.800
 1482BOLB   C3A35551  25.550  22.000  33.770
 1482BOLB   C4A35552  25.880  22.300  33.770
 1482BOLB   C1B35553  25.120  21.100  33.970
 1482BOLB   C2B35554  25.460  21.400  33.690
 1482BOLB   C3B35555  25.810  21.630  33.500
 1482BOLB   C4B35556  26.260  21.650  33.490
 1482BOLB   NC235557  27.105  23.330  32.290
 1482BOLB   PO235558  27.425  23.070  32.450
 1482BOLB   GL335559  27.185  22.690  32.530
 1482BOLB   GL435560  26.955  22.910  32.560
 1482BOLB   C1C35561  26.775  22.450  32.710
 1482BOLB   C2C35562  26.645  22.510  33.050
 1482BOLB   C3C35563  26.455  22.620  33.370
 1482BOLB   C4C35564  26.080  22.670  33.620
 1482BOLB   C1D35565  26.625  22.960  32.760
 1482BOLB   C2D35566  26.320  22.720  32.690
 1482BOLB   C3D35567  26.150  22.460  33.030
 1482BOLB   C4D35568  26.090  22.070  33.400
 1483BOLB   NC135569  25.340  20.940  37.570
 1483BOLB   PO135570  25.340  20.980  37.160
 1483BOLB   GL135571  25.700  21.060  37.080
 1483BOLB   GL235572  25.850  21.080  37.380
 1483BOLB   C1A35573  26.100  21.200  36.830
 1483BOLB   C2A35574  26.455  21.430  36.820
 1483BOLB   C3A35575  26.915  21.220  36.810
 1483BOLB   C4A35576  27.295  21.310  36.630
 1483BOLB   C1B35577  26.210  21.260  37.310
 1483BOLB   C2B35578  26.555  21.600  37.360
 1483BOLB   C3B35579  26.835  21.860  37.560
 1483BOLB   C4B35580  27.105  21.720  37.910
 1483BOLB   NC235581  28.435  23.320  36.950
 1483BOLB   PO235582  28.635  23.020  37.260
 1483BOLB   GL335583  28.505  22.530  37.160
 1483BOLB   GL435584  28.525  22.400  36.870
 1483BOLB   C1C35585  28.205  22.270  37.230
 1483BOLB   C2C35586  28.025  22.080  36.910
 1483BOLB   C3C35587  27.985  21.720  36.840
 1483BOLB   C4C35588  27.675  21.430  36.580
 1483BOLB   C1D35589  28.175  22.470  36.540
 1483BOLB   C2D35590  27.855  22.110  36.390
 1483BOLB   C3D35591  28.035  21.700  36.230
 1483BOLB   C4D35592  28.375  21.340  36.140
 1484BOLB   NC135593  22.040   8.690  35.690
 1484BOLB   PO135594  21.960   9.040  35.970
 1484BOLB   GL135595  21.730   8.640  36.090
 1484BOLB   GL235596  21.640   8.280  35.920
 1484BOLB   C1A35597  21.420   8.360  36.310
 1484BOLB   C2A35598  21.130   7.930  36.450
 1484BOLB   C3A35599  20.750   7.700  36.660
 1484BOLB   C4A35600  20.740   7.200  36.760
 1484BOLB   C1B35601  21.220   8.030  35.940
 1484BOLB   C2B35602  20.860   7.760  36.080
 1484BOLB   C3B35603  20.700   7.380  36.210
 1484BOLB   C4B35604  20.470   7.070  36.250
 1484BOLB   NC235605  19.960   4.890  37.090
 1484BOLB   PO235606  20.140   5.170  37.410
 1484BOLB   GL335607  20.090   5.550  37.190
 1484BOLB   GL435608  20.030   5.930  37.250
 1484BOLB   C1C35609  20.200   5.740  36.800
 1484BOLB   C2C35610  20.260   6.150  36.610
 1484BOLB   C3C35611  20.480   6.520  36.690
 1484BOLB   C4C35612  20.610   6.840  36.690
 1484BOLB   C1D35613  20.420   6.130  37.140
 1484BOLB   C2D35614  20.620   6.540  37.200
 1484BOLB   C3D35615  20.670   6.890  37.270
 1484BOLB   C4D35616  20.850   7.340  37.300
 1485BOLB   NC135617  15.170  14.840  29.950
 1485BOLB   PO135618  15.400  14.550  29.810
 1485BOLB   GL135619  15.140  14.400  29.740
 1485BOLB   GL235620  14.910  14.220  29.960
 1485BOLB   C1A35621  14.910  14.340  29.400
 1485BOLB   C2A35622  14.540  14.120  29.450
 1485BOLB   C3A35623  14.150  14.030  29.290
 1485BOLB   C4A35624  13.840  13.830  29.420
 1485BOLB   C1B35625  14.460  14.100  30.120
 1485BOLB   C2B35626  14.120  14.150  29.870
 1485BOLB   C3B35627  13.950  14.350  29.560
 1485BOLB   C4B35628  13.930  14.770  29.380
 1485BOLB   NC235629  11.730  12.720  29.580
 1485BOLB   PO235630  11.720  13.080  29.260
 1485BOLB   GL335631  12.170  13.220  29.060
 1485BOLB   GL435632  12.230  12.930  28.930
 1485BOLB   C1C35633  12.560  13.300  29.250
 1485BOLB   C2C35634  12.830  13.010  29.500
 1485BOLB   C3C35635  13.270  13.230  29.500
 1485BOLB   C4C35636  13.480  13.590  29.510
 1485BOLB   C1D35637  12.590  12.870  28.560
 1485BOLB   C2D35638  12.930  13.020  28.500
 1485BOLB   C3D35639  13.170  13.260  28.740
 1485BOLB   C4D35640  13.020  13.390  29.090
 1486BOLB   NC135641  25.560  10.910  39.540
 1486BOLB   PO135642  25.340  10.830  39.880
 1486BOLB   GL135643  25.400  10.520  40.240
 1486BOLB   GL235644  25.460  10.630  40.560
 1486BOLB   C1A35645  25.850  10.360  40.330
 1486BOLB   C2A35646  25.910   9.960  40.620
 1486BOLB   C3A35647  26.100   9.730  40.950
 1486BOLB   C4A35648  26.250   9.610  41.260
 1486BOLB   C1B35649  25.890  10.490  40.830
 1486BOLB   C2B35650  26.120  10.260  41.060
 1486BOLB   C3B35651  26.350  10.200  41.350
 1486BOLB   C4B35652  26.525   9.890  41.630
 1486BOLB   NC235653  27.565   8.310  42.830
 1486BOLB   PO235654  27.255   8.330  43.150
 1486BOLB   GL335655  27.135   8.610  42.880
 1486BOLB   GL435656  27.475   8.890  42.800
 1486BOLB   C1C35657  27.085   8.800  42.480
 1486BOLB   C2C35658  26.905   9.130  42.230
 1486BOLB   C3C35659  26.575   9.390  41.900
 1486BOLB   C4C35660  26.250   9.260  41.620
 1486BOLB   C1D35661  27.475   9.160  42.500
 1486BOLB   C2D35662  27.295   9.510  42.350
 1486BOLB   C3D35663  27.635   9.770  42.240
 1486BOLB   C4D35664  27.715  10.120  41.820
 1487BOLB   NC135665  19.390  11.030  26.060
 1487BOLB   PO135666  19.660  11.270  25.740
 1487BOLB   GL135667  19.180  11.100  25.620
 1487BOLB   GL235668  19.140  10.760  25.620
 1487BOLB   C1A35669  18.870  10.890  25.240
 1487BOLB   C2A35670  18.690  10.720  24.990
 1487BOLB   C3A35671  18.300  10.720  24.730
 1487BOLB   C4A35672  17.830  10.650  24.850
 1487BOLB   C1B35673  18.980  10.360  25.500
 1487BOLB   C2B35674  18.730  10.040  25.580
 1487BOLB   C3B35675  18.350   9.960  25.560
 1487BOLB   C4B35676  18.120  10.370  25.570
 1487BOLB   NC235677  16.080   9.470  23.880
 1487BOLB   PO235678  16.380   9.220  23.710
 1487BOLB   GL335679  16.590   9.380  24.070
 1487BOLB   GL435680  16.530   9.700  23.930
 1487BOLB   C1C35681  16.730   9.700  24.440
 1487BOLB   C2C35682  16.890  10.020  24.350
 1487BOLB   C3C35683  17.090  10.350  24.480
 1487BOLB   C4C35684  17.430  10.650  24.620
 1487BOLB   C1D35685  16.450  10.120  24.090
 1487BOLB   C2D35686  16.570  10.490  24.330
 1487BOLB   C3D35687  16.410  10.620  24.690
 1487BOLB   C4D35688  16.150  10.670  25.100
 1488BOLB   NC135689  17.390  11.670  30.580
 1488BOLB   PO135690  17.550  11.580  30.980
 1488BOLB   GL135691  17.310  11.260  31.010
 1488BOLB   GL235692  17.230  11.230  31.340
 1488BOLB   C1A35693  16.870  11.100  31.050
 1488BOLB   C2A35694  16.450  10.940  30.830
 1488BOLB   C3A35695  16.330  10.800  30.430
 1488BOLB   C4A35696  16.300  10.490  30.260
 1488BOLB   C1B35697  17.110  10.780  31.260
 1488BOLB   C2B35698  16.760  10.440  31.290
 1488BOLB   C3B35699  16.340  10.310  31.250
 1488BOLB   C4B35700  16.240   9.980  30.980
 1488BOLB   NC235701  14.610   9.190  31.230
 1488BOLB   PO235702  14.730   8.870  31.370
 1488BOLB   GL335703  15.090   9.000  31.120
 1488BOLB   GL435704  15.340   8.780  30.980
 1488BOLB   C1C35705  15.190   9.390  30.900
 1488BOLB   C2C35706  15.490   9.620  30.460
 1488BOLB   C3C35707  15.610   9.980  30.280
 1488BOLB   C4C35708  15.980  10.150  30.050
 1488BOLB   C1D35709  15.630   9.110  31.070
 1488BOLB   C2D35710  15.720   9.450  30.890
 1488BOLB   C3D35711  15.950   9.720  30.610
 1488BOLB   C4D35712  16.200  10.040  30.480
 1489BOLB   NC135713  14.270  22.360  33.770
 1489BOLB   PO135714  14.120  22.510  33.400
 1489BOLB   GL135715  13.690  22.680  33.500
 1489BOLB   GL235716  13.470  22.710  33.320
 1489BOLB   C1A35717  13.550  22.950  33.800
 1489BOLB   C2A35718  13.260  22.990  34.130
 1489BOLB   C3A35719  12.880  23.220  34.290
 1489BOLB   C4A35720  12.520  23.440  34.370
 1489BOLB   C1B35721  13.160  22.840  33.600
 1489BOLB   C2B35722  12.920  23.150  33.820
 1489BOLB   C3B35723  13.070  23.560  34.000
 1489BOLB   C4B35724  13.170  23.940  34.090
 1489BOLB   NC235725  11.550  25.290  35.390
 1489BOLB   PO235726  11.230  25.050  35.170
 1489BOLB   GL335727  11.670  24.970  35.000
 1489BOLB   GL435728  11.590  24.630  34.860
 1489BOLB   C1C35729  12.100  24.720  34.820
 1489BOLB   C2C35730  12.370  24.370  34.880
 1489BOLB   C3C35731  12.460  24.010  34.900
 1489BOLB   C4C35732  12.410  23.630  34.680
 1489BOLB   C1D35733  11.870  24.250  34.670
 1489BOLB   C2D35734  12.210  24.090  34.420
 1489BOLB   C3D35735  12.230  23.840  34.000
 1489BOLB   C4D35736  12.530  23.530  33.890
 1490BOLB   NC135737  25.140  14.330  21.750
 1490BOLB   PO135738  25.060  14.570  22.150
 1490BOLB   GL135739  25.430  14.600  22.060
 1490BOLB   GL235740  25.640  14.440  21.790
 1490BOLB   C1A35741  25.780  14.870  21.970
 1490BOLB   C2A35742  26.120  14.880  21.740
 1490BOLB   C3A35743  26.440  15.100  21.500
 1490BOLB   C4A35744  26.755  14.930  21.210
 1490BOLB   C1B35745  26.100  14.370  21.720
 1490BOLB   C2B35746  26.260  13.950  21.440
 1490BOLB   C3B35747  26.565  13.640  21.280
 1490BOLB   C4B35748  26.745  13.330  21.090
 1490BOLB   NC235749  28.895  14.340  19.770
 1490BOLB   PO235750  28.845  13.920  19.840
 1490BOLB   GL335751  28.515  14.210  20.080
 1490BOLB   GL435752  28.515  14.600  20.070
 1490BOLB   C1C35753  28.035  14.280  20.100
 1490BOLB   C2C35754  27.625  14.440  20.430
 1490BOLB   C3C35755  27.275  14.460  20.660
 1490BOLB   C4C35756  27.075  14.670  21.030
 1490BOLB   C1D35757  28.575  14.540  20.530
 1490BOLB   C2D35758  28.365  14.660  20.880
 1490BOLB   C3D35759  28.135  14.980  21.110
 1490BOLB   C4D35760  28.105  15.350  21.390
 1491BOLB   NC135761  13.940  22.920  31.420
 1491BOLB   PO135762  13.850  23.080  30.970
 1491BOLB   GL135763  13.820  23.470  31.180
 1491BOLB   GL235764  13.520  23.490  31.160
 1491BOLB   C1A35765  14.020  23.790  31.510
 1491BOLB   C2A35766  13.830  24.060  31.740
 1491BOLB   C3A35767  13.590  24.420  31.860
 1491BOLB   C4A35768  13.690  24.830  31.880
 1491BOLB   C1B35769  13.540  23.870  31.320
 1491BOLB   C2B35770  13.290  24.170  31.420
 1491BOLB   C3B35771  13.090  24.540  31.550
 1491BOLB   C4B35772  13.070  24.870  31.590
 1491BOLB   NC235773  12.090   0.230  33.050
 1491BOLB   PO235774  12.410   0.330  32.720
 1491BOLB   GL335775  12.640  26.440  32.800
 1491BOLB   GL435776  12.670  26.220  33.040
 1491BOLB   C1C35777  13.070  26.250  32.700
 1491BOLB   C2C35778  13.250  25.860  32.580
 1491BOLB   C3C35779  13.160  25.560  32.180
 1491BOLB   C4C35780  13.440  25.230  31.910
 1491BOLB   C1D35781  12.920  26.060  33.280
 1491BOLB   C2D35782  13.180  25.650  33.400
 1491BOLB   C3D35783  13.330  25.310  33.150
 1491BOLB   C4D35784  13.140  25.020  32.780
 1492BOLB   NC135785  14.230  16.050  30.100
 1492BOLB   PO135786  14.450  15.720  30.100
 1492BOLB   GL135787  14.010  15.580  30.130
 1492BOLB   GL235788  13.880  15.320  30.090
 1492BOLB   C1A35789  13.730  15.730  30.340
 1492BOLB   C2A35790  13.340  15.580  30.320
 1492BOLB   C3A35791  13.020  15.550  30.110
 1492BOLB   C4A35792  12.610  15.540  29.900
 1492BOLB   C1B35793  13.570  14.990  30.000
 1492BOLB   C2B35794  13.520  14.860  29.680
 1492BOLB   C3B35795  13.490  15.220  29.280
 1492BOLB   C4B35796  13.670  15.150  28.860
 1492BOLB   NC235797  10.190  15.510  28.890
 1492BOLB   PO235798  10.620  15.290  28.820
 1492BOLB   GL335799  10.940  15.490  28.810
 1492BOLB   GL435800  11.000  15.740  28.620
 1492BOLB   C1C35801  11.300  15.520  28.990
 1492BOLB   C2C35802  11.750  15.460  29.080
 1492BOLB   C3C35803  12.200  15.470  29.130
 1492BOLB   C4C35804  12.260  15.380  29.640
 1492BOLB   C1D35805  11.430  15.850  28.570
 1492BOLB   C2D35806  11.800  16.140  28.650
 1492BOLB   C3D35807  11.790  16.410  28.320
 1492BOLB   C4D35808  12.010  16.610  28.090
 1493BOLB   NC135809  15.590  22.800  36.850
 1493BOLB   PO135810  15.960  23.000  37.070
 1493BOLB   GL135811  15.610  23.130  37.260
 1493BOLB   GL235812  15.720  23.380  37.500
 1493BOLB   C1A35813  15.280  23.250  37.430
 1493BOLB   C2A35814  15.060  23.620  37.390
 1493BOLB   C3A35815  14.980  23.930  37.430
 1493BOLB   C4A35816  15.010  24.220  37.760
 1493BOLB   C1B35817  15.480  23.630  37.730
 1493BOLB   C2B35818  15.040  23.750  37.920
 1493BOLB   C3B35819  14.840  23.940  38.180
 1493BOLB   C4B35820  14.760  23.920  38.570
 1493BOLB   NC235821  13.650  26.030  39.250
 1493BOLB   PO235822  13.600  25.970  38.810
 1493BOLB   GL335823  13.710  25.510  38.530
 1493BOLB   GL435824  13.560  25.190  38.610
 1493BOLB   C1C35825  13.740  25.320  38.180
 1493BOLB   C2C35826  14.120  25.090  38.060
 1493BOLB   C3C35827  14.520  24.900  37.950
 1493BOLB   C4C35828  14.840  24.640  37.850
 1493BOLB   C1D35829  14.010  25.000  38.530
 1493BOLB   C2D35830  14.130  24.600  38.220
 1493BOLB   C3D35831  14.320  24.410  37.860
 1493BOLB   C4D35832  14.480  24.280  37.440
 1494BOLB   NC135833  23.460  17.860  22.330
 1494BOLB   PO135834  23.750  18.030  22.530
 1494BOLB   GL135835  23.860  18.400  22.270
 1494BOLB   GL235836  23.780  18.790  22.310
 1494BOLB   C1A35837  24.020  18.500  21.800
 1494BOLB   C2A35838  24.120  18.620  21.430
 1494BOLB   C3A35839  24.030  19.000  21.230
 1494BOLB   C4A35840  24.210  19.320  20.880
 1494BOLB   C1B35841  24.090  18.930  22.040
 1494BOLB   C2B35842  24.370  18.970  21.650
 1494BOLB   C3B35843  24.500  18.980  21.210
 1494BOLB   C4B35844  24.730  18.890  20.880
 1494BOLB   NC235845  25.590  20.630  19.920
 1494BOLB   PO235846  25.540  20.610  19.410
 1494BOLB   GL335847  25.220  20.410  19.620
 1494BOLB   GL435848  25.060  20.580  19.910
 1494BOLB   C1C35849  25.270  20.050  19.810
 1494BOLB   C2C35850  25.280  19.910  20.300
 1494BOLB   C3C35851  24.870  19.810  20.530
 1494BOLB   C4C35852  24.510  19.760  20.710
 1494BOLB   C1D35853  24.910  20.290  20.170
 1494BOLB   C2D35854  24.480  20.100  20.340
 1494BOLB   C3D35855  24.210  20.150  20.660
 1494BOLB   C4D35856  24.070  19.890  20.960
 1495BOLB   NC135857  13.440  21.180  31.760
 1495BOLB   PO135858  13.730  21.470  31.870
 1495BOLB   GL135859  13.340  21.620  32.050
 1495BOLB   GL235860  13.070  21.440  31.920
 1495BOLB   C1A35861  12.970  21.920  31.990
 1495BOLB   C2A35862  12.660  22.180  31.870
 1495BOLB   C3A35863  12.150  22.230  31.810
 1495BOLB   C4A35864  11.750  22.180  31.870
 1495BOLB   C1B35865  12.690  21.340  32.090
 1495BOLB   C2B35866  12.280  21.240  32.080
 1495BOLB   C3B35867  11.870  20.960  32.100
 1495BOLB   C4B35868  12.080  20.610  32.000
 1495BOLB   NC235869   9.370  22.990  32.390
 1495BOLB   PO235870   9.410  22.560  32.340
 1495BOLB   GL335871   9.870  22.510  32.420
 1495BOLB   GL435872   9.840  22.490  32.820
 1495BOLB   C1C35873  10.220  22.380  32.350
 1495BOLB   C2C35874  10.520  22.410  32.140
 1495BOLB   C3C35875  10.920  22.280  32.160
 1495BOLB   C4C35876  11.300  22.080  32.010
 1495BOLB   C1D35877   9.920  22.000  32.510
 1495BOLB   C2D35878  10.190  21.580  32.300
 1495BOLB   C3D35879  10.600  21.400  32.160
 1495BOLB   C4D35880  11.000  21.440  31.970
 1496BOLB   NC135881  23.110  21.140  40.970
 1496BOLB   PO135882  23.490  21.380  41.020
 1496BOLB   GL135883  23.670  21.640  41.240
 1496BOLB   GL235884  23.510  21.870  40.940
 1496BOLB   C1A35885  23.910  21.930  41.460
 1496BOLB   C2A35886  24.000  22.330  41.520
 1496BOLB   C3A35887  23.700  22.530  41.560
 1496BOLB   C4A35888  23.420  22.850  41.880
 1496BOLB   C1B35889  23.930  22.010  40.960
 1496BOLB   C2B35890  24.280  22.210  40.820
 1496BOLB   C3B35891  24.330  22.530  40.400
 1496BOLB   C4B35892  24.650  22.690  40.130
 1496BOLB   NC235893  24.220  24.840  42.550
 1496BOLB   PO235894  24.220  24.720  43.000
 1496BOLB   GL335895  24.190  24.300  42.880
 1496BOLB   GL435896  24.440  24.160  42.760
 1496BOLB   C1C35897  24.030  23.980  42.680
 1496BOLB   C2C35898  23.940  23.580  42.470
 1496BOLB   C3C35899  23.850  23.370  42.140
 1496BOLB   C4C35900  23.680  23.040  42.170
 1496BOLB   C1D35901  24.380  23.790  42.450
 1496BOLB   C2D35902  24.400  23.410  42.360
 1496BOLB   C3D35903  24.220  23.030  42.200
 1496BOLB   C4D35904  24.040  22.700  41.940
 1497BOLB   NC135905  18.530  14.950  22.940
 1497BOLB   PO135906  18.830  14.580  22.930
 1497BOLB   GL135907  18.570  14.230  22.610
 1497BOLB   GL235908  18.700  14.150  22.400
 1497BOLB   C1A35909  18.280  13.880  22.430
 1497BOLB   C2A35910  17.920  13.850  22.450
 1497BOLB   C3A35911  17.770  13.770  22.070
 1497BOLB   C4A35912  17.630  13.550  21.730
 1497BOLB   C1B35913  18.510  13.970  21.960
 1497BOLB   C2B35914  18.160  13.890  21.760
 1497BOLB   C3B35915  17.980  13.790  21.420
 1497BOLB   C4B35916  17.660  13.710  21.210
 1497BOLB   NC235917  15.860  13.080  19.960
 1497BOLB   PO235918  16.350  12.890  19.860
 1497BOLB   GL335919  16.330  12.970  20.400
 1497BOLB   GL435920  16.160  13.280  20.320
 1497BOLB   C1C35921  16.270  13.160  20.770
 1497BOLB   C2C35922  16.500  13.280  21.110
 1497BOLB   C3C35923  16.810  13.250  21.400
 1497BOLB   C4C35924  17.240  13.360  21.580
 1497BOLB   C1D35925  16.500  13.530  20.440
 1497BOLB   C2D35926  16.760  13.640  20.850
 1497BOLB   C3D35927  17.040  13.720  21.230
 1497BOLB   C4D35928  17.280  13.850  21.510
 1498BOLB   NC135929  14.520  21.710  26.920
 1498BOLB   PO135930  14.570  22.090  26.850
 1498BOLB   GL135931  14.290  22.310  26.690
 1498BOLB   GL235932  14.270  22.380  26.490
 1498BOLB   C1A35933  13.830  22.580  26.730
 1498BOLB   C2A35934  13.480  22.560  26.920
 1498BOLB   C3A35935  13.030  22.680  27.080
 1498BOLB   C4A35936  12.710  23.020  27.010
 1498BOLB   C1B35937  13.990  22.500  26.150
 1498BOLB   C2B35938  13.580  22.480  25.990
 1498BOLB   C3B35939  13.310  22.740  25.830
 1498BOLB   C4B35940  13.160  23.190  25.800
 1498BOLB   NC235941  11.000  24.380  26.140
 1498BOLB   PO235942  11.080  24.490  26.590
 1498BOLB   GL335943  11.530  24.320  26.420
 1498BOLB   GL435944  11.350  24.050  26.170
 1498BOLB   C1C35945  11.860  24.220  26.200
 1498BOLB   C2C35946  12.070  24.000  26.470
 1498BOLB   C3C35947  12.340  23.780  26.810
 1498BOLB   C4C35948  12.590  23.480  26.990
 1498BOLB   C1D35949  11.460  23.850  26.570
 1498BOLB   C2D35950  11.720  23.660  26.690
 1498BOLB   C3D35951  11.880  23.280  26.920
 1498BOLB   C4D35952  12.250  23.130  27.020
 1499BOLB   NC135953  23.080  22.490  33.920
 1499BOLB   PO135954  23.220  22.240  33.660
 1499BOLB   GL135955  23.570  22.560  33.760
 1499BOLB   GL235956  23.550  22.660  34.110
 1499BOLB   C1A35957  23.590  22.970  33.610
 1499BOLB   C2A35958  23.820  23.230  33.260
 1499BOLB   C3A35959  24.040  23.600  33.110
 1499BOLB   C4A35960  24.060  23.830  32.770
 1499BOLB   C1B35961  23.910  22.890  34.020
 1499BOLB   C2B35962  23.820  23.370  33.950
 1499BOLB   C3B35963  23.830  23.650  33.600
 1499BOLB   C4B35964  23.970  24.140  33.650
 1499BOLB   NC235965  22.790  22.100  32.910
 1499BOLB   PO235966  23.040  22.230  32.530
 1499BOLB   GL335967  23.390  22.560  32.460
 1499BOLB   GL435968  23.200  22.870  32.510
 1499BOLB   C1C35969  23.720  22.900  32.390
 1499BOLB   C2C35970  24.030  23.170  32.230
 1499BOLB   C3C35971  24.350  23.510  32.130
 1499BOLB   C4C35972  24.380  23.630  32.510
 1499BOLB   C1D35973  23.350  23.220  32.360
 1499BOLB   C2D35974  23.480  23.410  31.970
 1499BOLB   C3D35975  23.600  23.850  31.910
 1499BOLB   C4D35976  23.960  23.930  31.910
 1500BOLB   NC135977  23.770   8.370  37.040
 1500BOLB   PO135978  23.500   8.410  36.710
 1500BOLB   GL135979  23.530   8.000  36.820
 1500BOLB   GL235980  23.740   7.740  36.760
 1500BOLB   C1A35981  23.250   7.680  36.870
 1500BOLB   C2A35982  23.160   7.300  37.100
 1500BOLB   C3A35983  23.110   6.940  37.200
 1500BOLB   C4A35984  23.000   6.780  37.620
 1500BOLB   C1B35985  23.690   7.320  36.750
 1500BOLB   C2B35986  23.530   6.970  36.910
 1500BOLB   C3B35987  23.420   6.580  36.760
 1500BOLB   C4B35988  23.740   6.250  36.840
 1500BOLB   NC235989  21.940   4.510  37.630
 1500BOLB   PO235990  22.110   4.680  38.090
 1500BOLB   GL335991  22.220   5.120  38.030
 1500BOLB   GL435992  22.180   5.340  38.210
 1500BOLB   C1C35993  22.190   5.430  37.630
 1500BOLB   C2C35994  22.130   5.870  37.650
 1500BOLB   C3C35995  22.270   6.340  37.620
 1500BOLB   C4C35996  22.610   6.540  37.740
 1500BOLB   C1D35997  22.120   5.790  38.260
 1500BOLB   C2D35998  22.080   6.290  38.060
 1500BOLB   C3D35999  21.780   6.570  37.850
 1500BOLB   C4D36000  21.570   6.620  37.510
 1501BOLB   NC136001  28.235  15.540  30.430
 1501BOLB   PO136002  28.235  15.740  29.980
 1501BOLB   GL136003  28.485  16.100  29.770
 1501BOLB   GL236004  28.615  16.230  30.030
 1501BOLB   C1A36005  28.785  16.430  29.550
 1501BOLB   C2A36006  29.185  16.580  29.660
 1501BOLB   C3A36007  29.365  16.990  29.760
 1501BOLB   C4A36008  29.465  17.450  29.930
 1501BOLB   C1B36009  28.945  16.310  30.080
 1501BOLB   C2B36010  29.215  16.670  30.150
 1501BOLB   C3B36011  29.645  16.660  30.240
 1501BOLB   C4B36012  30.045  16.900  30.520
 1501BOLB   NC236013  30.895  19.370  30.560
 1501BOLB   PO236014  30.505  19.350  30.540
 1501BOLB   GL336015  30.235  18.980  30.680
 1501BOLB   GL436016  30.275  18.900  30.950
 1501BOLB   C1C36017  29.975  18.700  30.490
 1501BOLB   C2C36018  29.715  18.340  30.450
 1501BOLB   C3C36019  29.625  18.070  30.520
 1501BOLB   C4C36020  29.475  17.700  30.370
 1501BOLB   C1D36021  30.125  18.580  31.300
 1501BOLB   C2D36022  30.135  18.100  31.430
 1501BOLB   C3D36023  29.945  17.770  31.470
 1501BOLB   C4D36024  30.025  17.350  31.670
 1502BOLB   NC136025  14.770  22.670  26.830
 1502BOLB   PO136026  14.700  22.680  26.400
 1502BOLB   GL136027  14.350  22.820  26.280
 1502BOLB   GL236028  14.560  23.000  25.990
 1502BOLB   C1A36029  13.960  23.150  26.500
 1502BOLB   C2A36030  13.590  23.040  26.780
 1502BOLB   C3A36031  13.190  23.080  26.720
 1502BOLB   C4A36032  13.010  23.390  26.720
 1502BOLB   C1B36033  14.330  23.270  25.890
 1502BOLB   C2B36034  14.030  23.590  25.770
 1502BOLB   C3B36035  13.800  23.910  25.560
 1502BOLB   C4B36036  13.790  24.370  25.330
 1502BOLB   NC236037  11.200  24.990  26.340
 1502BOLB   PO236038  11.630  25.170  26.250
 1502BOLB   GL336039  11.770  24.790  26.450
 1502BOLB   GL436040  11.550  24.920  26.740
 1502BOLB   C1C36041  12.100  24.520  26.600
 1502BOLB   C2C36042  12.410  24.360  26.660
 1502BOLB   C3C36043  12.790  24.170  26.550
 1502BOLB   C4C36044  13.130  23.820  26.590
 1502BOLB   C1D36045  11.640  24.500  26.990
 1502BOLB   C2D36046  11.880  24.120  26.950
 1502BOLB   C3D36047  11.820  23.720  27.160
 1502BOLB   C4D36048  12.180  23.490  27.340
 1503BOLB   NC136049  24.910  12.400  40.900
 1503BOLB   PO136050  25.280  12.510  41.140
 1503BOLB   GL136051  25.320  12.270  41.530
 1503BOLB   GL236052  25.220  12.330  41.900
 1503BOLB   C1A36053  25.370  11.820  41.580
 1503BOLB   C2A36054  25.490  11.390  41.730
 1503BOLB   C3A36055  25.730  11.070  41.890
 1503BOLB   C4A36056  25.990  10.750  42.090
 1503BOLB   C1B36057  25.520  12.200  42.270
 1503BOLB   C2B36058  25.700  11.950  42.590
 1503BOLB   C3B36059  25.430  11.970  42.970
 1503BOLB   C4B36060  25.240  12.330  43.060
 1503BOLB   NC236061  26.655   9.100  43.990
 1503BOLB   PO236062  26.635   9.450  44.360
 1503BOLB   GL336063  26.545   9.870  44.040
 1503BOLB   GL436064  26.370  10.110  44.220
 1503BOLB   C1C36065  26.400   9.990  43.630
 1503BOLB   C2C36066  26.410  10.130  43.180
 1503BOLB   C3C36067  26.040  10.280  42.800
 1503BOLB   C4C36068  26.030  10.610  42.430
 1503BOLB   C1D36069  26.110  10.430  44.100
 1503BOLB   C2D36070  25.860  10.780  43.820
 1503BOLB   C3D36071  25.660  11.170  43.820
 1503BOLB   C4D36072  25.400  11.270  43.450
 1504BOLB   NC136073  16.960   8.690  41.810
 1504BOLB   PO136074  17.100   9.140  41.650
 1504BOLB   GL136075  17.130   9.300  41.280
 1504BOLB   GL236076  16.980   9.660  41.450
 1504BOLB   C1A36077  17.270   9.460  40.960
 1504BOLB   C2A36078  17.660   9.500  40.680
 1504BOLB   C3A36079  18.090   9.650  40.640
 1504BOLB   C4A36080  18.200   9.990  40.520
 1504BOLB   C1B36081  16.970  10.010  41.230
 1504BOLB   C2B36082  16.900  10.380  40.920
 1504BOLB   C3B36083  16.790  10.860  40.910
 1504BOLB   C4B36084  17.020  11.180  41.000
 1504BOLB   NC236085  16.640   9.730  41.790
 1504BOLB   PO236086  16.660  10.070  41.980
 1504BOLB   GL336087  16.980  10.090  41.720
 1504BOLB   GL436088  17.000  10.440  41.740
 1504BOLB   C1C36089  17.360  10.110  41.510
 1504BOLB   C2C36090  17.780  10.340  41.270
 1504BOLB   C3C36091  17.910  10.670  40.970
 1504BOLB   C4C36092  18.230  10.370  40.600
 1504BOLB   C1D36093  17.440  10.630  41.680
 1504BOLB   C2D36094  17.690  10.820  41.390
 1504BOLB   C3D36095  17.450  10.850  40.880
 1504BOLB   C4D36096  17.300  10.560  40.510
 1505BOLB   NC136097  21.200  20.700  42.690
 1505BOLB   PO136098  20.740  20.700  42.540
 1505BOLB   GL136099  20.760  20.830  42.970
 1505BOLB   GL236100  20.510  20.610  43.240
 1505BOLB   C1A36101  21.010  20.960  43.300
 1505BOLB   C2A36102  21.210  21.080  43.610
 1505BOLB   C3A36103  21.400  21.440  43.780
 1505BOLB   C4A36104  21.530  21.710  44.180
 1505BOLB   C1B36105  20.120  20.820  43.310
 1505BOLB   C2B36106  19.950  21.290  43.360
 1505BOLB   C3B36107  19.720  21.610  43.200
 1505BOLB   C4B36108  19.410  21.910  43.380
 1505BOLB   NC236109  20.450  22.210  46.090
 1505BOLB   PO236110  20.850  21.990  45.980
 1505BOLB   GL336111  20.820  21.550  45.840
 1505BOLB   GL436112  20.640  21.320  46.060
 1505BOLB   C1C36113  20.850  21.340  45.600
 1505BOLB   C2C36114  21.040  21.390  45.100
 1505BOLB   C3C36115  21.090  21.740  44.780
 1505BOLB   C4C36116  21.420  21.760  44.620
 1505BOLB   C1D36117  20.470  20.990  45.720
 1505BOLB   C2D36118  20.300  20.670  45.430
 1505BOLB   C3D36119  20.330  20.250  45.280
 1505BOLB   C4D36120  20.530  19.820  45.130
 1506BOLB   NC136121  28.935  10.300  29.930
 1506BOLB   PO136122  29.325  10.170  30.240
 1506BOLB   GL136123  29.735  10.380  30.100
 1506BOLB   GL236124  29.805  10.740  30.240
 1506BOLB   C1A36125  30.155  10.370  30.020
 1506BOLB   C2A36126  30.245  10.340  29.500
 1506BOLB   C3A36127  30.515  10.520  29.260
 1506BOLB   C4A36128  30.975  10.530  29.280
 1506BOLB   C1B36129  30.035  10.820  30.660
 1506BOLB   C2B36130  30.365  10.950  30.800
 1506BOLB   C3B36131  30.475  10.950  31.250
 1506BOLB   C4B36132  30.915  10.980  31.320
 1506BOLB   NC236133  33.265  11.680  28.980
 1506BOLB   PO236134  33.115  11.330  29.210
 1506BOLB   GL336135  32.845  11.050  29.300
 1506BOLB   GL436136  32.695  11.350  29.460
 1506BOLB   C1C36137  32.475  10.890  29.500
 1506BOLB   C2C36138  32.115  10.820  29.430
 1506BOLB   C3C36139  31.785  10.790  29.280
 1506BOLB   C4C36140  31.355  10.740  29.310
 1506BOLB   C1D36141  32.275  11.550  29.650
 1506BOLB   C2D36142  31.885  11.700  29.590
 1506BOLB   C3D36143  31.535  11.860  29.380
 1506BOLB   C4D36144  31.105  12.000  29.270
 1507BOLB   NC136145  24.540  11.460  40.960
 1507BOLB   PO136146  24.980  11.590  40.860
 1507BOLB   GL136147  24.910  11.530  41.360
 1507BOLB   GL236148  24.670  11.260  41.400
 1507BOLB   C1A36149  24.970  11.530  41.800
 1507BOLB   C2A36150  25.200  11.320  42.150
 1507BOLB   C3A36151  25.460  11.190  42.370
 1507BOLB   C4A36152  25.690  10.860  42.600
 1507BOLB   C1B36153  24.600  11.100  41.860
 1507BOLB   C2B36154  24.790  10.840  42.280
 1507BOLB   C3B36155  24.540  10.480  42.360
 1507BOLB   C4B36156  24.520  10.210  42.740
 1507BOLB   NC236157  27.495   9.970  44.330
 1507BOLB   PO236158  27.355  10.280  44.530
 1507BOLB   GL336159  27.085  10.260  44.150
 1507BOLB   GL436160  27.185  10.090  43.800
 1507BOLB   C1C36161  26.635  10.350  43.880
 1507BOLB   C2C36162  26.260  10.430  43.570
 1507BOLB   C3C36163  26.050  10.720  43.330
 1507BOLB   C4C36164  25.940  10.820  42.970
 1507BOLB   C1D36165  27.285  10.430  43.630
 1507BOLB   C2D36166  27.415  10.720  43.360
 1507BOLB   C3D36167  27.445  10.940  42.900
 1507BOLB   C4D36168  27.375  10.770  42.480
 1508BOLB   NC136169  16.630  18.520  22.590
 1508BOLB   PO136170  16.530  18.070  22.420
 1508BOLB   GL136171  16.200  18.030  22.060
 1508BOLB   GL236172  16.290  18.310  21.750
 1508BOLB   C1A36173  16.120  17.740  21.770
 1508BOLB   C2A36174  15.720  17.490  21.670
 1508BOLB   C3A36175  15.330  17.510  21.540
 1508BOLB   C4A36176  14.940  17.510  21.560
 1508BOLB   C1B36177  16.340  18.100  21.430
 1508BOLB   C2B36178  16.340  17.950  21.120
 1508BOLB   C3B36179  16.000  17.750  20.870
 1508BOLB   C4B36180  15.700  17.380  21.020
 1508BOLB   NC236181  12.670  17.800  20.110
 1508BOLB   PO236182  12.760  17.840  20.540
 1508BOLB   GL336183  13.130  18.000  20.740
 1508BOLB   GL436184  12.950  18.280  20.890
 1508BOLB   C1C36185  13.540  17.850  20.810
 1508BOLB   C2C36186  13.950  17.720  21.000
 1508BOLB   C3C36187  14.470  17.470  20.950
 1508BOLB   C4C36188  14.750  17.400  21.210
 1508BOLB   C1D36189  13.410  18.250  21.090
 1508BOLB   C2D36190  13.780  18.300  21.320
 1508BOLB   C3D36191  14.220  18.370  21.300
 1508BOLB   C4D36192  14.610  18.360  21.430
 1509BOLB   NC136193  20.360  13.100  40.820
 1509BOLB   PO136194  20.200  12.760  40.660
 1509BOLB   GL136195  20.160  12.360  40.980
 1509BOLB   GL236196  19.750  12.450  40.940
 1509BOLB   C1A36197  19.990  12.040  41.070
 1509BOLB   C2A36198  19.870  11.590  40.960
 1509BOLB   C3A36199  19.510  11.320  40.970
 1509BOLB   C4A36200  19.150  11.150  41.180
 1509BOLB   C1B36201  19.490  12.050  41.260
 1509BOLB   C2B36202  19.310  12.100  41.560
 1509BOLB   C3B36203  18.840  12.120  41.740
 1509BOLB   C4B36204  18.440  11.930  42.000
 1509BOLB   NC236205  18.090   9.420  42.670
 1509BOLB   PO236206  18.080   9.850  42.900
 1509BOLB   GL336207  17.950  10.230  42.710
 1509BOLB   GL436208  17.690  10.420  42.580
 1509BOLB   C1C36209  18.100  10.340  42.230
 1509BOLB   C2C36210  18.480  10.440  41.970
 1509BOLB   C3C36211  18.550  10.860  41.740
 1509BOLB   C4C36212  18.920  11.250  41.560
 1509BOLB   C1D36213  17.910  10.800  42.310
 1509BOLB   C2D36214  18.150  11.130  42.110
 1509BOLB   C3D36215  18.170  11.460  41.940
 1509BOLB   C4D36216  18.530  11.550  41.610
 1510BOLB   NC136217  16.320  14.190  31.020
 1510BOLB   PO136218  15.750  14.080  31.010
 1510BOLB   GL136219  15.390  13.910  30.890
 1510BOLB   GL236220  15.350  13.650  30.710
 1510BOLB   C1A36221  14.860  13.820  31.010
 1510BOLB   C2A36222  14.470  13.520  31.170
 1510BOLB   C3A36223  14.160  13.340  31.280
 1510BOLB   C4A36224  13.820  12.940  31.260
 1510BOLB   C1B36225  15.210  13.340  30.910
 1510BOLB   C2B36226  15.030  12.950  30.680
 1510BOLB   C3B36227  14.760  12.620  30.490
 1510BOLB   C4B36228  14.660  12.200  30.340
 1510BOLB   NC236229  12.970  10.680  30.200
 1510BOLB   PO236230  12.720  10.890  30.570
 1510BOLB   GL336231  12.930  11.270  30.710
 1510BOLB   GL436232  12.820  11.540  30.790
 1510BOLB   C1C36233  13.350  11.560  30.900
 1510BOLB   C2C36234  13.530  11.940  31.120
 1510BOLB   C3C36235  13.370  12.340  31.230
 1510BOLB   C4C36236  13.500  12.660  31.420
 1510BOLB   C1D36237  12.750  11.870  30.440
 1510BOLB   C2D36238  13.020  12.330  30.360
 1510BOLB   C3D36239  13.330  12.640  30.350
 1510BOLB   C4D36240  13.710  12.770  30.480
 1511BOLB   NC136241  26.240  13.460  41.340
 1511BOLB   PO136242  26.655  13.190  41.240
 1511BOLB   GL136243  27.065  13.110  41.550
 1511BOLB   GL236244  27.305  12.830  41.520
 1511BOLB   C1A36245  27.465  13.240  41.760
 1511BOLB   C2A36246  27.665  13.270  42.140
 1511BOLB   C3A36247  28.095  13.080  42.310
 1511BOLB   C4A36248  28.185  12.660  42.180
 1511BOLB   C1B36249  27.075  12.870  42.020
 1511BOLB   C2B36250  27.035  12.660  42.470
 1511BOLB   C3B36251  27.365  12.580  42.820
 1511BOLB   C4B36252  27.845  12.320  42.830
 1511BOLB   NC236253  29.205  10.990  43.120
 1511BOLB   PO236254  29.125  10.910  43.470
 1511BOLB   GL336255  28.735  11.090  43.460
 1511BOLB   GL436256  28.665  11.040  43.150
 1511BOLB   C1C36257  28.605  11.520  43.200
 1511BOLB   C2C36258  28.315  11.590  42.820
 1511BOLB   C3C36259  28.065  11.860  42.560
 1511BOLB   C4C36260  28.035  12.250  42.300
 1511BOLB   C1D36261  28.365  11.070  42.800
 1511BOLB   C2D36262  27.965  11.310  42.870
 1511BOLB   C3D36263  27.855  11.730  43.000
 1511BOLB   C4D36264  27.515  11.990  43.110
 1512BOLB   NC136265  14.860  22.070  36.030
 1512BOLB   PO136266  14.960  22.140  35.630
 1512BOLB   GL136267  14.500  22.320  35.640
 1512BOLB   GL236268  14.330  22.180  35.350
 1512BOLB   C1A36269  14.080  22.350  35.910
 1512BOLB   C2A36270  13.720  22.580  36.020
 1512BOLB   C3A36271  13.350  22.790  36.100
 1512BOLB   C4A36272  13.040  23.140  36.050
 1512BOLB   C1B36273  13.850  22.320  35.330
 1512BOLB   C2B36274  13.560  22.600  35.570
 1512BOLB   C3B36275  13.450  23.070  35.590
 1512BOLB   C4B36276  13.550  23.480  35.760
 1512BOLB   NC236277  11.110  24.570  35.210
 1512BOLB   PO236278  10.890  24.190  35.460
 1512BOLB   GL336279  11.310  24.140  35.440
 1512BOLB   GL436280  11.470  24.180  35.120
 1512BOLB   C1C36281  11.660  23.980  35.640
 1512BOLB   C2C36282  12.110  23.860  35.740
 1512BOLB   C3C36283  12.540  23.670  35.700
 1512BOLB   C4C36284  12.950  23.470  35.990
 1512BOLB   C1D36285  11.520  23.750  35.160
 1512BOLB   C2D36286  11.820  23.540  35.380
 1512BOLB   C3D36287  12.300  23.560  35.210
 1512BOLB   C4D36288  12.750  23.590  35.190
 1513BOLB   NC136289  15.770  22.270  37.030
 1513BOLB   PO136290  15.330  22.340  37.040
 1513BOLB   GL136291  14.980  22.560  37.140
 1513BOLB   GL236292  15.100  22.810  37.240
 1513BOLB   C1A36293  14.620  22.770  37.120
 1513BOLB   C2A36294  14.150  22.860  37.120
 1513BOLB   C3A36295  13.700  22.760  37.160
 1513BOLB   C4A36296  13.150  22.690  37.140
 1513BOLB   C1B36297  14.840  23.060  37.540
 1513BOLB   C2B36298  14.670  23.480  37.680
 1513BOLB   C3B36299  14.570  23.880  37.760
 1513BOLB   C4B36300  14.360  23.960  38.130
 1513BOLB   NC236301  10.710  22.620  38.530
 1513BOLB   PO236302  11.050  22.580  38.440
 1513BOLB   GL336303  11.390  22.440  38.310
 1513BOLB   GL436304  11.420  22.500  37.880
 1513BOLB   C1C36305  11.880  22.670  38.240
 1513BOLB   C2C36306  12.170  22.620  37.800
 1513BOLB   C3C36307  12.410  22.490  37.410
 1513BOLB   C4C36308  12.780  22.630  37.330
 1513BOLB   C1D36309  11.780  22.870  37.840
 1513BOLB   C2D36310  12.200  23.020  38.050
 1513BOLB   C3D36311  12.420  22.750  38.270
 1513BOLB   C4D36312  12.730  22.490  38.480
 1514BOLB   NC136313  17.930  12.060  26.500
 1514BOLB   PO136314  18.340  12.010  26.360
 1514BOLB   GL136315  18.130  11.690  26.290
 1514BOLB   GL236316  17.950  11.580  26.530
 1514BOLB   C1A36317  17.980  11.410  25.930
 1514BOLB   C2A36318  17.520  11.160  25.700
 1514BOLB   C3A36319  17.100  11.210  25.560
 1514BOLB   C4A36320  16.820  10.900  25.180
 1514BOLB   C1B36321  17.560  11.400  26.270
 1514BOLB   C2B36322  17.160  11.300  26.050
 1514BOLB   C3B36323  16.730  11.190  26.120
 1514BOLB   C4B36324  16.280  11.180  25.890
 1514BOLB   NC236325  15.480  10.900  23.340
 1514BOLB   PO236326  15.670  10.480  23.350
 1514BOLB   GL336327  15.880  10.640  23.610
 1514BOLB   GL436328  15.880  10.530  23.970
 1514BOLB   C1C36329  16.210  10.850  23.630
 1514BOLB   C2C36330  16.590  10.830  23.940
 1514BOLB   C3C36331  16.900  10.810  24.250
 1514BOLB   C4C36332  16.960  10.780  24.800
 1514BOLB   C1D36333  16.050  10.420  24.420
 1514BOLB   C2D36334  16.340  10.080  24.550
 1514BOLB   C3D36335  16.700  10.210  24.800
 1514BOLB   C4D36336  16.810  10.400  25.170
 1515BOLB   NC136337  30.695  20.780  38.030
 1515BOLB   PO136338  30.875  20.330  38.230
 1515BOLB   GL136339  30.545  20.230  37.940
 1515BOLB   GL236340  30.295  20.440  37.890
 1515BOLB   C1A36341  30.285  19.930  37.900
 1515BOLB   C2A36342  30.145  19.540  37.880
 1515BOLB   C3A36343  30.015  19.190  37.610
 1515BOLB   C4A36344  29.895  18.670  37.650
 1515BOLB   C1B36345  29.915  20.580  37.640
 1515BOLB   C2B36346  29.425  20.650  37.440
 1515BOLB   C3B36347  29.195  20.490  37.020
 1515BOLB   C4B36348  29.095  20.780  36.720
 1515BOLB   NC236349  31.875  18.790  38.650
 1515BOLB   PO236350  31.585  19.160  38.600
 1515BOLB   GL336351  31.295  18.870  38.490
 1515BOLB   GL436352  31.035  19.020  38.610
 1515BOLB   C1C36353  30.975  18.750  38.180
 1515BOLB   C2C36354  30.755  18.340  37.950
 1515BOLB   C3C36355  30.485  18.360  37.710
 1515BOLB   C4C36356  30.055  18.410  37.770
 1515BOLB   C1D36357  30.605  18.790  38.640
 1515BOLB   C2D36358  30.145  18.560  38.600
 1515BOLB   C3D36359  29.815  18.350  38.870
 1515BOLB   C4D36360  29.365  18.400  39.130
 1516BOLB   NC136361  20.430  11.590  24.670
 1516BOLB   PO136362  20.440  11.450  24.200
 1516BOLB   GL136363  20.270  11.130  23.850
 1516BOLB   GL236364  20.410  11.050  23.550
 1516BOLB   C1A36365  19.920  10.800  23.800
 1516BOLB   C2A36366  19.470  10.550  23.690
 1516BOLB   C3A36367  19.130  10.350  23.460
 1516BOLB   C4A36368  18.930  10.060  23.140
 1516BOLB   C1B36369  19.970  11.140  23.380
 1516BOLB   C2B36370  19.620  10.990  23.170
 1516BOLB   C3B36371  19.390  10.710  23.020
 1516BOLB   C4B36372  19.270  10.400  22.780
 1516BOLB   NC236373  18.800   8.920  21.730
 1516BOLB   PO236374  18.330   9.050  21.520
 1516BOLB   GL336375  18.340   9.370  21.770
 1516BOLB   GL436376  18.710   9.480  21.620
 1516BOLB   C1C36377  18.390   9.850  21.950
 1516BOLB   C2C36378  18.280  10.320  22.020
 1516BOLB   C3C36379  18.440  10.570  22.440
 1516BOLB   C4C36380  18.700  10.300  22.700
 1516BOLB   C1D36381  18.930   9.770  21.650
 1516BOLB   C2D36382  19.080  10.140  21.620
 1516BOLB   C3D36383  19.090  10.450  21.860
 1516BOLB   C4D36384  19.050  10.500  22.270
 1517BOLB   NC136385  26.565   8.630  30.700
 1517BOLB   PO136386  26.585   8.260  30.380
 1517BOLB   GL136387  26.865   7.820  30.540
 1517BOLB   GL236388  27.055   7.910  30.390
 1517BOLB   C1A36389  26.915   7.330  30.470
 1517BOLB   C2A36390  26.975   6.860  30.460
 1517BOLB   C3A36391  27.065   6.430  30.360
 1517BOLB   C4A36392  27.355   6.000  30.490
 1517BOLB   C1B36393  27.355   7.570  30.370
 1517BOLB   C2B36394  27.695   7.260  30.480
 1517BOLB   C3B36395  27.735   6.930  30.730
 1517BOLB   C4B36396  27.675   6.450  30.570
 1517BOLB   NC236397  28.825   3.820  30.750
 1517BOLB   PO236398  28.725   4.340  30.710
 1517BOLB   GL336399  28.315   4.580  30.940
 1517BOLB   GL436400  28.065   4.390  31.140
 1517BOLB   C1C36401  28.005   4.810  30.930
 1517BOLB   C2C36402  27.765   5.120  31.040
 1517BOLB   C3C36403  27.595   5.610  31.030
 1517BOLB   C4C36404  27.585   5.980  30.720
 1517BOLB   C1D36405  27.825   4.670  31.400
 1517BOLB   C2D36406  27.525   5.080  31.500
 1517BOLB   C3D36407  27.585   5.460  31.550
 1517BOLB   C4D36408  27.635   5.850  31.720
 1518BOLB   NC136409  26.290  19.070  39.620
 1518BOLB   PO136410  26.120  19.540  39.610
 1518BOLB   GL136411  26.535  19.610  39.800
 1518BOLB   GL236412  26.705  19.350  39.800
 1518BOLB   C1A36413  26.825  19.870  39.800
 1518BOLB   C2A36414  27.245  20.060  39.970
 1518BOLB   C3A36415  27.545  19.920  40.220
 1518BOLB   C4A36416  27.955  20.030  40.390
 1518BOLB   C1B36417  27.015  19.340  40.190
 1518BOLB   C2B36418  27.475  19.400  40.410
 1518BOLB   C3B36419  27.875  19.400  40.370
 1518BOLB   C4B36420  28.275  19.510  40.330
 1518BOLB   NC236421  30.485  20.710  40.340
 1518BOLB   PO236422  30.425  20.310  40.370
 1518BOLB   GL336423  30.065  20.430  40.190
 1518BOLB   GL436424  30.055  20.390  39.850
 1518BOLB   C1C36425  29.675  20.160  40.290
 1518BOLB   C2C36426  29.225  20.030  40.100
 1518BOLB   C3C36427  28.765  20.140  40.100
 1518BOLB   C4C36428  28.365  19.970  40.250
 1518BOLB   C1D36429  29.735  20.180  39.560
 1518BOLB   C2D36430  29.245  20.120  39.530
 1518BOLB   C3D36431  28.815  20.190  39.590
 1518BOLB   C4D36432  28.295  20.110  39.300
 1519BOLB   NC136433  25.100  12.940  22.640
 1519BOLB   PO136434  25.330  13.200  22.410
 1519BOLB   GL136435  25.310  12.910  22.120
 1519BOLB   GL236436  25.460  13.130  21.850
 1519BOLB   C1A36437  25.460  12.600  21.770
 1519BOLB   C2A36438  25.370  12.350  21.360
 1519BOLB   C3A36439  25.250  12.260  20.900
 1519BOLB   C4A36440  25.390  12.100  20.580
 1519BOLB   C1B36441  25.880  13.070  21.730
 1519BOLB   C2B36442  26.300  13.070  21.680
 1519BOLB   C3B36443  26.445  12.910  21.330
 1519BOLB   C4B36444  26.765  12.810  21.070
 1519BOLB   NC236445  25.510  12.070  18.300
 1519BOLB   PO236446  25.260  11.760  18.270
 1519BOLB   GL336447  25.100  11.990  18.720
 1519BOLB   GL436448  24.800  11.900  18.960
 1519BOLB   C1C36449  25.400  12.000  19.030
 1519BOLB   C2C36450  25.410  12.080  19.450
 1519BOLB   C3C36451  25.510  12.130  19.840
 1519BOLB   C4C36452  25.570  12.270  20.230
 1519BOLB   C1D36453  24.850  12.070  19.360
 1519BOLB   C2D36454  25.070  12.380  19.600
 1519BOLB   C3D36455  25.320  12.640  19.870
 1519BOLB   C4D36456  25.440  12.770  20.230
 1520BOLB   NC136457  16.720  24.440  32.340
 1520BOLB   PO136458  16.520  24.430  32.090
 1520BOLB   GL136459  16.350  24.710  31.810
 1520BOLB   GL236460  16.250  24.960  32.140
 1520BOLB   C1A36461  15.990  25.010  31.660
 1520BOLB   C2A36462  15.630  25.370  31.750
 1520BOLB   C3A36463  15.570  25.820  31.810
 1520BOLB   C4A36464  15.560  26.290  31.940
 1520BOLB   C1B36465  15.860  25.230  32.170
 1520BOLB   C2B36466  15.950  25.680  32.140
 1520BOLB   C3B36467  16.070  26.020  31.910
 1520BOLB   C4B36468  16.010  26.190  31.530
 1520BOLB   NC236469  14.530   1.890  31.840
 1520BOLB   PO236470  14.920   1.720  32.110
 1520BOLB   GL336471  15.270   1.570  32.100
 1520BOLB   GL436472  15.150   1.270  32.080
 1520BOLB   C1C36473  15.590   1.500  32.460
 1520BOLB   C2C36474  15.900   1.160  32.420
 1520BOLB   C3C36475  15.830   0.690  32.250
 1520BOLB   C4C36476  15.580   0.310  32.040
 1520BOLB   C1D36477  15.410   1.010  32.340
 1520BOLB   C2D36478  15.550   0.690  32.680
 1520BOLB   C3D36479  15.710   0.540  33.140
 1520BOLB   C4D36480  15.600   0.270  33.530
 1521BOLB   NC136481  14.740  22.390  35.180
 1521BOLB   PO136482  14.860  22.660  34.870
 1521BOLB   GL136483  14.530  22.880  35.010
 1521BOLB   GL236484  14.600  22.900  35.340
 1521BOLB   C1A36485  14.210  23.050  35.190
 1521BOLB   C2A36486  13.990  23.470  35.380
 1521BOLB   C3A36487  13.780  23.900  35.580
 1521BOLB   C4A36488  13.390  24.120  35.400
 1521BOLB   C1B36489  14.650  22.940  35.760
 1521BOLB   C2B36490  14.420  23.050  36.210
 1521BOLB   C3B36491  14.050  23.310  36.500
 1521BOLB   C4B36492  14.080  23.310  36.930
 1521BOLB   NC236493  10.830  24.910  35.830
 1521BOLB   PO236494  11.170  25.190  35.680
 1521BOLB   GL336495  11.570  24.920  35.760
 1521BOLB   GL436496  11.530  24.720  35.400
 1521BOLB   C1C36497  12.050  24.880  35.860
 1521BOLB   C2C36498  12.370  24.720  35.720
 1521BOLB   C3C36499  12.780  24.540  35.730
 1521BOLB   C4C36500  13.120  24.320  35.540
 1521BOLB   C1D36501  11.880  24.430  35.180
 1521BOLB   C2D36502  11.970  24.040  35.160
 1521BOLB   C3D36503  11.930  23.730  34.830
 1521BOLB   C4D36504  11.930  23.620  34.350
 1522BOLB   NC136505  18.840  21.080  22.820
 1522BOLB   PO136506  18.710  21.300  22.470
 1522BOLB   GL136507  18.580  21.620  22.110
 1522BOLB   GL236508  18.350  21.840  22.240
 1522BOLB   C1A36509  18.580  21.860  21.650
 1522BOLB   C2A36510  18.440  22.020  21.330
 1522BOLB   C3A36511  18.270  22.360  21.150
 1522BOLB   C4A36512  18.260  22.650  20.800
 1522BOLB   C1B36513  18.060  21.970  21.860
 1522BOLB   C2B36514  17.880  22.310  21.570
 1522BOLB   C3B36515  17.820  22.590  21.270
 1522BOLB   C4B36516  17.760  22.620  20.870
 1522BOLB   NC236517  19.170  24.700  20.320
 1522BOLB   PO236518  19.000  24.550  19.980
 1522BOLB   GL336519  18.750  24.240  20.090
 1522BOLB   GL436520  18.780  24.380  20.450
 1522BOLB   C1C36521  18.840  23.810  20.360
 1522BOLB   C2C36522  18.610  23.600  20.680
 1522BOLB   C3C36523  18.380  23.210  20.740
 1522BOLB   C4C36524  18.100  22.910  20.610
 1522BOLB   C1D36525  18.480  24.460  20.820
 1522BOLB   C2D36526  18.600  24.450  21.250
 1522BOLB   C3D36527  18.620  24.280  21.600
 1522BOLB   C4D36528  18.630  24.110  21.890
 1523BOLB   NC136529  27.935  24.360  37.360
 1523BOLB   PO136530  27.645  24.490  37.660
 1523BOLB   GL136531  27.275  24.080  37.770
 1523BOLB   GL236532  27.205  23.800  37.520
 1523BOLB   C1A36533  27.125  23.660  37.980
 1523BOLB   C2A36534  27.065  23.180  38.160
 1523BOLB   C3A36535  27.075  22.800  38.170
 1523BOLB   C4A36536  26.845  22.470  38.350
 1523BOLB   C1B36537  26.875  23.490  37.530
 1523BOLB   C2B36538  26.525  23.300  37.440
 1523BOLB   C3B36539  26.130  23.030  37.230
 1523BOLB   C4B36540  25.850  22.740  37.070
 1523BOLB   NC236541  24.910  21.020  38.270
 1523BOLB   PO236542  25.140  20.720  38.540
 1523BOLB   GL336543  25.500  20.910  38.620
 1523BOLB   GL436544  25.460  21.240  38.870
 1523BOLB   C1C36545  25.780  21.300  38.510
 1523BOLB   C2C36546  25.980  21.520  38.250
 1523BOLB   C3C36547  26.230  21.880  38.130
 1523BOLB   C4C36548  26.475  22.260  38.260
 1523BOLB   C1D36549  25.780  21.560  38.970
 1523BOLB   C2D36550  26.150  21.770  38.900
 1523BOLB   C3D36551  26.505  21.770  39.150
 1523BOLB   C4D36552  26.905  21.560  39.240
 1524BOLB   NC136553  26.290  19.330  40.150
 1524BOLB   PO136554  26.525  18.910  40.080
 1524BOLB   GL136555  26.725  19.070  40.480
 1524BOLB   GL236556  26.420  19.080  40.630
 1524BOLB   C1A36557  27.135  19.100  40.680
 1524BOLB   C2A36558  27.545  19.210  41.010
 1524BOLB   C3A36559  27.635  19.280  41.440
 1524BOLB   C4A36560  28.005  19.220  41.590
 1524BOLB   C1B36561  26.765  19.150  41.020
 1524BOLB   C2B36562  27.105  19.270  41.300
 1524BOLB   C3B36563  27.205  19.100  41.640
 1524BOLB   C4B36564  27.565  18.960  41.920
 1524BOLB   NC236565  28.895  19.820  43.740
 1524BOLB   PO236566  29.065  19.460  43.470
 1524BOLB   GL336567  28.795  19.640  43.120
 1524BOLB   GL436568  28.635  19.850  43.180
 1524BOLB   C1C36569  28.645  19.710  42.700
 1524BOLB   C2C36570  28.425  19.550  42.390
 1524BOLB   C3C36571  28.365  19.090  42.210
 1524BOLB   C4C36572  28.035  18.980  42.000
 1524BOLB   C1D36573  28.215  19.720  43.240
 1524BOLB   C2D36574  27.855  19.610  42.970
 1524BOLB   C3D36575  27.455  19.710  43.030
 1524BOLB   C4D36576  27.185  19.940  43.190
 1525BOLB   NC136577  26.280   7.550  33.800
 1525BOLB   PO136578  26.625   7.830  34.030
 1525BOLB   GL136579  26.775   7.380  34.040
 1525BOLB   GL236580  26.525   7.150  33.850
 1525BOLB   C1A36581  26.975   7.080  34.210
 1525BOLB   C2A36582  27.335   6.910  34.270
 1525BOLB   C3A36583  27.665   6.590  34.190
 1525BOLB   C4A36584  27.895   6.430  33.830
 1525BOLB   C1B36585  26.535   6.840  34.190
 1525BOLB   C2B36586  26.895   6.580  34.190
 1525BOLB   C3B36587  27.265   6.400  34.020
 1525BOLB   C4B36588  27.585   6.090  34.050
 1525BOLB   NC236589  28.555   4.290  33.480
 1525BOLB   PO236590  28.305   4.160  33.820
 1525BOLB   GL336591  28.105   4.430  33.920
 1525BOLB   GL436592  28.175   4.460  34.300
 1525BOLB   C1C36593  27.865   4.820  33.840
 1525BOLB   C2C36594  27.865   5.320  33.950
 1525BOLB   C3C36595  27.915   5.690  34.050
 1525BOLB   C4C36596  27.985   6.060  33.760
 1525BOLB   C1D36597  27.925   4.990  34.310
 1525BOLB   C2D36598  27.815   5.390  34.490
 1525BOLB   C3D36599  27.815   5.930  34.520
 1525BOLB   C4D36600  27.735   6.380  34.590
 1526BOLB   NC136601  19.910  10.620  29.360
 1526BOLB   PO136602  19.620  10.260  29.470
 1526BOLB   GL136603  19.390   9.950  29.310
 1526BOLB   GL236604  19.450   9.690  29.460
 1526BOLB   C1A36605  19.160   9.620  29.040
 1526BOLB   C2A36606  18.850   9.430  28.780
 1526BOLB   C3A36607  18.560   9.210  28.640
 1526BOLB   C4A36608  18.250   9.010  28.460
 1526BOLB   C1B36609  18.990   9.580  29.570
 1526BOLB   C2B36610  18.760   9.300  29.500
 1526BOLB   C3B36611  18.410   8.930  29.510
 1526BOLB   C4B36612  18.290   8.570  29.370
 1526BOLB   NC236613  17.050   6.740  28.630
 1526BOLB   PO236614  16.910   7.150  28.330
 1526BOLB   GL336615  16.930   7.550  28.430
 1526BOLB   GL436616  16.750   7.700  28.700
 1526BOLB   C1C36617  17.130   7.940  28.330
 1526BOLB   C2C36618  17.290   8.340  28.530
 1526BOLB   C3C36619  17.540   8.660  28.680
 1526BOLB   C4C36620  17.830   8.860  28.640
 1526BOLB   C1D36621  16.830   8.120  28.680
 1526BOLB   C2D36622  16.620   8.430  28.910
 1526BOLB   C3D36623  16.750   8.820  29.170
 1526BOLB   C4D36624  17.060   9.250  29.220
 1527BOLB   NC136625  24.700  20.790  40.710
 1527BOLB   PO136626  24.420  20.850  41.090
 1527BOLB   GL136627  24.790  21.130  41.180
 1527BOLB   GL236628  24.680  21.340  41.350
 1527BOLB   C1A36629  25.230  21.180  41.200
 1527BOLB   C2A36630  25.680  21.180  41.240
 1527BOLB   C3A36631  26.070  21.240  41.210
 1527BOLB   C4A36632  26.475  20.950  41.230
 1527BOLB   C1B36633  24.620  21.390  41.850
 1527BOLB   C2B36634  24.550  21.510  42.200
 1527BOLB   C3B36635  24.490  21.980  42.280
 1527BOLB   C4B36636  24.670  22.270  42.570
 1527BOLB   NC236637  28.095  22.280  42.650
 1527BOLB   PO236638  27.715  22.310  42.670
 1527BOLB   GL336639  27.535  22.130  42.310
 1527BOLB   GL436640  27.345  21.980  42.620
 1527BOLB   C1C36641  27.455  21.830  42.050
 1527BOLB   C2C36642  27.265  21.470  41.820
 1527BOLB   C3C36643  27.095  21.130  41.580
 1527BOLB   C4C36644  26.655  20.890  41.460
 1527BOLB   C1D36645  26.935  21.840  42.360
 1527BOLB   C2D36646  26.695  21.570  42.040
 1527BOLB   C3D36647  26.645  21.360  41.760
 1527BOLB   C4D36648  26.270  21.300  41.730
 1528BOLB   NC136649  16.600  12.220  35.120
 1528BOLB   PO136650  16.260  12.400  35.250
 1528BOLB   GL136651  15.870  12.310  35.460
 1528BOLB   GL236652  16.020  12.010  35.510
 1528BOLB   C1A36653  15.560  12.070  35.440
 1528BOLB   C2A36654  15.130  12.020  35.390
 1528BOLB   C3A36655  14.890  12.030  35.700
 1528BOLB   C4A36656  14.840  11.940  36.070
 1528BOLB   C1B36657  15.820  11.720  35.720
 1528BOLB   C2B36658  15.730  11.630  36.160
 1528BOLB   C3B36659  15.530  11.310  36.330
 1528BOLB   C4B36660  15.250  10.990  36.120
 1528BOLB   NC236661  13.570   9.940  37.440
 1528BOLB   PO236662  13.400  10.340  37.200
 1528BOLB   GL336663  13.740  10.600  37.120
 1528BOLB   GL436664  13.960  10.390  36.970
 1528BOLB   C1C36665  14.190  10.820  37.090
 1528BOLB   C2C36666  14.490  11.040  36.790
 1528BOLB   C3C36667  14.610  11.370  36.630
 1528BOLB   C4C36668  14.780  11.720  36.420
 1528BOLB   C1D36669  14.290  10.480  36.690
 1528BOLB   C2D36670  14.520  10.720  36.390
 1528BOLB   C3D36671  14.480  11.060  36.140
 1528BOLB   C4D36672  14.670  11.470  36.020
 1529BOLB   NC136673  18.550  16.660  41.970
 1529BOLB   PO136674  18.120  16.740  42.040
 1529BOLB   GL136675  17.960  17.010  42.310
 1529BOLB   GL236676  17.720  17.240  42.250
 1529BOLB   C1A36677  17.710  16.980  42.660
 1529BOLB   C2A36678  17.420  16.780  43.060
 1529BOLB   C3A36679  17.000  16.790  43.060
 1529BOLB   C4A36680  16.670  16.470  42.960
 1529BOLB   C1B36681  17.490  17.410  42.580
 1529BOLB   C2B36682  17.110  17.230  42.800
 1529BOLB   C3B36683  16.830  17.270  43.170
 1529BOLB   C4B36684  16.710  17.390  43.680
 1529BOLB   NC236685  14.840  15.080  43.620
 1529BOLB   PO236686  14.860  15.460  43.940
 1529BOLB   GL336687  15.130  15.750  43.780
 1529BOLB   GL436688  15.390  15.560  43.910
 1529BOLB   C1C36689  15.520  15.940  43.610
 1529BOLB   C2C36690  15.620  16.000  43.170
 1529BOLB   C3C36691  15.900  16.280  42.900
 1529BOLB   C4C36692  16.290  16.300  42.830
 1529BOLB   C1D36693  15.530  15.440  43.460
 1529BOLB   C2D36694  15.450  15.160  43.180
 1529BOLB   C3D36695  15.140  15.180  42.840
 1529BOLB   C4D36696  14.990  14.900  42.610
 1530BOLB   NC136697  21.220  17.370  43.400
 1530BOLB   PO136698  20.780  17.270  43.410
 1530BOLB   GL136699  20.600  17.420  43.910
 1530BOLB   GL236700  20.800  17.590  44.120
 1530BOLB   C1A36701  20.360  17.280  44.190
 1530BOLB   C2A36702  20.290  17.300  44.650
 1530BOLB   C3A36703  19.920  17.290  44.930
 1530BOLB   C4A36704  19.740  17.090  45.260
 1530BOLB   C1B36705  20.710  17.500  44.490
 1530BOLB   C2B36706  20.700  17.500  44.940
 1530BOLB   C3B36707  20.790  17.620  45.410
 1530BOLB   C4B36708  20.500  17.610  45.690
 1530BOLB   NC236709  19.000  16.000  47.270
 1530BOLB   PO236710  19.110  15.560  47.270
 1530BOLB   GL336711  19.310  15.780  46.760
 1530BOLB   GL436712  19.320  15.580  46.410
 1530BOLB   C1C36713  19.520  16.070  46.500
 1530BOLB   C2C36714  19.360  16.390  46.210
 1530BOLB   C3C36715  19.440  16.720  45.940
 1530BOLB   C4C36716  19.500  16.900  45.580
 1530BOLB   C1D36717  19.450  15.840  45.980
 1530BOLB   C2D36718  19.590  16.130  45.800
 1530BOLB   C3D36719  19.840  16.450  45.820
 1530BOLB   C4D36720  19.900  16.880  45.860
 1531BOLB   NC136721  16.900  21.880  39.390
 1531BOLB   PO136722  17.380  22.090  39.560
 1531BOLB   GL136723  17.030  22.310  39.840
 1531BOLB   GL236724  16.680  22.210  39.740
 1531BOLB   C1A36725  17.000  22.700  40.090
 1531BOLB   C2A36726  17.100  22.970  40.360
 1531BOLB   C3A36727  16.990  23.160  40.750
 1531BOLB   C4A36728  16.920  23.600  40.860
 1531BOLB   C1B36729  16.300  22.500  39.750
 1531BOLB   C2B36730  15.870  22.430  39.880
 1531BOLB   C3B36731  15.620  22.320  40.190
 1531BOLB   C4B36732  15.720  22.410  40.600
 1531BOLB   NC236733  15.640  24.420  41.990
 1531BOLB   PO236734  15.950  24.680  42.250
 1531BOLB   GL336735  16.340  24.480  42.250
 1531BOLB   GL436736  16.620  24.530  42.440
 1531BOLB   C1C36737  16.720  24.590  41.990
 1531BOLB   C2C36738  16.720  24.560  41.590
 1531BOLB   C3C36739  16.730  24.190  41.400
 1531BOLB   C4C36740  16.770  23.920  41.150
 1531BOLB   C1D36741  16.990  24.300  42.260
 1531BOLB   C2D36742  17.120  24.150  41.890
 1531BOLB   C3D36743  17.210  23.940  41.570
 1531BOLB   C4D36744  17.310  23.780  41.180
 1532BOLB   NC136745  21.330  11.150  46.180
 1532BOLB   PO136746  21.680  11.180  45.850
 1532BOLB   GL136747  21.510  11.430  45.600
 1532BOLB   GL236748  21.250  11.450  45.420
 1532BOLB   C1A36749  21.680  11.500  45.130
 1532BOLB   C2A36750  21.730  11.900  44.960
 1532BOLB   C3A36751  21.630  12.260  45.090
 1532BOLB   C4A36752  21.360  12.660  45.290
 1532BOLB   C1B36753  21.270  11.740  45.070
 1532BOLB   C2B36754  21.280  12.040  44.650
 1532BOLB   C3B36755  21.030  12.430  44.470
 1532BOLB   C4B36756  20.760  12.630  44.220
 1532BOLB   NC236757  19.600  13.150  46.810
 1532BOLB   PO236758  19.610  13.140  46.310
 1532BOLB   GL336759  19.940  13.450  46.040
 1532BOLB   GL436760  20.030  13.870  46.080
 1532BOLB   C1C36761  20.360  13.390  45.860
 1532BOLB   C2C36762  20.710  13.530  45.650
 1532BOLB   C3C36763  20.770  13.380  45.170
 1532BOLB   C4C36764  21.100  13.030  45.090
 1532BOLB   C1D36765  20.210  13.840  45.640
 1532BOLB   C2D36766  20.530  13.900  45.260
 1532BOLB   C3D36767  20.730  14.170  44.990
 1532BOLB   C4D36768  20.800  14.460  44.550
 1533BOLB   NC136769  27.005   8.180  31.370
 1533BOLB   PO136770  26.815   8.250  30.910
 1533BOLB   GL136771  27.075   7.920  30.950
 1533BOLB   GL236772  27.235   7.750  31.230
 1533BOLB   C1A36773  27.235   7.510  30.830
 1533BOLB   C2A36774  27.245   7.150  30.830
 1533BOLB   C3A36775  27.205   6.680  30.890
 1533BOLB   C4A36776  27.445   6.270  31.040
 1533BOLB   C1B36777  27.525   7.440  31.240
 1533BOLB   C2B36778  27.565   7.040  31.240
 1533BOLB   C3B36779  27.705   6.680  31.240
 1533BOLB   C4B36780  27.925   6.470  31.010
 1533BOLB   NC236781  28.425   3.700  31.550
 1533BOLB   PO236782  28.255   4.140  31.520
 1533BOLB   GL336783  28.185   4.530  31.720
 1533BOLB   GL436784  28.005   4.650  32.050
 1533BOLB   C1C36785  28.265   4.940  31.760
 1533BOLB   C2C36786  28.045   5.230  31.540
 1533BOLB   C3C36787  27.995   5.680  31.290
 1533BOLB   C4C36788  27.795   6.040  31.230
 1533BOLB   C1D36789  27.785   4.770  32.450
 1533BOLB   C2D36790  27.335   4.980  32.430
 1533BOLB   C3D36791  27.475   5.310  32.290
 1533BOLB   C4D36792  27.565   5.770  32.230
 1534BOLB   NC136793  24.200  16.280  42.630
 1534BOLB   PO136794  24.040  16.520  42.960
 1534BOLB   GL136795  24.170  16.630  43.340
 1534BOLB   GL236796  24.210  16.900  43.550
 1534BOLB   C1A36797  24.290  16.430  43.670
 1534BOLB   C2A36798  24.330  16.280  44.030
 1534BOLB   C3A36799  24.450  16.240  44.510
 1534BOLB   C4A36800  24.660  16.100  44.960
 1534BOLB   C1B36801  24.440  16.970  44.010
 1534BOLB   C2B36802  24.710  17.060  44.340
 1534BOLB   C3B36803  24.770  17.010  44.760
 1534BOLB   C4B36804  24.900  17.300  45.050
 1534BOLB   NC236805  24.150  15.340  47.400
 1534BOLB   PO236806  24.320  15.050  47.050
 1534BOLB   GL336807  24.310  15.210  46.680
 1534BOLB   GL436808  24.580  15.270  46.690
 1534BOLB   C1C36809  24.210  15.290  46.240
 1534BOLB   C2C36810  24.280  15.450  45.760
 1534BOLB   C3C36811  24.240  15.680  45.440
 1534BOLB   C4C36812  24.430  16.070  45.320
 1534BOLB   C1D36813  24.550  15.630  46.460
 1534BOLB   C2D36814  24.470  15.710  46.110
 1534BOLB   C3D36815  24.360  15.980  45.780
 1534BOLB   C4D36816  23.980  16.190  45.460
 1535BOLB   NC136817  16.860  24.050  28.870
 1535BOLB   PO136818  17.300  24.090  28.700
 1535BOLB   GL136819  17.000  24.500  28.590
 1535BOLB   GL236820  17.010  24.780  28.450
 1535BOLB   C1A36821  16.670  24.840  28.750
 1535BOLB   C2A36822  16.280  25.150  28.790
 1535BOLB   C3A36823  15.920  25.270  28.690
 1535BOLB   C4A36824  15.780  25.570  28.360
 1535BOLB   C1B36825  16.810  25.180  28.280
 1535BOLB   C2B36826  16.610  25.310  27.960
 1535BOLB   C3B36827  16.620  25.660  27.780
 1535BOLB   C4B36828  16.590  25.950  27.540
 1535BOLB   NC236829  14.770   1.190  28.540
 1535BOLB   PO236830  14.480   1.120  28.140
 1535BOLB   GL336831  14.630   0.690  28.310
 1535BOLB   GL436832  14.960   0.720  28.640
 1535BOLB   C1C36833  14.820   0.380  27.990
 1535BOLB   C2C36834  14.970   0.120  28.280
 1535BOLB   C3C36835  15.280  26.250  28.170
 1535BOLB   C4C36836  15.420  25.780  28.230
 1535BOLB   C1D36837  14.960   0.300  28.840
 1535BOLB   C2D36838  15.190  26.400  28.730
 1535BOLB   C3D36839  15.480  25.960  28.760
 1535BOLB   C4D36840  15.830  25.810  28.860
 1536BOLB   NC136841  22.250  20.020  42.590
 1536BOLB   PO136842  22.090  19.780  42.870
 1536BOLB   GL136843  22.220  19.910  43.210
 1536BOLB   GL236844  22.070  20.190  43.470
 1536BOLB   C1A36845  22.580  20.090  43.480
 1536BOLB   C2A36846  22.680  20.190  43.870
 1536BOLB   C3A36847  22.430  20.180  44.270
 1536BOLB   C4A36848  22.430  19.910  44.790
 1536BOLB   C1B36849  22.000  20.410  43.890
 1536BOLB   C2B36850  22.300  20.660  44.100
 1536BOLB   C3B36851  22.570  20.940  44.400
 1536BOLB   C4B36852  22.910  21.300  44.430
 1536BOLB   NC236853  23.320  19.790  47.010
 1536BOLB   PO236854  23.390  20.200  46.930
 1536BOLB   GL336855  23.250  20.120  46.480
 1536BOLB   GL436856  23.460  20.310  46.150
 1536BOLB   C1C36857  23.260  19.830  46.180
 1536BOLB   C2C36858  23.300  19.680  45.720
 1536BOLB   C3C36859  23.030  19.770  45.370
 1536BOLB   C4C36860  22.730  19.740  45.110
 1536BOLB   C1D36861  23.500  20.140  45.700
 1536BOLB   C2D36862  23.430  20.020  45.200
 1536BOLB   C3D36863  23.160  19.820  44.770
 1536BOLB   C4D36864  22.820  20.000  44.510
 1537BOLB   NC136865  16.220  13.720  27.630
 1537BOLB   PO136866  16.110  13.920  27.120
 1537BOLB   GL136867  15.720  13.850  26.790
 1537BOLB   GL236868  15.450  14.030  26.590
 1537BOLB   C1A36869  15.340  13.820  26.990
 1537BOLB   C2A36870  15.000  13.430  27.070
 1537BOLB   C3A36871  14.760  13.100  26.880
 1537BOLB   C4A36872  14.480  12.830  26.780
 1537BOLB   C1B36873  15.430  13.970  26.100
 1537BOLB   C2B36874  15.020  13.910  26.270
 1537BOLB   C3B36875  14.950  13.880  26.720
 1537BOLB   C4B36876  14.840  13.980  27.210
 1537BOLB   NC236877  12.660  11.500  26.550
 1537BOLB   PO236878  12.770  11.850  26.810
 1537BOLB   GL336879  13.120  11.900  27.010
 1537BOLB   GL436880  13.170  12.200  27.190
 1537BOLB   C1C36881  13.540  12.000  26.930
 1537BOLB   C2C36882  13.800  12.170  26.600
 1537BOLB   C3C36883  14.250  12.180  26.520
 1537BOLB   C4C36884  14.450  12.500  26.600
 1537BOLB   C1D36885  13.100  12.560  27.240
 1537BOLB   C2D36886  13.270  12.880  26.960
 1537BOLB   C3D36887  13.530  13.080  26.740
 1537BOLB   C4D36888  13.970  13.120  26.740
 1538BOLB   NC136889  16.350  14.880  26.860
 1538BOLB   PO136890  15.880  14.720  26.840
 1538BOLB   GL136891  15.490  14.520  26.670
 1538BOLB   GL236892  15.380  14.420  26.310
 1538BOLB   C1A36893  14.980  14.330  26.820
 1538BOLB   C2A36894  14.590  14.350  26.820
 1538BOLB   C3A36895  14.320  13.980  26.800
 1538BOLB   C4A36896  14.140  13.650  26.750
 1538BOLB   C1B36897  14.970  14.430  26.270
 1538BOLB   C2B36898  14.520  14.300  26.320
 1538BOLB   C3B36899  14.100  14.040  26.330
 1538BOLB   C4B36900  13.700  14.040  26.510
 1538BOLB   NC236901  12.000  13.080  27.060
 1538BOLB   PO236902  12.040  13.130  27.460
 1538BOLB   GL336903  12.330  13.410  27.150
 1538BOLB   GL436904  12.290  13.500  26.810
 1538BOLB   C1C36905  12.720  13.520  27.210
 1538BOLB   C2C36906  13.150  13.600  27.230
 1538BOLB   C3C36907  13.390  13.420  27.060
 1538BOLB   C4C36908  13.750  13.560  26.670
 1538BOLB   C1D36909  12.560  13.510  26.370
 1538BOLB   C2D36910  13.060  13.430  26.250
 1538BOLB   C3D36911  13.480  13.280  26.120
 1538BOLB   C4D36912  13.850  13.030  26.240
 1539BOLB   NC136913  15.040  15.180  36.800
 1539BOLB   PO136914  15.050  15.480  37.100
 1539BOLB   GL136915  14.780  15.360  37.300
 1539BOLB   GL236916  14.820  15.120  37.520
 1539BOLB   C1A36917  14.360  15.250  37.200
 1539BOLB   C2A36918  13.930  15.150  37.290
 1539BOLB   C3A36919  13.520  15.050  37.280
 1539BOLB   C4A36920  13.110  15.080  36.960
 1539BOLB   C1B36921  14.490  14.740  37.400
 1539BOLB   C2B36922  14.050  14.670  37.500
 1539BOLB   C3B36923  13.680  14.590  37.610
 1539BOLB   C4B36924  13.420  14.640  38.000
 1539BOLB   NC236925  11.200  14.010  37.120
 1539BOLB   PO236926  11.120  14.380  37.260
 1539BOLB   GL336927  11.460  14.550  37.120
 1539BOLB   GL436928  11.670  14.470  37.390
 1539BOLB   C1C36929  11.620  14.470  36.730
 1539BOLB   C2C36930  12.000  14.560  36.480
 1539BOLB   C3C36931  12.300  14.740  36.570
 1539BOLB   C4C36932  12.850  14.740  36.640
 1539BOLB   C1D36933  11.670  14.980  37.440
 1539BOLB   C2D36934  11.950  15.260  37.130
 1539BOLB   C3D36935  12.260  15.220  36.900
 1539BOLB   C4D36936  12.620  15.150  36.540
 1540BOLB   NC136937  24.790  14.900  22.390
 1540BOLB   PO136938  24.590  14.790  21.910
 1540BOLB   GL136939  24.740  14.720  21.500
 1540BOLB   GL236940  25.080  14.590  21.340
 1540BOLB   C1A36941  24.720  14.800  21.070
 1540BOLB   C2A36942  24.820  14.770  20.670
 1540BOLB   C3A36943  25.300  14.600  20.500
 1540BOLB   C4A36944  25.580  14.420  20.130
 1540BOLB   C1B36945  25.460  14.400  21.150
 1540BOLB   C2B36946  25.780  14.260  20.880
 1540BOLB   C3B36947  25.770  14.110  20.440
 1540BOLB   C4B36948  25.610  13.870  20.010
 1540BOLB   NC236949  25.010  15.390  17.830
 1540BOLB   PO236950  24.900  15.070  17.960
 1540BOLB   GL336951  24.960  15.020  18.360
 1540BOLB   GL436952  25.050  15.360  18.450
 1540BOLB   C1C36953  25.270  14.590  18.700
 1540BOLB   C2C36954  25.600  14.610  19.090
 1540BOLB   C3C36955  25.700  14.600  19.480
 1540BOLB   C4C36956  25.820  14.570  19.790
 1540BOLB   C1D36957  24.750  15.240  18.780
 1540BOLB   C2D36958  24.630  14.920  19.080
 1540BOLB   C3D36959  24.440  14.830  19.380
 1540BOLB   C4D36960  24.300  14.500  19.680
 1541BOLB   NC136961  17.100  16.260  22.990
 1541BOLB   PO136962  16.840  16.620  23.070
 1541BOLB   GL136963  16.500  16.530  22.980
 1541BOLB   GL236964  16.080  16.610  22.950
 1541BOLB   C1A36965  16.320  16.350  22.520
 1541BOLB   C2A36966  16.120  16.230  22.130
 1541BOLB   C3A36967  16.130  16.030  21.690
 1541BOLB   C4A36968  16.220  15.990  21.230
 1541BOLB   C1B36969  15.900  16.690  22.690
 1541BOLB   C2B36970  15.710  16.460  22.470
 1541BOLB   C3B36971  15.510  16.280  22.210
 1541BOLB   C4B36972  15.190  16.500  22.040
 1541BOLB   NC236973  14.730  16.610  18.830
 1541BOLB   PO236974  14.980  16.720  19.130
 1541BOLB   GL336975  15.170  16.620  19.570
 1541BOLB   GL436976  15.260  16.910  19.590
 1541BOLB   C1C36977  15.170  16.580  19.980
 1541BOLB   C2C36978  15.310  16.360  20.310
 1541BOLB   C3C36979  15.700  16.260  20.630
 1541BOLB   C4C36980  16.050  16.080  20.860
 1541BOLB   C1D36981  15.620  16.650  19.750
 1541BOLB   C2D36982  15.770  16.600  20.190
 1541BOLB   C3D36983  16.130  16.650  20.490
 1541BOLB   C4D36984  16.180  16.730  20.900
 1542BOLB   NC136985  20.620  17.160  21.440
 1542BOLB   PO136986  20.190  17.340  21.520
 1542BOLB   GL136987  20.070  17.280  21.060
 1542BOLB   GL236988  19.990  17.600  20.940
 1542BOLB   C1A36989  19.810  17.110  20.700
 1542BOLB   C2A36990  19.800  17.060  20.290
 1542BOLB   C3A36991  19.820  16.810  20.050
 1542BOLB   C4A36992  19.910  16.540  19.660
 1542BOLB   C1B36993  19.960  17.600  20.400
 1542BOLB   C2B36994  19.930  17.350  19.950
 1542BOLB   C3B36995  19.860  17.120  19.670
 1542BOLB   C4B36996  19.950  17.120  19.190
 1542BOLB   NC236997  19.750  16.770  17.110
 1542BOLB   PO236998  19.900  16.390  17.270
 1542BOLB   GL336999  20.090  16.330  17.650
 1542BOLB   GL437000  19.800  16.200  17.900
 1542BOLB   C1C37001  20.280  16.340  18.020
 1542BOLB   C2C37002  20.350  16.360  18.450
 1542BOLB   C3C37003  20.120  16.250  18.750
 1542BOLB   C4C37004  19.960  16.540  19.140
 1542BOLB   C1D37005  19.800  15.870  18.200
 1542BOLB   C2D37006  19.700  15.880  18.630
 1542BOLB   C3D37007  19.540  15.970  19.080
 1542BOLB   C4D37008  19.650  16.200  19.400
 1543BOLB   NC137009  22.110  17.360  43.550
 1543BOLB   PO137010  22.450  17.590  43.650
 1543BOLB   GL137011  22.430  17.360  44.040
 1543BOLB   GL237012  22.090  17.240  44.030
 1543BOLB   C1A37013  22.700  17.160  44.340
 1543BOLB   C2A37014  23.100  17.260  44.690
 1543BOLB   C3A37015  23.230  16.890  44.850
 1543BOLB   C4A37016  23.260  16.610  45.100
 1543BOLB   C1B37017  22.200  17.010  44.390
 1543BOLB   C2B37018  22.120  16.810  44.730
 1543BOLB   C3B37019  22.310  16.700  45.070
 1543BOLB   C4B37020  22.770  16.640  45.130
 1543BOLB   NC237021  23.470  17.780  47.730
 1543BOLB   PO237022  23.640  17.580  47.350
 1543BOLB   GL337023  23.430  17.580  47.000
 1543BOLB   GL437024  23.460  17.750  46.680
 1543BOLB   C1C37025  23.390  17.300  46.660
 1543BOLB   C2C37026  23.480  17.050  46.250
 1543BOLB   C3C37027  23.630  16.840  45.860
 1543BOLB   C4C37028  23.520  16.660  45.480
 1543BOLB   C1D37029  23.410  17.590  46.290
 1543BOLB   C2D37030  23.310  17.370  45.960
 1543BOLB   C3D37031  23.240  17.310  45.520
 1543BOLB   C4D37032  23.010  17.260  45.140
 1544BOLB   NC137033  14.580  15.690  34.380
 1544BOLB   PO137034  14.270  15.910  34.160
 1544BOLB   GL137035  13.820  15.910  34.000
 1544BOLB   GL237036  13.820  15.790  33.690
 1544BOLB   C1A37037  13.500  15.840  34.230
 1544BOLB   C2A37038  13.030  15.740  34.370
 1544BOLB   C3A37039  12.760  15.710  34.080
 1544BOLB   C4A37040  12.360  15.850  34.000
 1544BOLB   C1B37041  13.750  15.330  33.980
 1544BOLB   C2B37042  13.870  14.990  34.210
 1544BOLB   C3B37043  14.200  14.720  34.450
 1544BOLB   C4B37044  14.170  14.510  34.740
 1544BOLB   NC237045   9.880  16.360  34.090
 1544BOLB   PO237046  10.030  16.530  33.710
 1544BOLB   GL337047  10.390  16.390  33.930
 1544BOLB   GL437048  10.500  16.170  34.270
 1544BOLB   C1C37049  10.880  16.290  33.970
 1544BOLB   C2C37050  11.210  16.100  33.990
 1544BOLB   C3C37051  11.650  16.010  34.150
 1544BOLB   C4C37052  11.990  16.050  34.210
 1544BOLB   C1D37053  10.660  15.740  34.080
 1544BOLB   C2D37054  10.940  15.810  33.700
 1544BOLB   C3D37055  11.090  16.170  33.520
 1544BOLB   C4D37056  10.900  16.640  33.530
 1545BOLB   NC137057  28.215  10.470  28.300
 1545BOLB   PO137058  28.665  10.650  28.250
 1545BOLB   GL137059  28.845  10.360  27.990
 1545BOLB   GL237060  29.135  10.490  28.140
 1545BOLB   C1A37061  28.915   9.940  28.000
 1545BOLB   C2A37062  29.295   9.810  27.830
 1545BOLB   C3A37063  29.655   9.600  27.680
 1545BOLB   C4A37064  29.955   9.230  27.550
 1545BOLB   C1B37065  29.355  10.280  27.780
 1545BOLB   C2B37066  29.795  10.150  27.620
 1545BOLB   C3B37067  30.175  10.090  27.340
 1545BOLB   C4B37068  30.375  10.430  27.060
 1545BOLB   NC237069  32.215   8.070  26.400
 1545BOLB   PO237070  31.865   8.300  26.120
 1545BOLB   GL337071  31.505   8.370  26.480
 1545BOLB   GL437072  31.235   8.190  26.430
 1545BOLB   C1C37073  31.265   8.750  26.800
 1545BOLB   C2C37074  30.935   8.980  26.860
 1545BOLB   C3C37075  30.575   9.140  27.020
 1545BOLB   C4C37076  30.135   9.100  27.180
 1545BOLB   C1D37077  30.915   8.560  26.400
 1545BOLB   C2D37078  30.535   8.740  26.690
 1545BOLB   C3D37079  30.435   8.660  27.190
 1545BOLB   C4D37080  30.215   8.770  27.650
 1546BOLB   NC137081  19.480  18.590  21.320
 1546BOLB   PO137082  19.860  18.690  21.330
 1546BOLB   GL137083  19.820  19.020  21.090
 1546BOLB   GL237084  19.560  19.260  21.080
 1546BOLB   C1A37085  19.780  19.110  20.660
 1546BOLB   C2A37086  19.560  19.270  20.290
 1546BOLB   C3A37087  19.290  19.310  19.960
 1546BOLB   C4A37088  18.990  19.520  19.520
 1546BOLB   C1B37089  19.300  19.070  20.810
 1546BOLB   C2B37090  19.140  19.100  20.430
 1546BOLB   C3B37091  18.830  18.940  20.130
 1546BOLB   C4B37092  18.600  18.650  20.050
 1546BOLB   NC237093  19.150  19.320  16.730
 1546BOLB   PO237094  19.140  19.010  17.060
 1546BOLB   GL337095  19.210  19.330  17.480
 1546BOLB   GL437096  18.880  19.500  17.630
 1546BOLB   C1C37097  19.400  19.470  17.890
 1546BOLB   C2C37098  19.390  19.340  18.290
 1546BOLB   C3C37099  19.080  19.350  18.670
 1546BOLB   C4C37100  19.080  19.450  19.110
 1546BOLB   C1D37101  18.960  19.340  18.010
 1546BOLB   C2D37102  18.940  18.960  18.250
 1546BOLB   C3D37103  18.960  18.580  18.270
 1546BOLB   C4D37104  19.000  18.130  18.200
 1547BOLB   NC137105  15.740  24.340  32.670
 1547BOLB   PO137106  16.140  24.590  32.460
 1547BOLB   GL137107  15.860  24.810  32.520
 1547BOLB   GL237108  16.100  25.070  32.750
 1547BOLB   C1A37109  15.480  25.030  32.320
 1547BOLB   C2A37110  15.410  25.530  32.200
 1547BOLB   C3A37111  15.290  26.040  32.380
 1547BOLB   C4A37112  15.470   0.040  32.450
 1547BOLB   C1B37113  16.260  25.390  32.420
 1547BOLB   C2B37114  16.220  25.800  32.550
 1547BOLB   C3B37115  16.170  26.210  32.750
 1547BOLB   C4B37116  16.170  26.410  33.200
 1547BOLB   NC237117  13.330   0.930  31.930
 1547BOLB   PO237118  13.220   0.630  32.270
 1547BOLB   GL337119  13.600   0.410  32.130
 1547BOLB   GL437120  13.740   0.640  31.880
 1547BOLB   C1C37121  13.980   0.270  32.180
 1547BOLB   C2C37122  14.410   0.350  32.210
 1547BOLB   C3C37123  14.850   0.500  32.310
 1547BOLB   C4C37124  15.190   0.420  32.400
 1547BOLB   C1D37125  14.010   0.380  31.680
 1547BOLB   C2D37126  14.350   0.100  31.760
 1547BOLB   C3D37127  14.630  26.300  32.040
 1547BOLB   C4D37128  14.900  26.360  32.450
 1548BOLB   NC137129  27.285  15.590  25.880
 1548BOLB   PO137130  27.565  15.390  25.710
 1548BOLB   GL137131  27.865  15.280  25.460
 1548BOLB   GL237132  27.995  15.090  25.210
 1548BOLB   C1A37133  28.255  15.480  25.170
 1548BOLB   C2A37134  28.445  15.510  24.830
 1548BOLB   C3A37135  28.855  15.690  24.510
 1548BOLB   C4A37136  29.275  15.620  24.330
 1548BOLB   C1B37137  28.265  15.010  24.930
 1548BOLB   C2B37138  28.585  15.070  24.650
 1548BOLB   C3B37139  28.885  15.200  24.360
 1548BOLB   C4B37140  29.375  15.170  24.060
 1548BOLB   NC237141  31.495  16.360  23.250
 1548BOLB   PO237142  31.245  16.070  23.410
 1548BOLB   GL337143  30.905  15.960  23.560
 1548BOLB   GL437144  30.615  16.240  23.580
 1548BOLB   C1C37145  30.545  15.600  23.530
 1548BOLB   C2C37146  30.165  15.280  23.650
 1548BOLB   C3C37147  29.845  15.370  23.850
 1548BOLB   C4C37148  29.625  15.650  24.040
 1548BOLB   C1D37149  30.385  16.040  23.920
 1548BOLB   C2D37150  29.985  15.980  24.140
 1548BOLB   C3D37151  29.585  15.970  24.460
 1548BOLB   C4D37152  29.285  15.880  24.750
 1549BOLB   NC137153  21.050  22.760  38.920
 1549BOLB   PO137154  21.150  22.800  39.350
 1549BOLB   GL137155  21.280  23.150  39.430
 1549BOLB   GL237156  21.180  23.190  39.750
 1549BOLB   C1A37157  21.270  23.630  39.260
 1549BOLB   C2A37158  21.350  23.910  38.990
 1549BOLB   C3A37159  21.680  24.120  38.940
 1549BOLB   C4A37160  21.870  24.580  39.020
 1549BOLB   C1B37161  21.350  23.650  39.730
 1549BOLB   C2B37162  21.290  24.030  39.750
 1549BOLB   C3B37163  20.940  24.330  39.860
 1549BOLB   C4B37164  20.620  24.550  39.760
 1549BOLB   NC237165  22.490   0.330  39.920
 1549BOLB   PO237166  22.340   0.560  39.450
 1549BOLB   GL337167  22.170   0.110  39.560
 1549BOLB   GL437168  21.860  26.290  39.390
 1549BOLB   C1C37169  22.320  26.140  39.450
 1549BOLB   C2C37170  22.360  25.730  39.560
 1549BOLB   C3C37171  22.300  25.320  39.320
 1549BOLB   C4C37172  22.160  24.900  39.140
 1549BOLB   C1D37173  22.020  25.820  39.180
 1549BOLB   C2D37174  21.840  25.370  38.960
 1549BOLB   C3D37175  21.690  25.020  38.720
 1549BOLB   C4D37176  21.290  24.870  38.700
 1550BOLB   NC137177  17.210  14.280  24.620
 1550BOLB   PO137178  17.340  13.830  24.710
 1550BOLB   GL137179  16.900  13.750  24.610
 1550BOLB   GL237180  17.000  13.610  24.330
 1550BOLB   C1A37181  16.470  13.900  24.490
 1550BOLB   C2A37182  16.210  13.740  24.210
 1550BOLB   C3A37183  15.870  13.420  24.090
 1550BOLB   C4A37184  15.590  13.360  24.300
 1550BOLB   C1B37185  16.650  13.540  24.090
 1550BOLB   C2B37186  16.490  13.280  23.780
 1550BOLB   C3B37187  16.620  12.870  23.760
 1550BOLB   C4B37188  16.710  12.610  24.100
 1550BOLB   NC237189  12.740  11.950  23.750
 1550BOLB   PO237190  13.200  12.250  23.800
 1550BOLB   GL337191  13.690  12.340  24.090
 1550BOLB   GL437192  13.980  12.150  23.950
 1550BOLB   C1C37193  14.060  12.750  24.210
 1550BOLB   C2C37194  14.420  12.980  24.050
 1550BOLB   C3C37195  14.770  13.150  24.300
 1550BOLB   C4C37196  15.220  13.200  24.500
 1550BOLB   C1D37197  14.300  12.340  24.090
 1550BOLB   C2D37198  14.680  12.340  24.510
 1550BOLB   C3D37199  14.990  12.320  24.790
 1550BOLB   C4D37200  15.270  12.660  24.970
 1551BOLB   NC137201  26.685   9.140  27.780
 1551BOLB   PO137202  26.955   9.200  27.390
 1551BOLB   GL137203  27.315   8.820  27.260
 1551BOLB   GL237204  27.305   8.580  27.020
 1551BOLB   C1A37205  27.405   8.430  27.590
 1551BOLB   C2A37206  27.745   8.200  27.770
 1551BOLB   C3A37207  28.075   8.090  27.500
 1551BOLB   C4A37208  28.355   7.780  27.330
 1551BOLB   C1B37209  27.365   8.190  26.840
 1551BOLB   C2B37210  27.545   7.800  26.690
 1551BOLB   C3B37211  27.905   7.810  26.440
 1551BOLB   C4B37212  28.345   7.960  26.420
 1551BOLB   NC237213  29.275   6.510  25.710
 1551BOLB   PO237214  29.455   6.390  26.160
 1551BOLB   GL337215  29.095   6.670  26.150
 1551BOLB   GL437216  28.835   6.670  25.970
 1551BOLB   C1C37217  29.065   7.080  26.430
 1551BOLB   C2C37218  28.875   7.340  26.690
 1551BOLB   C3C37219  28.825   7.750  26.700
 1551BOLB   C4C37220  28.645   7.880  27.110
 1551BOLB   C1D37221  28.615   6.950  26.300
 1551BOLB   C2D37222  28.385   7.390  26.430
 1551BOLB   C3D37223  28.305   7.630  26.840
 1551BOLB   C4D37224  28.155   7.960  26.910
 1552BOLB   NC137225  29.455  10.840  35.190
 1552BOLB   PO137226  29.555  10.360  35.190
 1552BOLB   GL137227  29.675   9.990  35.270
 1552BOLB   GL237228  29.765   9.810  34.930
 1552BOLB   C1A37229  30.095   9.890  35.370
 1552BOLB   C2A37230  30.335   9.570  35.250
 1552BOLB   C3A37231  30.815   9.480  35.220
 1552BOLB   C4A37232  31.105   9.090  35.200
 1552BOLB   C1B37233  30.165   9.570  34.810
 1552BOLB   C2B37234  30.615   9.640  34.800
 1552BOLB   C3B37235  30.985   9.440  34.710
 1552BOLB   C4B37236  31.125   9.110  34.580
 1552BOLB   NC237237  33.335   8.920  35.580
 1552BOLB   PO237238  33.035   8.710  35.380
 1552BOLB   GL337239  32.735   8.890  35.110
 1552BOLB   GL437240  32.835   8.860  34.790
 1552BOLB   C1C37241  32.475   9.280  34.880
 1552BOLB   C2C37242  32.215   9.490  34.870
 1552BOLB   C3C37243  31.865   9.240  34.950
 1552BOLB   C4C37244  31.485   8.990  35.010
 1552BOLB   C1D37245  32.355   8.800  34.770
 1552BOLB   C2D37246  32.075   9.060  34.510
 1552BOLB   C3D37247  31.735   9.290  34.460
 1552BOLB   C4D37248  31.405   9.580  34.500
 1553BOLB   NC137249  24.550   9.660  24.620
 1553BOLB   PO137250  24.440   9.980  24.410
 1553BOLB   GL137251  24.510   9.680  24.130
 1553BOLB   GL237252  24.220   9.490  24.210
 1553BOLB   C1A37253  24.630   9.740  23.710
 1553BOLB   C2A37254  24.890   9.520  23.420
 1553BOLB   C3A37255  25.000   9.090  23.440
 1553BOLB   C4A37256  25.220   8.890  23.240
 1553BOLB   C1B37257  24.440   9.150  24.320
 1553BOLB   C2B37258  24.340   8.920  23.940
 1553BOLB   C3B37259  24.340   8.780  23.460
 1553BOLB   C4B37260  24.530   8.500  23.090
 1553BOLB   NC237261  26.420   7.610  22.390
 1553BOLB   PO237262  26.280   7.720  22.060
 1553BOLB   GL337263  26.180   8.130  22.100
 1553BOLB   GL437264  26.350   8.390  22.040
 1553BOLB   C1C37265  26.070   8.080  22.570
 1553BOLB   C2C37266  25.740   8.240  22.910
 1553BOLB   C3C37267  25.410   8.320  23.000
 1553BOLB   C4C37268  25.320   8.750  22.930
 1553BOLB   C1D37269  26.130   8.780  22.200
 1553BOLB   C2D37270  26.010   9.180  22.420
 1553BOLB   C3D37271  25.980   9.430  22.710
 1553BOLB   C4D37272  26.110   9.750  22.890
 1554BOLB   NC137273  15.420  13.830  33.890
 1554BOLB   PO137274  15.350  13.870  33.440
 1554BOLB   GL137275  15.090  13.540  33.560
 1554BOLB   GL237276  15.110  13.340  33.300
 1554BOLB   C1A37277  14.740  13.200  33.640
 1554BOLB   C2A37278  14.360  13.230  33.510
 1554BOLB   C3A37279  13.990  13.320  33.500
 1554BOLB   C4A37280  13.570  13.220  33.630
 1554BOLB   C1B37281  14.980  12.950  33.230
 1554BOLB   C2B37282  14.620  12.690  33.270
 1554BOLB   C3B37283  14.310  12.500  33.410
 1554BOLB   C4B37284  13.920  12.400  33.310
 1554BOLB   NC237285  12.140  11.370  34.050
 1554BOLB   PO237286  11.800  11.410  33.680
 1554BOLB   GL337287  12.060  11.820  33.720
 1554BOLB   GL437288  12.390  11.780  33.850
 1554BOLB   C1C37289  12.260  12.200  33.600
 1554BOLB   C2C37290  12.450  12.620  33.430
 1554BOLB   C3C37291  12.800  12.800  33.530
 1554BOLB   C4C37292  13.160  13.000  33.360
 1554BOLB   C1D37293  12.830  11.890  33.740
 1554BOLB   C2D37294  13.190  11.960  33.640
 1554BOLB   C3D37295  13.370  12.450  33.400
 1554BOLB   C4D37296  13.620  12.790  33.290
 1555BOLB   NC137297  27.185  15.650  39.990
 1555BOLB   PO137298  27.155  15.500  40.330
 1555BOLB   GL137299  27.595  15.570  40.530
 1555BOLB   GL237300  27.575  15.860  40.760
 1555BOLB   C1A37301  27.975  15.530  40.730
 1555BOLB   C2A37302  28.335  15.230  40.950
 1555BOLB   C3A37303  28.175  14.910  41.340
 1555BOLB   C4A37304  28.425  14.920  41.770
 1555BOLB   C1B37305  27.895  15.920  41.010
 1555BOLB   C2B37306  28.235  16.110  41.390
 1555BOLB   C3B37307  28.445  16.470  41.430
 1555BOLB   C4B37308  28.285  16.670  41.790
 1555BOLB   NC237309  29.845  15.120  43.610
 1555BOLB   PO237310  30.025  15.090  43.360
 1555BOLB   GL337311  29.745  14.960  43.110
 1555BOLB   GL437312  29.445  14.810  43.270
 1555BOLB   C1C37313  29.655  15.180  42.690
 1555BOLB   C2C37314  29.375  15.120  42.320
 1555BOLB   C3C37315  29.055  14.840  42.230
 1555BOLB   C4C37316  28.645  14.830  42.200
 1555BOLB   C1D37317  29.305  14.820  42.810
 1555BOLB   C2D37318  28.865  14.850  42.660
 1555BOLB   C3D37319  28.525  15.080  42.770
 1555BOLB   C4D37320  28.275  15.010  43.150
 1556BOLB   NC137321  15.420  19.740  24.310
 1556BOLB   PO137322  15.160  20.080  24.250
 1556BOLB   GL137323  14.800  19.910  23.900
 1556BOLB   GL237324  14.550  19.630  24.050
 1556BOLB   C1A37325  14.570  19.690  23.530
 1556BOLB   C2A37326  14.580  19.910  23.210
 1556BOLB   C3A37327  14.380  19.810  22.750
 1556BOLB   C4A37328  14.030  19.680  22.420
 1556BOLB   C1B37329  14.240  19.850  23.770
 1556BOLB   C2B37330  14.090  19.830  23.300
 1556BOLB   C3B37331  13.990  20.150  23.020
 1556BOLB   C4B37332  13.780  20.600  22.800
 1556BOLB   NC237333  12.130  20.370  21.370
 1556BOLB   PO237334  12.530  20.610  21.160
 1556BOLB   GL337335  12.920  20.470  21.230
 1556BOLB   GL437336  13.310  20.550  21.180
 1556BOLB   C1C37337  13.060  20.140  21.480
 1556BOLB   C2C37338  13.140  19.750  21.760
 1556BOLB   C3C37339  13.390  19.500  21.920
 1556BOLB   C4C37340  13.770  19.420  22.160
 1556BOLB   C1D37341  13.530  20.210  21.330
 1556BOLB   C2D37342  13.720  19.810  21.550
 1556BOLB   C3D37343  14.120  19.730  21.850
 1556BOLB   C4D37344  14.290  19.450  22.080
 1557BOLB   NC137345  23.960  11.340  40.100
 1557BOLB   PO137346  23.840  10.920  40.260
 1557BOLB   GL137347  24.030  10.780  40.690
 1557BOLB   GL237348  24.210  10.390  40.530
 1557BOLB   C1A37349  23.970  10.590  41.120
 1557BOLB   C2A37350  24.080  10.350  41.460
 1557BOLB   C3A37351  24.190  10.440  41.950
 1557BOLB   C4A37352  23.920  10.500  42.130
 1557BOLB   C1B37353  24.350  10.110  40.800
 1557BOLB   C2B37354  24.220   9.910  41.160
 1557BOLB   C3B37355  24.300   9.930  41.630
 1557BOLB   C4B37356  24.200   9.870  42.140
 1557BOLB   NC237357  23.240   8.510  43.860
 1557BOLB   PO237358  23.340   8.980  43.860
 1557BOLB   GL337359  23.420   9.110  43.470
 1557BOLB   GL437360  23.190   9.180  43.440
 1557BOLB   C1C37361  23.480   9.210  43.000
 1557BOLB   C2C37362  23.440   9.610  42.710
 1557BOLB   C3C37363  23.270   9.880  42.470
 1557BOLB   C4C37364  23.590  10.160  42.330
 1557BOLB   C1D37365  23.110   9.470  43.270
 1557BOLB   C2D37366  22.760   9.680  43.490
 1557BOLB   C3D37367  22.400   9.790  43.680
 1557BOLB   C4D37368  22.210  10.150  43.850
 1558BOLB   NC137369  27.415  10.960  26.480
 1558BOLB   PO137370  27.675  10.610  26.380
 1558BOLB   GL137371  27.975  10.430  26.290
 1558BOLB   GL237372  27.975  10.250  26.520
 1558BOLB   C1A37373  28.255  10.620  26.040
 1558BOLB   C2A37374  28.625  10.390  25.950
 1558BOLB   C3A37375  28.985  10.140  25.990
 1558BOLB   C4A37376  29.465   9.970  25.710
 1558BOLB   C1B37377  28.265  10.030  26.200
 1558BOLB   C2B37378  28.585   9.810  25.860
 1558BOLB   C3B37379  28.735   9.390  25.960
 1558BOLB   C4B37380  28.925   9.050  25.870
 1558BOLB   NC237381  30.735   9.320  24.110
 1558BOLB   PO237382  30.465   8.980  23.990
 1558BOLB   GL337383  30.205   8.950  24.350
 1558BOLB   GL437384  30.315   8.630  24.540
 1558BOLB   C1C37385  29.905   8.990  24.710
 1558BOLB   C2C37386  29.785   9.250  25.150
 1558BOLB   C3C37387  29.875   9.540  25.390
 1558BOLB   C4C37388  29.615   9.780  25.410
 1558BOLB   C1D37389  30.055   8.490  24.870
 1558BOLB   C2D37390  29.835   8.620  25.210
 1558BOLB   C3D37391  29.645   8.840  25.450
 1558BOLB   C4D37392  29.395   8.850  25.810
 1559BOLB   NC137393  21.720   9.860  38.460
 1559BOLB   PO137394  21.490   9.780  38.130
 1559BOLB   GL137395  21.280   9.420  38.220
 1559BOLB   GL237396  21.400   9.280  37.980
 1559BOLB   C1A37397  20.860   9.350  38.430
 1559BOLB   C2A37398  20.430   9.340  38.650
 1559BOLB   C3A37399  20.170   9.050  38.800
 1559BOLB   C4A37400  20.030   8.730  38.950
 1559BOLB   C1B37401  21.240   8.870  38.140
 1559BOLB   C2B37402  20.980   8.440  38.110
 1559BOLB   C3B37403  20.800   8.070  38.230
 1559BOLB   C4B37404  20.530   7.800  38.210
 1559BOLB   NC237405  18.860   6.420  40.250
 1559BOLB   PO237406  19.280   6.600  40.130
 1559BOLB   GL337407  19.390   6.970  39.920
 1559BOLB   GL437408  19.180   7.200  39.920
 1559BOLB   C1C37409  19.650   7.310  40.080
 1559BOLB   C2C37410  19.790   7.680  39.840
 1559BOLB   C3C37411  19.930   8.040  39.520
 1559BOLB   C4C37412  19.900   8.320  39.160
 1559BOLB   C1D37413  19.400   7.520  39.590
 1559BOLB   C2D37414  19.520   7.860  39.290
 1559BOLB   C3D37415  19.530   8.140  38.910
 1559BOLB   C4D37416  19.690   8.350  38.610
 1560BOLB   NC137417  15.870  16.890  23.640
 1560BOLB   PO137418  15.700  16.550  23.760
 1560BOLB   GL137419  15.630  16.550  23.370
 1560BOLB   GL237420  15.420  16.730  23.380
 1560BOLB   C1A37421  15.570  16.330  22.990
 1560BOLB   C2A37422  15.370  16.010  22.660
 1560BOLB   C3A37423  15.220  15.900  22.220
 1560BOLB   C4A37424  15.010  15.680  22.030
 1560BOLB   C1B37425  15.160  16.360  23.320
 1560BOLB   C2B37426  14.820  16.150  23.100
 1560BOLB   C3B37427  14.390  16.130  23.010
 1560BOLB   C4B37428  14.030  16.160  22.940
 1560BOLB   NC237429  14.560  14.820  20.090
 1560BOLB   PO237430  14.160  14.730  20.260
 1560BOLB   GL337431  14.430  14.800  20.590
 1560BOLB   GL437432  14.460  14.640  21.030
 1560BOLB   C1C37433  14.750  14.990  20.800
 1560BOLB   C2C37434  14.930  15.250  21.020
 1560BOLB   C3C37435  15.070  15.230  21.410
 1560BOLB   C4C37436  15.020  15.300  21.850
 1560BOLB   C1D37437  14.780  14.730  21.320
 1560BOLB   C2D37438  14.950  14.840  21.700
 1560BOLB   C3D37439  15.100  14.830  22.140
 1560BOLB   C4D37440  15.500  14.940  22.310
 1561BOLB   NC137441  15.380  17.260  26.440
 1561BOLB   PO137442  14.990  17.210  26.130
 1561BOLB   GL137443  14.730  16.880  26.110
 1561BOLB   GL237444  14.700  16.980  25.780
 1561BOLB   C1A37445  14.630  16.510  25.750
 1561BOLB   C2A37446  14.280  16.260  25.600
 1561BOLB   C3A37447  14.040  16.150  25.280
 1561BOLB   C4A37448  13.520  16.140  25.110
 1561BOLB   C1B37449  14.230  16.800  25.720
 1561BOLB   C2B37450  13.980  16.660  25.460
 1561BOLB   C3B37451  13.530  16.770  25.450
 1561BOLB   C4B37452  13.330  17.100  25.670
 1561BOLB   NC237453  11.680  15.130  23.840
 1561BOLB   PO237454  11.710  15.000  24.290
 1561BOLB   GL337455  12.070  15.080  24.330
 1561BOLB   GL437456  12.200  15.250  24.040
 1561BOLB   C1C37457  12.390  15.320  24.530
 1561BOLB   C2C37458  12.560  15.610  24.810
 1561BOLB   C3C37459  12.680  15.990  24.930
 1561BOLB   C4C37460  13.110  16.130  24.970
 1561BOLB   C1D37461  12.550  15.040  24.200
 1561BOLB   C2D37462  12.650  14.780  24.590
 1561BOLB   C3D37463  12.990  14.750  24.890
 1561BOLB   C4D37464  13.450  14.850  24.730
 1562BOLB   NC137465  15.390  18.140  39.130
 1562BOLB   PO137466  15.070  18.160  38.850
 1562BOLB   GL137467  14.730  18.350  38.960
 1562BOLB   GL237468  14.760  18.670  38.850
 1562BOLB   C1A37469  14.560  18.340  39.380
 1562BOLB   C2A37470  14.240  18.270  39.640
 1562BOLB   C3A37471  13.780  18.330  39.800
 1562BOLB   C4A37472  13.420  18.040  39.730
 1562BOLB   C1B37473  14.290  18.850  39.080
 1562BOLB   C2B37474  13.920  19.110  39.250
 1562BOLB   C3B37475  13.670  19.340  39.670
 1562BOLB   C4B37476  13.360  19.610  39.820
 1562BOLB   NC237477  10.490  18.520  40.490
 1562BOLB   PO237478  10.880  18.410  40.390
 1562BOLB   GL337479  11.330  18.240  40.360
 1562BOLB   GL437480  11.660  18.440  40.420
 1562BOLB   C1C37481  11.760  17.990  40.190
 1562BOLB   C2C37482  12.120  17.890  39.920
 1562BOLB   C3C37483  12.520  17.950  39.840
 1562BOLB   C4C37484  13.010  17.930  39.900
 1562BOLB   C1D37485  11.840  18.720  40.100
 1562BOLB   C2D37486  12.180  18.720  39.840
 1562BOLB   C3D37487  12.330  18.700  39.260
 1562BOLB   C4D37488  12.470  18.890  38.930
 1563BOLB   NC137489  28.235  16.620  36.650
 1563BOLB   PO137490  28.605  16.630  36.880
 1563BOLB   GL137491  28.965  16.870  36.920
 1563BOLB   GL237492  29.175  16.740  37.140
 1563BOLB   C1A37493  29.335  17.170  36.960
 1563BOLB   C2A37494  29.595  17.320  37.080
 1563BOLB   C3A37495  29.655  17.480  37.470
 1563BOLB   C4A37496  29.595  17.660  37.880
 1563BOLB   C1B37497  29.595  16.770  37.010
 1563BOLB   C2B37498  30.005  16.840  36.990
 1563BOLB   C3B37499  30.445  17.050  37.020
 1563BOLB   C4B37500  30.755  17.120  36.950
 1563BOLB   NC237501  31.615  18.180  39.240
 1563BOLB   PO237502  31.845  18.260  38.830
 1563BOLB   GL337503  31.465  18.480  38.810
 1563BOLB   GL437504  31.305  18.670  38.940
 1563BOLB   C1C37505  31.005  18.440  38.550
 1563BOLB   C2C37506  30.605  18.190  38.600
 1563BOLB   C3C37507  30.235  17.890  38.530
 1563BOLB   C4C37508  29.955  17.890  38.170
 1563BOLB   C1D37509  30.975  18.300  38.990
 1563BOLB   C2D37510  30.865  17.910  39.020
 1563BOLB   C3D37511  30.645  17.700  38.790
 1563BOLB   C4D37512  30.175  17.460  38.770
 1564BOLB   NC137513  20.500  20.400  42.820
 1564BOLB   PO137514  20.160  20.130  43.030
 1564BOLB   GL137515  20.100  20.330  43.400
 1564BOLB   GL237516  20.320  20.180  43.510
 1564BOLB   C1A37517  19.930  20.580  43.730
 1564BOLB   C2A37518  19.700  20.970  43.650
 1564BOLB   C3A37519  19.270  20.900  43.720
 1564BOLB   C4A37520  18.970  20.500  43.890
 1564BOLB   C1B37521  20.560  20.300  43.910
 1564BOLB   C2B37522  20.750  20.540  44.190
 1564BOLB   C3B37523  20.640  20.890  44.430
 1564BOLB   C4B37524  20.430  21.200  44.360
 1564BOLB   NC237525  17.660  20.370  46.440
 1564BOLB   PO237526  17.950  20.670  46.090
 1564BOLB   GL337527  18.180  20.900  45.720
 1564BOLB   GL437528  18.330  21.100  45.490
 1564BOLB   C1C37529  18.140  20.610  45.380
 1564BOLB   C2C37530  18.400  20.440  45.010
 1564BOLB   C3C37531  18.600  20.380  44.640
 1564BOLB   C4C37532  18.770  20.460  44.320
 1564BOLB   C1D37533  18.440  20.960  45.090
 1564BOLB   C2D37534  18.270  20.830  44.700
 1564BOLB   C3D37535  18.220  20.570  44.380
 1564BOLB   C4D37536  18.370  20.580  43.870
 1565BOLB   NC137537  26.090  12.650  40.990
 1565BOLB   PO137538  26.260  12.850  41.360
 1565BOLB   GL137539  26.525  12.600  41.660
 1565BOLB   GL237540  26.615  12.850  41.860
 1565BOLB   C1A37541  26.575  12.090  41.740
 1565BOLB   C2A37542  26.535  11.640  41.730
 1565BOLB   C3A37543  26.665  11.360  41.990
 1565BOLB   C4A37544  26.555  10.970  42.220
 1565BOLB   C1B37545  26.735  12.440  42.090
 1565BOLB   C2B37546  26.945  12.240  42.300
 1565BOLB   C3B37547  27.355  12.010  42.110
 1565BOLB   C4B37548  27.475  11.710  41.780
 1565BOLB   NC237549  27.125   8.580  43.580
 1565BOLB   PO237550  26.725   8.760  43.630
 1565BOLB   GL337551  26.745   9.150  43.430
 1565BOLB   GL437552  26.475   9.340  43.580
 1565BOLB   C1C37553  26.785   9.520  43.050
 1565BOLB   C2C37554  26.825   9.990  42.920
 1565BOLB   C3C37555  26.615  10.410  42.820
 1565BOLB   C4C37556  26.585  10.570  42.360
 1565BOLB   C1D37557  26.330   9.600  43.280
 1565BOLB   C2D37558  26.400   9.780  42.870
 1565BOLB   C3D37559  26.400  10.060  42.500
 1565BOLB   C4D37560  26.465  10.150  42.010
 1566BOLB   NC137561  24.570   0.440  33.340
 1566BOLB   PO137562  24.390   0.250  33.650
 1566BOLB   GL137563  24.170  26.360  34.010
 1566BOLB   GL237564  24.490  26.290  34.250
 1566BOLB   C1A37565  23.910  25.970  34.020
 1566BOLB   C2A37566  23.690  25.640  33.890
 1566BOLB   C3A37567  23.610  25.250  33.750
 1566BOLB   C4A37568  23.740  24.960  33.460
 1566BOLB   C1B37569  24.270  25.870  34.400
 1566BOLB   C2B37570  24.230  25.400  34.350
 1566BOLB   C3B37571  24.450  25.070  34.240
 1566BOLB   C4B37572  24.860  24.610  34.170
 1566BOLB   NC237573  26.160  25.510  32.780
 1566BOLB   PO237574  25.850  25.330  32.420
 1566BOLB   GL337575  25.600  25.020  32.760
 1566BOLB   GL437576  25.670  24.750  32.780
 1566BOLB   C1C37577  25.270  24.820  33.080
 1566BOLB   C2C37578  24.850  24.840  33.060
 1566BOLB   C3C37579  24.540  24.610  33.190
 1566BOLB   C4C37580  24.120  24.650  33.390
 1566BOLB   C1D37581  25.300  24.420  32.820
 1566BOLB   C2D37582  25.040  24.110  32.940
 1566BOLB   C3D37583  25.250  23.880  33.220
 1566BOLB   C4D37584  25.300  23.820  33.650
 1567BOLB   NC137585  20.550  11.730  39.750
 1567BOLB   PO137586  20.280  11.390  39.450
 1567BOLB   GL137587  19.960  11.170  39.720
 1567BOLB   GL237588  20.010  11.020  40.080
 1567BOLB   C1A37589  19.520  11.050  39.780
 1567BOLB   C2A37590  19.180  10.780  39.950
 1567BOLB   C3A37591  19.250  10.280  39.870
 1567BOLB   C4A37592  19.000   9.960  40.130
 1567BOLB   C1B37593  19.620  10.910  40.190
 1567BOLB   C2B37594  19.380  10.500  40.470
 1567BOLB   C3B37595  19.430  10.190  40.820
 1567BOLB   C4B37596  19.680  10.010  41.220
 1567BOLB   NC237597  17.440   8.570  41.090
 1567BOLB   PO237598  17.430   8.770  41.570
 1567BOLB   GL337599  17.700   8.970  41.260
 1567BOLB   GL437600  17.610   9.120  41.000
 1567BOLB   C1C37601  18.050   8.880  41.000
 1567BOLB   C2C37602  18.350   8.880  40.620
 1567BOLB   C3C37603  18.600   9.190  40.410
 1567BOLB   C4C37604  18.930   9.420  40.070
 1567BOLB   C1D37605  17.950   9.480  41.060
 1567BOLB   C2D37606  18.430   9.720  40.990
 1567BOLB   C3D37607  18.650   9.710  40.620
 1567BOLB   C4D37608  18.490   9.670  40.260
 1568BOLB   NC137609  20.560  10.610  37.810
 1568BOLB   PO137610  20.700  10.210  38.060
 1568BOLB   GL137611  20.460   9.980  38.290
 1568BOLB   GL237612  20.560   9.830  38.520
 1568BOLB   C1A37613  20.130   9.710  38.400
 1568BOLB   C2A37614  20.040   9.260  38.200
 1568BOLB   C3A37615  20.400   8.950  38.300
 1568BOLB   C4A37616  20.540   8.660  38.640
 1568BOLB   C1B37617  20.490   9.530  38.140
 1568BOLB   C2B37618  20.330   9.190  37.810
 1568BOLB   C3B37619  20.110   8.840  37.940
 1568BOLB   C4B37620  20.000   8.700  38.430
 1568BOLB   NC237621  20.580   6.470  40.520
 1568BOLB   PO237622  20.570   6.490  40.140
 1568BOLB   GL337623  20.780   6.870  40.100
 1568BOLB   GL437624  21.110   6.690  40.060
 1568BOLB   C1C37625  20.730   7.140  39.690
 1568BOLB   C2C37626  20.420   7.430  39.410
 1568BOLB   C3C37627  20.600   7.850  39.090
 1568BOLB   C4C37628  20.630   8.240  38.870
 1568BOLB   C1D37629  21.180   7.150  39.950
 1568BOLB   C2D37630  21.380   7.540  39.960
 1568BOLB   C3D37631  21.550   7.940  40.060
 1568BOLB   C4D37632  21.740   8.090  40.480
 1569BOLB   NC137633  17.530  11.460  19.340
 1569BOLB   PO137634  17.870  11.790  19.330
 1569BOLB   GL137635  18.130  12.040  19.670
 1569BOLB   GL237636  18.280  11.790  19.870
 1569BOLB   C1A37637  18.370  12.490  19.920
 1569BOLB   C2A37638  18.560  12.900  19.770
 1569BOLB   C3A37639  18.720  13.340  19.800
 1569BOLB   C4A37640  19.090  13.570  19.850
 1569BOLB   C1B37641  18.180  12.000  20.180
 1569BOLB   C2B37642  18.330  12.150  20.580
 1569BOLB   C3B37643  18.760  12.250  20.700
 1569BOLB   C4B37644  19.110  12.300  21.040
 1569BOLB   NC237645  17.780  13.800  18.370
 1569BOLB   PO237646  17.910  14.160  18.240
 1569BOLB   GL337647  18.190  14.350  18.520
 1569BOLB   GL437648  18.450  14.660  18.390
 1569BOLB   C1C37649  18.420  14.470  18.930
 1569BOLB   C2C37650  18.500  14.370  19.350
 1569BOLB   C3C37651  18.840  14.290  19.610
 1569BOLB   C4C37652  19.200  13.970  19.850
 1569BOLB   C1D37653  18.790  14.740  18.620
 1569BOLB   C2D37654  18.950  14.500  19.070
 1569BOLB   C3D37655  19.120  14.200  19.170
 1569BOLB   C4D37656  19.510  14.230  19.510
 1570BOLB   NC137657  20.710  14.810  21.510
 1570BOLB   PO137658  20.400  14.450  21.470
 1570BOLB   GL137659  20.310  14.340  21.150
 1570BOLB   GL237660  19.990  14.420  21.050
 1570BOLB   C1A37661  20.380  14.040  20.740
 1570BOLB   C2A37662  20.620  13.780  20.480
 1570BOLB   C3A37663  20.740  13.690  20.160
 1570BOLB   C4A37664  20.470  13.540  20.010
 1570BOLB   C1B37665  19.610  14.180  20.960
 1570BOLB   C2B37666  19.390  13.890  20.760
 1570BOLB   C3B37667  19.170  13.580  20.870
 1570BOLB   C4B37668  19.090  13.310  20.590
 1570BOLB   NC237669  19.850  13.520  17.710
 1570BOLB   PO237670  19.370  13.540  17.870
 1570BOLB   GL337671  19.340  13.430  18.300
 1570BOLB   GL437672  19.200  13.800  18.310
 1570BOLB   C1C37673  19.560  13.630  18.620
 1570BOLB   C2C37674  19.640  13.430  19.110
 1570BOLB   C3C37675  19.970  13.520  19.200
 1570BOLB   C4C37676  20.070  13.560  19.760
 1570BOLB   C1D37677  19.170  13.920  18.690
 1570BOLB   C2D37678  19.140  13.660  19.100
 1570BOLB   C3D37679  19.360  13.740  19.440
 1570BOLB   C4D37680  19.540  13.370  19.720
 1571BOLB   NC137681  17.770  13.170  39.170
 1571BOLB   PO137682  17.600  13.430  39.470
 1571BOLB   GL137683  17.440  13.170  39.680
 1571BOLB   GL237684  17.350  12.880  39.580
 1571BOLB   C1A37685  17.120  13.000  40.040
 1571BOLB   C2A37686  16.670  12.810  39.990
 1571BOLB   C3A37687  16.240  13.030  40.060
 1571BOLB   C4A37688  15.920  13.150  40.190
 1571BOLB   C1B37689  17.130  12.570  39.720
 1571BOLB   C2B37690  16.900  12.380  40.060
 1571BOLB   C3B37691  16.770  12.200  40.380
 1571BOLB   C4B37692  17.070  11.780  40.500
 1571BOLB   NC237693  13.670  12.180  41.220
 1571BOLB   PO237694  13.750  12.260  41.610
 1571BOLB   GL337695  14.070  12.500  41.270
 1571BOLB   GL437696  13.920  12.600  41.020
 1571BOLB   C1C37697  14.370  12.730  40.950
 1571BOLB   C2C37698  14.820  12.730  40.730
 1571BOLB   C3C37699  15.200  12.870  40.520
 1571BOLB   C4C37700  15.500  13.030  40.310
 1571BOLB   C1D37701  14.030  12.980  41.330
 1571BOLB   C2D37702  14.080  13.440  41.290
 1571BOLB   C3D37703  14.250  13.680  40.990
 1571BOLB   C4D37704  14.030  13.920  40.670
 1572BOLB   NC137705  21.880  20.250  42.950
 1572BOLB   PO137706  21.700  19.880  43.160
 1572BOLB   GL137707  21.480  19.850  43.560
 1572BOLB   GL237708  21.800  19.800  43.710
 1572BOLB   C1A37709  21.550  20.100  43.990
 1572BOLB   C2A37710  21.500  19.880  44.410
 1572BOLB   C3A37711  21.420  20.080  44.850
 1572BOLB   C4A37712  21.430  20.210  45.230
 1572BOLB   C1B37713  22.230  19.920  43.840
 1572BOLB   C2B37714  22.490  19.730  44.120
 1572BOLB   C3B37715  22.480  19.470  44.430
 1572BOLB   C4B37716  22.230  19.390  44.840
 1572BOLB   NC237717  23.330  20.290  47.430
 1572BOLB   PO237718  22.980  20.070  47.200
 1572BOLB   GL337719  22.670  20.270  46.880
 1572BOLB   GL437720  22.840  20.320  46.640
 1572BOLB   C1C37721  22.170  20.210  46.760
 1572BOLB   C2C37722  21.980  20.260  46.420
 1572BOLB   C3C37723  21.670  20.110  46.100
 1572BOLB   C4C37724  21.540  20.190  45.680
 1572BOLB   C1D37725  22.500  20.070  46.460
 1572BOLB   C2D37726  22.390  19.810  46.080
 1572BOLB   C3D37727  22.410  19.440  45.850
 1572BOLB   C4D37728  22.650  19.300  45.420
 1573BOLB   NC137729  28.885   9.140  31.070
 1573BOLB   PO137730  28.885   9.050  30.690
 1573BOLB   GL137731  29.165   8.710  30.680
 1573BOLB   GL237732  29.055   8.430  30.690
 1573BOLB   C1A37733  29.485   8.540  30.840
 1573BOLB   C2A37734  29.765   8.160  30.930
 1573BOLB   C3A37735  29.925   7.760  31.130
 1573BOLB   C4A37736  30.305   7.630  31.280
 1573BOLB   C1B37737  29.245   8.020  30.480
 1573BOLB   C2B37738  29.275   7.650  30.540
 1573BOLB   C3B37739  29.075   7.310  30.770
 1573BOLB   C4B37740  28.845   7.030  30.890
 1573BOLB   NC237741  31.735   6.000  31.200
 1573BOLB   PO237742  31.495   6.250  30.990
 1573BOLB   GL337743  31.375   6.630  31.050
 1573BOLB   GL437744  31.055   6.580  31.020
 1573BOLB   C1C37745  31.345   6.910  31.320
 1573BOLB   C2C37746  31.115   7.070  31.580
 1573BOLB   C3C37747  30.745   7.190  31.720
 1573BOLB   C4C37748  30.455   7.560  31.650
 1573BOLB   C1D37749  30.755   6.890  31.020
 1573BOLB   C2D37750  30.425   7.220  30.960
 1573BOLB   C3D37751  30.115   7.460  30.830
 1573BOLB   C4D37752  29.775   7.650  30.650
 1574BOLB   NC137753  20.430   2.260  32.640
 1574BOLB   PO137754  20.390   2.170  33.150
 1574BOLB   GL137755  20.320   1.730  32.970
 1574BOLB   GL237756  20.430   1.510  32.920
 1574BOLB   C1A37757  19.990   1.520  33.150
 1574BOLB   C2A37758  19.590   1.260  33.210
 1574BOLB   C3A37759  19.410   1.380  33.650
 1574BOLB   C4A37760  19.090   1.200  33.960
 1574BOLB   C1B37761  20.480   1.200  32.690
 1574BOLB   C2B37762  20.210   0.760  32.460
 1574BOLB   C3B37763  20.340   0.380  32.490
 1574BOLB   C4B37764  20.390  26.340  32.540
 1574BOLB   NC237765  18.090   2.490  35.010
 1574BOLB   PO237766  18.450   2.520  35.290
 1574BOLB   GL337767  18.370   2.120  35.260
 1574BOLB   GL437768  18.090   2.120  35.340
 1574BOLB   C1C37769  18.420   1.780  35.160
 1574BOLB   C2C37770  18.540   1.570  34.940
 1574BOLB   C3C37771  18.550   1.330  34.610
 1574BOLB   C4C37772  18.960   1.130  34.420
 1574BOLB   C1D37773  17.930   1.680  35.240
 1574BOLB   C2D37774  17.670   1.330  35.190
 1574BOLB   C3D37775  17.670   0.890  34.910
 1574BOLB   C4D37776  17.460   0.540  34.880
 1575BOLB   NC137777  18.030   1.110  25.250
 1575BOLB   PO137778  18.330   1.440  25.470
 1575BOLB   GL137779  18.610   1.030  25.560
 1575BOLB   GL237780  18.480   0.750  25.400
 1575BOLB   C1A37781  18.980   0.750  25.620
 1575BOLB   C2A37782  19.020   0.440  25.910
 1575BOLB   C3A37783  18.840   0.250  26.030
 1575BOLB   C4A37784  18.680   0.110  26.370
 1575BOLB   C1B37785  18.220   0.450  25.370
 1575BOLB   C2B37786  17.910   0.130  25.480
 1575BOLB   C3B37787  17.580  26.250  25.600
 1575BOLB   C4B37788  17.300  25.930  25.600
 1575BOLB   NC237789  18.300   1.600  26.120
 1575BOLB   PO237790  17.870   1.530  26.070
 1575BOLB   GL337791  17.740   1.210  26.360
 1575BOLB   GL437792  17.540   1.100  26.280
 1575BOLB   C1C37793  17.690   0.980  26.790
 1575BOLB   C2C37794  17.950   0.650  26.940
 1575BOLB   C3C37795  18.060   0.140  26.940
 1575BOLB   C4C37796  18.450  26.430  26.750
 1575BOLB   C1D37797  17.550   0.640  26.420
 1575BOLB   C2D37798  17.690   0.380  26.670
 1575BOLB   C3D37799  17.580   0.260  27.140
 1575BOLB   C4D37800  17.470   0.080  27.590
 1576BOLB   NC137801  19.570   9.840  32.790
 1576BOLB   PO137802  19.930   9.740  32.920
 1576BOLB   GL137803  19.670   9.290  32.870
 1576BOLB   GL237804  19.470   9.300  33.200
 1576BOLB   C1A37805  19.610   8.940  32.540
 1576BOLB   C2A37806  19.690   8.500  32.450
 1576BOLB   C3A37807  19.500   8.120  32.420
 1576BOLB   C4A37808  19.270   7.630  32.360
 1576BOLB   C1B37809  19.300   8.870  33.070
 1576BOLB   C2B37810  19.020   8.580  33.180
 1576BOLB   C3B37811  18.500   8.360  33.300
 1576BOLB   C4B37812  18.090   8.400  33.220
 1576BOLB   NC237813  17.490   5.240  32.460
 1576BOLB   PO237814  17.430   5.620  32.400
 1576BOLB   GL337815  17.650   6.000  32.240
 1576BOLB   GL437816  17.640   6.400  32.160
 1576BOLB   C1C37817  18.120   6.350  32.280
 1576BOLB   C2C37818  18.270   6.750  32.180
 1576BOLB   C3C37819  18.420   7.140  32.300
 1576BOLB   C4C37820  18.810   7.360  32.220
 1576BOLB   C1D37821  18.050   6.440  31.760
 1576BOLB   C2D37822  18.460   6.470  31.750
 1576BOLB   C3D37823  18.890   6.320  31.750
 1576BOLB   C4D37824  19.220   6.470  31.430
 1577BOLB   NC137825  22.200  10.050  39.130
 1577BOLB   PO137826  22.090   9.930  38.730
 1577BOLB   GL137827  22.140   9.500  38.850
 1577BOLB   GL237828  22.130   9.410  39.210
 1577BOLB   C1A37829  22.210   9.020  38.970
 1577BOLB   C2A37830  21.940   8.700  38.990
 1577BOLB   C3A37831  21.640   8.540  39.320
 1577BOLB   C4A37832  21.390   8.390  39.610
 1577BOLB   C1B37833  21.640   9.600  39.170
 1577BOLB   C2B37834  21.490   9.440  39.560
 1577BOLB   C3B37835  21.350   9.130  39.890
 1577BOLB   C4B37836  21.320   8.710  39.980
 1577BOLB   NC237837  21.100   6.280  41.240
 1577BOLB   PO237838  20.740   6.390  41.040
 1577BOLB   GL337839  20.740   6.890  40.830
 1577BOLB   GL437840  20.460   7.230  40.760
 1577BOLB   C1C37841  20.960   7.180  40.600
 1577BOLB   C2C37842  21.000   7.590  40.450
 1577BOLB   C3C37843  21.010   7.810  40.180
 1577BOLB   C4C37844  21.150   8.090  39.800
 1577BOLB   C1D37845  20.590   7.610  40.710
 1577BOLB   C2D37846  20.750   8.080  40.540
 1577BOLB   C3D37847  20.790   8.350  40.250
 1577BOLB   C4D37848  20.870   8.540  39.860
 1578BOLB   NC137849  22.970  10.000  39.560
 1578BOLB   PO137850  22.550   9.820  39.490
 1578BOLB   GL137851  22.410   9.410  39.710
 1578BOLB   GL237852  22.540   9.110  39.530
 1578BOLB   C1A37853  22.300   9.410  40.110
 1578BOLB   C2A37854  22.570   9.170  40.310
 1578BOLB   C3A37855  22.750   8.850  40.610
 1578BOLB   C4A37856  23.030   8.510  40.780
 1578BOLB   C1B37857  22.310   8.740  39.670
 1578BOLB   C2B37858  22.040   8.360  39.580
 1578BOLB   C3B37859  22.030   7.940  39.670
 1578BOLB   C4B37860  22.060   7.950  40.110
 1578BOLB   NC237861  23.900   6.330  42.160
 1578BOLB   PO237862  23.700   6.670  41.950
 1578BOLB   GL337863  23.650   6.920  41.710
 1578BOLB   GL437864  23.660   6.620  41.400
 1578BOLB   C1C37865  23.410   7.220  41.470
 1578BOLB   C2C37866  23.300   7.560  41.280
 1578BOLB   C3C37867  23.370   7.880  41.080
 1578BOLB   C4C37868  23.150   8.060  40.770
 1578BOLB   C1D37869  23.780   6.960  41.210
 1578BOLB   C2D37870  23.730   7.410  41.000
 1578BOLB   C3D37871  23.780   7.720  40.730
 1578BOLB   C4D37872  24.070   8.010  40.500
 1579BOLB   NC137873  25.940  18.470  26.650
 1579BOLB   PO137874  25.620  18.660  26.360
 1579BOLB   GL137875  25.970  19.000  26.420
 1579BOLB   GL237876  26.140  19.000  26.680
 1579BOLB   C1A37877  26.120  19.550  26.260
 1579BOLB   C2A37878  26.150  19.860  26.060
 1579BOLB   C3A37879  26.420  20.140  25.810
 1579BOLB   C4A37880  26.815  20.260  25.950
 1579BOLB   C1B37881  26.445  19.060  26.900
 1579BOLB   C2B37882  26.895  18.930  27.020
 1579BOLB   C3B37883  27.215  18.560  27.090
 1579BOLB   C4B37884  27.465  18.740  27.330
 1579BOLB   NC237885  27.975  21.740  27.490
 1579BOLB   PO237886  28.255  21.600  27.240
 1579BOLB   GL337887  27.865  21.270  27.160
 1579BOLB   GL437888  27.655  21.350  27.350
 1579BOLB   C1C37889  27.665  20.850  27.180
 1579BOLB   C2C37890  27.585  20.560  26.920
 1579BOLB   C3C37891  27.435  20.770  26.490
 1579BOLB   C4C37892  27.075  20.620  26.160
 1579BOLB   C1D37893  27.385  21.060  27.510
 1579BOLB   C2D37894  27.035  20.940  27.580
 1579BOLB   C3D37895  26.665  20.770  27.430
 1579BOLB   C4D37896  26.655  20.650  27.060
 1580BOLB   NC137897  25.590  19.750  34.810
 1580BOLB   PO137898  25.790  19.550  34.390
 1580BOLB   GL137899  26.230  19.650  34.370
 1580BOLB   GL237900  26.280  19.560  34.690
 1580BOLB   C1A37901  26.635  19.660  34.220
 1580BOLB   C2A37902  26.905  20.010  34.190
 1580BOLB   C3A37903  27.245  20.230  34.150
 1580BOLB   C4A37904  27.605  20.500  34.050
 1580BOLB   C1B37905  26.495  19.960  34.690
 1580BOLB   C2B37906  26.400  20.430  34.570
 1580BOLB   C3B37907  26.505  20.870  34.390
 1580BOLB   C4B37908  26.585  21.160  34.170
 1580BOLB   NC237909  30.365  21.070  33.410
 1580BOLB   PO237910  30.045  20.930  33.700
 1580BOLB   GL337911  29.615  20.750  33.850
 1580BOLB   GL437912  29.575  20.360  33.660
 1580BOLB   C1C37913  29.195  20.920  33.820
 1580BOLB   C2C37914  28.765  21.040  33.750
 1580BOLB   C3C37915  28.325  21.060  33.810
 1580BOLB   C4C37916  27.935  20.790  33.970
 1580BOLB   C1D37917  29.235  20.200  33.440
 1580BOLB   C2D37918  28.865  20.240  33.490
 1580BOLB   C3D37919  28.485  20.550  33.680
 1580BOLB   C4D37920  28.005  20.410  33.680
 1581BOLB   NC137921  28.955  10.670  31.110
 1581BOLB   PO137922  29.365  10.630  31.390
 1581BOLB   GL137923  29.575  10.340  31.190
 1581BOLB   GL237924  29.835  10.240  31.530
 1581BOLB   C1A37925  29.975  10.330  31.040
 1581BOLB   C2A37926  30.325  10.490  31.030
 1581BOLB   C3A37927  30.725  10.610  30.960
 1581BOLB   C4A37928  31.175  10.560  30.920
 1581BOLB   C1B37929  30.155  10.140  31.430
 1581BOLB   C2B37930  30.525   9.990  31.160
 1581BOLB   C3B37931  30.905  10.130  31.110
 1581BOLB   C4B37932  31.285  10.340  31.390
 1581BOLB   NC237933  34.415  11.240  30.820
 1581BOLB   PO237934  33.855  11.180  30.780
 1581BOLB   GL337935  33.365  11.310  30.700
 1581BOLB   GL437936  33.195  11.400  30.360
 1581BOLB   C1C37937  32.875  11.030  30.840
 1581BOLB   C2C37938  32.425  10.960  31.010
 1581BOLB   C3C37939  32.035  10.810  30.970
 1581BOLB   C4C37940  31.665  10.620  31.050
 1581BOLB   C1D37941  32.765  11.440  30.590
 1581BOLB   C2D37942  32.405  11.470  30.630
 1581BOLB   C3D37943  32.025  11.730  30.660
 1581BOLB   C4D37944  31.705  11.980  30.790
 1582BOLB   NC137945  24.470   8.350  26.420
 1582BOLB   PO137946  24.240   8.710  26.340
 1582BOLB   GL137947  24.080   8.270  26.190
 1582BOLB   GL237948  24.220   8.000  26.230
 1582BOLB   C1A37949  23.850   8.090  25.890
 1582BOLB   C2A37950  23.510   7.820  25.920
 1582BOLB   C3A37951  23.440   7.430  25.750
 1582BOLB   C4A37952  23.400   7.130  25.550
 1582BOLB   C1B37953  24.500   7.610  26.060
 1582BOLB   C2B37954  24.740   7.280  25.880
 1582BOLB   C3B37955  25.010   6.910  25.690
 1582BOLB   C4B37956  25.270   6.760  25.480
 1582BOLB   NC237957  22.660   5.690  23.670
 1582BOLB   PO237958  23.120   5.800  23.600
 1582BOLB   GL337959  23.180   5.940  24.040
 1582BOLB   GL437960  23.510   6.100  23.990
 1582BOLB   C1C37961  23.240   5.990  24.550
 1582BOLB   C2C37962  23.170   6.370  24.780
 1582BOLB   C3C37963  23.070   6.560  25.240
 1582BOLB   C4C37964  23.150   6.820  25.420
 1582BOLB   C1D37965  23.690   6.390  23.690
 1582BOLB   C2D37966  24.050   6.760  23.710
 1582BOLB   C3D37967  24.280   6.920  24.090
 1582BOLB   C4D37968  24.370   7.260  24.430
 1583BOLB   NC137969  18.820  16.020  41.550
 1583BOLB   PO137970  18.510  16.230  41.760
 1583BOLB   GL137971  18.370  16.220  42.190
 1583BOLB   GL237972  18.060  16.020  42.250
 1583BOLB   C1A37973  18.380  15.900  42.590
 1583BOLB   C2A37974  18.150  15.670  42.950
 1583BOLB   C3A37975  17.770  15.430  43.260
 1583BOLB   C4A37976  17.560  15.120  43.490
 1583BOLB   C1B37977  17.800  15.880  42.610
 1583BOLB   C2B37978  17.440  15.960  42.860
 1583BOLB   C3B37979  17.330  15.910  43.270
 1583BOLB   C4B37980  17.460  15.700  43.590
 1583BOLB   NC237981  15.840  13.520  44.630
 1583BOLB   PO237982  16.160  13.430  44.390
 1583BOLB   GL337983  16.530  13.600  44.220
 1583BOLB   GL437984  16.910  13.740  44.290
 1583BOLB   C1C37985  16.650  13.780  43.830
 1583BOLB   C2C37986  17.010  14.000  43.710
 1583BOLB   C3C37987  17.360  14.200  43.490
 1583BOLB   C4C37988  17.430  14.660  43.570
 1583BOLB   C1D37989  17.120  13.610  44.020
 1583BOLB   C2D37990  17.450  13.680  43.760
 1583BOLB   C3D37991  17.720  13.860  43.650
 1583BOLB   C4D37992  17.940  13.920  43.870
 1584BOLB   NC137993  22.390   8.570  34.850
 1584BOLB   PO137994  22.170   8.260  34.490
 1584BOLB   GL137995  21.950   7.870  34.660
 1584BOLB   GL237996  21.860   7.840  34.940
 1584BOLB   C1A37997  21.970   7.440  34.670
 1584BOLB   C2A37998  21.790   7.020  34.710
 1584BOLB   C3A37999  21.570   6.680  34.720
 1584BOLB   C4A38000  21.480   6.260  34.810
 1584BOLB   C1B38001  21.650   7.620  35.340
 1584BOLB   C2B38002  21.430   7.330  35.540
 1584BOLB   C3B38003  21.400   7.080  35.710
 1584BOLB   C4B38004  21.170   6.740  35.970
 1584BOLB   NC238005  21.740   3.910  35.530
 1584BOLB   PO238006  21.440   4.230  35.640
 1584BOLB   GL338007  21.550   4.620  35.620
 1584BOLB   GL438008  21.700   4.600  35.260
 1584BOLB   C1C38009  21.620   5.050  35.560
 1584BOLB   C2C38010  21.850   5.350  35.580
 1584BOLB   C3C38011  21.830   5.790  35.440
 1584BOLB   C4C38012  21.670   6.040  35.070
 1584BOLB   C1D38013  22.000   4.740  35.310
 1584BOLB   C2D38014  22.180   5.120  35.280
 1584BOLB   C3D38015  22.490   5.350  35.090
 1584BOLB   C4D38016  22.940   5.410  35.060
 1585BOLB   NC138017  29.255  11.860  36.570
 1585BOLB   PO138018  29.365  11.900  36.990
 1585BOLB   GL138019  29.765  12.040  37.040
 1585BOLB   GL238020  30.175  12.120  36.960
 1585BOLB   C1A38021  29.995  12.090  37.430
 1585BOLB   C2A38022  30.425  12.250  37.460
 1585BOLB   C3A38023  30.865  12.370  37.690
 1585BOLB   C4A38024  31.265  12.470  37.570
 1585BOLB   C1B38025  30.595  12.120  36.980
 1585BOLB   C2B38026  31.035  12.090  37.160
 1585BOLB   C3B38027  31.215  11.630  37.250
 1585BOLB   C4B38028  31.045  11.230  37.230
 1585BOLB   NC238029  33.815  12.580  36.860
 1585BOLB   PO238030  33.585  12.190  37.010
 1585BOLB   GL338031  33.165  12.150  36.860
 1585BOLB   GL438032  33.075  11.910  37.130
 1585BOLB   C1C38033  32.815  12.290  36.940
 1585BOLB   C2C38034  32.505  12.500  37.230
 1585BOLB   C3C38035  32.135  12.420  37.550
 1585BOLB   C4C38036  31.745  12.460  37.630
 1585BOLB   C1D38037  32.675  11.710  37.130
 1585BOLB   C2D38038  32.375  11.910  36.860
 1585BOLB   C3D38039  32.185  12.240  37.030
 1585BOLB   C4D38040  31.895  12.480  37.060
 1586BOLB   NC138041  23.670  11.210  40.630
 1586BOLB   PO138042  23.500  11.100  40.990
 1586BOLB   GL138043  23.460  10.910  41.350
 1586BOLB   GL238044  23.140  10.750  41.240
 1586BOLB   C1A38045  23.730  10.750  41.670
 1586BOLB   C2A38046  23.620  10.280  41.780
 1586BOLB   C3A38047  23.300  10.010  41.650
 1586BOLB   C4A38048  23.170   9.740  41.910
 1586BOLB   C1B38049  23.030  10.480  41.430
 1586BOLB   C2B38050  22.820  10.140  41.640
 1586BOLB   C3B38051  22.800  10.020  42.130
 1586BOLB   C4B38052  22.800  10.100  42.570
 1586BOLB   NC238053  23.700   7.940  43.520
 1586BOLB   PO238054  23.700   8.270  43.760
 1586BOLB   GL338055  23.690   8.450  43.450
 1586BOLB   GL438056  23.460   8.580  43.450
 1586BOLB   C1C38057  23.590   8.750  43.030
 1586BOLB   C2C38058  23.730   8.850  42.710
 1586BOLB   C3C38059  23.540   9.170  42.510
 1586BOLB   C4C38060  23.180   9.390  42.190
 1586BOLB   C1D38061  23.130   8.620  43.160
 1586BOLB   C2D38062  22.960   8.960  42.990
 1586BOLB   C3D38063  23.000   9.310  42.680
 1586BOLB   C4D38064  22.770   9.590  42.490
 1587BOLB   NC138065  24.910  17.540  23.110
 1587BOLB   PO138066  24.930  17.960  23.220
 1587BOLB   GL138067  25.260  18.250  23.040
 1587BOLB   GL238068  25.150  18.290  22.730
 1587BOLB   C1A38069  25.560  18.520  23.060
 1587BOLB   C2A38070  26.000  18.530  23.320
 1587BOLB   C3A38071  26.300  18.820  23.340
 1587BOLB   C4A38072  26.645  18.970  23.240
 1587BOLB   C1B38073  25.460  18.180  22.510
 1587BOLB   C2B38074  25.670  18.320  22.190
 1587BOLB   C3B38075  25.810  18.310  21.710
 1587BOLB   C4B38076  25.900  18.270  21.280
 1587BOLB   NC238077  28.575  20.090  22.980
 1587BOLB   PO238078  28.405  20.390  23.040
 1587BOLB   GL338079  28.035  20.360  23.230
 1587BOLB   GL438080  28.035  20.310  23.510
 1587BOLB   C1C38081  27.625  20.150  23.170
 1587BOLB   C2C38082  27.235  19.960  23.050
 1587BOLB   C3C38083  27.105  19.490  23.230
 1587BOLB   C4C38084  26.925  19.160  23.200
 1587BOLB   C1D38085  27.995  19.860  23.400
 1587BOLB   C2D38086  28.185  19.460  23.140
 1587BOLB   C3D38087  27.835  19.100  22.920
 1587BOLB   C4D38088  27.635  19.220  22.580
 1588BOLB   NC138089  29.595  12.340  33.010
 1588BOLB   PO138090  30.035  12.280  32.750
 1588BOLB   GL138091  30.285  12.010  32.420
 1588BOLB   GL238092  30.415  12.050  32.130
 1588BOLB   C1A38093  30.635  11.780  32.490
 1588BOLB   C2A38094  31.025  11.900  32.760
 1588BOLB   C3A38095  31.365  11.920  32.890
 1588BOLB   C4A38096  31.735  12.060  32.970
 1588BOLB   C1B38097  30.675  12.390  31.980
 1588BOLB   C2B38098  31.105  12.570  32.050
 1588BOLB   C3B38099  31.405  12.310  32.340
 1588BOLB   C4B38100  31.745  12.300  32.510
 1588BOLB   NC238101  33.595  13.760  32.810
 1588BOLB   PO238102  33.675  13.900  32.410
 1588BOLB   GL338103  33.235  13.630  32.540
 1588BOLB   GL438104  33.085  13.800  32.910
 1588BOLB   C1C38105  32.795  13.420  32.770
 1588BOLB   C2C38106  32.525  13.040  32.850
 1588BOLB   C3C38107  32.345  12.630  32.830
 1588BOLB   C4C38108  32.205  12.240  32.790
 1588BOLB   C1D38109  32.685  13.750  33.140
 1588BOLB   C2D38110  32.205  13.640  33.280
 1588BOLB   C3D38111  31.805  13.570  33.100
 1588BOLB   C4D38112  31.345  13.440  33.040
 1589BOLB   NC138113  29.385  10.760  32.720
 1589BOLB   PO138114  29.645  10.940  33.000
 1589BOLB   GL138115  29.985  10.730  32.770
 1589BOLB   GL238116  30.235  10.870  33.010
 1589BOLB   C1A38117  30.345  10.550  32.550
 1589BOLB   C2A38118  30.835  10.560  32.500
 1589BOLB   C3A38119  31.025  10.430  32.210
 1589BOLB   C4A38120  31.425  10.240  32.010
 1589BOLB   C1B38121  30.635  10.710  32.970
 1589BOLB   C2B38122  30.965  10.860  32.820
 1589BOLB   C3B38123  31.415  11.030  32.870
 1589BOLB   C4B38124  31.675  11.180  32.480
 1589BOLB   NC238125  33.425  10.340  31.850
 1589BOLB   PO238126  33.655  10.430  31.410
 1589BOLB   GL338127  33.285  10.700  31.480
 1589BOLB   GL438128  33.245  10.660  31.200
 1589BOLB   C1C38129  32.895  10.730  31.820
 1589BOLB   C2C38130  32.425  10.730  31.880
 1589BOLB   C3C38131  32.225  10.380  31.840
 1589BOLB   C4C38132  31.795  10.400  31.930
 1589BOLB   C1D38133  32.785  10.690  31.230
 1589BOLB   C2D38134  32.335  10.570  31.370
 1589BOLB   C3D38135  32.085  10.780  31.550
 1589BOLB   C4D38136  31.615  10.670  31.510
 1590BOLB   NC138137  27.915   4.050  37.020
 1590BOLB   PO138138  28.135   4.190  37.370
 1590BOLB   GL138139  27.985   4.560  37.080
 1590BOLB   GL238140  28.185   4.700  36.830
 1590BOLB   C1A38141  27.615   4.800  37.240
 1590BOLB   C2A38142  27.225   5.020  37.280
 1590BOLB   C3A38143  27.045   5.290  37.440
 1590BOLB   C4A38144  26.795   5.690  37.460
 1590BOLB   C1B38145  27.875   5.040  36.890
 1590BOLB   C2B38146  27.845   5.290  37.280
 1590BOLB   C3B38147  27.555   5.190  37.640
 1590BOLB   C4B38148  27.185   5.470  37.850
 1590BOLB   NC238149  26.695   4.180  38.160
 1590BOLB   PO238150  26.645   4.270  38.550
 1590BOLB   GL338151  26.455   4.660  38.300
 1590BOLB   GL438152  26.555   4.640  37.940
 1590BOLB   C1C38153  26.535   5.080  38.150
 1590BOLB   C2C38154  26.695   5.410  37.830
 1590BOLB   C3C38155  26.475   5.810  37.860
 1590BOLB   C4C38156  26.525   5.950  37.530
 1590BOLB   C1D38157  26.565   4.970  37.650
 1590BOLB   C2D38158  26.420   5.260  37.400
 1590BOLB   C3D38159  26.260   5.660  37.310
 1590BOLB   C4D38160  26.180   6.030  37.110
 1591BOLB   NC138161  21.180  19.340  22.730
 1591BOLB   PO138162  21.480  19.440  22.400
 1591BOLB   GL138163  21.650  19.490  21.990
 1591BOLB   GL238164  21.860  19.200  21.880
 1591BOLB   C1A38165  21.860  19.770  21.760
 1591BOLB   C2A38166  22.140  19.860  21.520
 1591BOLB   C3A38167  22.330  20.090  21.230
 1591BOLB   C4A38168  22.440  20.290  20.850
 1591BOLB   C1B38169  22.150  19.300  21.550
 1591BOLB   C2B38170  22.340  19.540  21.130
 1591BOLB   C3B38171  22.490  19.530  20.710
 1591BOLB   C4B38172  22.910  19.620  20.560
 1591BOLB   NC238173  22.660  22.600  19.210
 1591BOLB   PO238174  22.740  22.170  19.240
 1591BOLB   GL338175  22.630  21.800  19.450
 1591BOLB   GL438176  22.420  21.530  19.450
 1591BOLB   C1C38177  22.870  21.390  19.670
 1591BOLB   C2C38178  23.140  21.120  19.940
 1591BOLB   C3C38179  23.090  20.700  20.200
 1591BOLB   C4C38180  22.770  20.480  20.500
 1591BOLB   C1D38181  22.050  21.410  19.780
 1591BOLB   C2D38182  21.910  21.220  20.230
 1591BOLB   C3D38183  21.790  21.180  20.690
 1591BOLB   C4D38184  22.090  21.170  20.990
 1592BOLB   NC138185  16.030  13.530  37.210
 1592BOLB   PO138186  16.280  13.560  37.510
 1592BOLB   GL138187  15.920  13.360  37.670
 1592BOLB   GL238188  15.790  13.520  37.960
 1592BOLB   C1A38189  15.750  12.980  37.650
 1592BOLB   C2A38190  15.450  12.780  37.800
 1592BOLB   C3A38191  15.220  12.280  37.790
 1592BOLB   C4A38192  14.890  11.940  37.810
 1592BOLB   C1B38193  15.470  13.220  38.090
 1592BOLB   C2B38194  15.190  12.910  38.260
 1592BOLB   C3B38195  15.010  12.400  38.360
 1592BOLB   C4B38196  14.620  12.080  38.300
 1592BOLB   NC238197  12.360  11.300  38.490
 1592BOLB   PO238198  12.630  10.940  38.240
 1592BOLB   GL338199  12.780  11.330  38.160
 1592BOLB   GL438200  12.640  11.610  38.140
 1592BOLB   C1C38201  13.220  11.600  38.110
 1592BOLB   C2C38202  13.790  11.670  38.040
 1592BOLB   C3C38203  14.250  11.770  38.190
 1592BOLB   C4C38204  14.580  11.680  37.960
 1592BOLB   C1D38205  12.940  11.900  38.380
 1592BOLB   C2D38206  13.370  11.850  38.550
 1592BOLB   C3D38207  13.790  11.840  38.540
 1592BOLB   C4D38208  14.190  12.010  38.630
 1593BOLB   NC138209  23.310  18.380  43.130
 1593BOLB   PO138210  22.940  18.400  43.380
 1593BOLB   GL138211  23.080  18.300  43.800
 1593BOLB   GL238212  23.440  18.340  43.680
 1593BOLB   C1A38213  22.810  18.160  44.120
 1593BOLB   C2A38214  22.960  18.030  44.500
 1593BOLB   C3A38215  22.950  17.940  44.880
 1593BOLB   C4A38216  23.100  18.250  45.220
 1593BOLB   C1B38217  23.820  18.270  43.920
 1593BOLB   C2B38218  24.190  18.230  44.120
 1593BOLB   C3B38219  24.400  18.230  44.520
 1593BOLB   C4B38220  24.240  17.960  44.910
 1593BOLB   NC238221  24.170  18.460  47.130
 1593BOLB   PO238222  23.820  18.610  47.360
 1593BOLB   GL338223  23.710  18.670  46.870
 1593BOLB   GL438224  23.770  19.060  46.710
 1593BOLB   C1C38225  23.660  18.440  46.570
 1593BOLB   C2C38226  23.790  18.240  46.160
 1593BOLB   C3C38227  23.660  18.290  45.740
 1593BOLB   C4C38228  23.460  18.270  45.410
 1593BOLB   C1D38229  23.670  18.830  46.300
 1593BOLB   C2D38230  23.230  18.600  46.060
 1593BOLB   C3D38231  23.000  18.390  45.810
 1593BOLB   C4D38232  22.630  18.010  45.940
 1594BOLB   NC138233  21.100  23.060  29.630
 1594BOLB   PO138234  21.380  23.220  29.370
 1594BOLB   GL138235  21.460  23.710  29.420
 1594BOLB   GL238236  21.610  23.810  29.060
 1594BOLB   C1A38237  21.470  24.170  29.370
 1594BOLB   C2A38238  21.490  24.580  29.460
 1594BOLB   C3A38239  21.660  25.020  29.590
 1594BOLB   C4A38240  21.910  25.290  29.820
 1594BOLB   C1B38241  21.920  23.990  29.240
 1594BOLB   C2B38242  22.150  24.300  29.290
 1594BOLB   C3B38243  22.600  24.410  29.260
 1594BOLB   C4B38244  23.050  24.460  29.090
 1594BOLB   NC238245  23.160   1.040  30.760
 1594BOLB   PO238246  23.330   0.970  30.360
 1594BOLB   GL338247  22.920   0.850  30.100
 1594BOLB   GL438248  22.730   1.110  29.920
 1594BOLB   C1C38249  22.780   0.430  30.110
 1594BOLB   C2C38250  22.500   0.060  30.020
 1594BOLB   C3C38251  22.320  26.090  29.990
 1594BOLB   C4C38252  22.030  25.830  29.810
 1594BOLB   C1D38253  22.420   0.830  29.830
 1594BOLB   C2D38254  22.400   0.410  29.730
 1594BOLB   C3D38255  22.010   0.070  29.600
 1594BOLB   C4D38256  21.860  26.090  29.440
 1595BOLB   NC138257  14.910  22.540  25.930
 1595BOLB   PO138258  14.680  22.630  25.590
 1595BOLB   GL138259  14.360  22.890  25.500
 1595BOLB   GL238260  14.150  22.760  25.780
 1595BOLB   C1A38261  14.150  23.320  25.340
 1595BOLB   C2A38262  13.920  23.560  25.230
 1595BOLB   C3A38263  13.390  23.700  25.260
 1595BOLB   C4A38264  13.180  24.010  25.530
 1595BOLB   C1B38265  13.890  23.070  25.760
 1595BOLB   C2B38266  13.600  23.170  25.520
 1595BOLB   C3B38267  13.250  23.230  25.210
 1595BOLB   C4B38268  13.090  23.330  24.870
 1595BOLB   NC238269  13.230  26.190  24.380
 1595BOLB   PO238270  13.270  26.080  24.790
 1595BOLB   GL338271  13.430  25.850  25.160
 1595BOLB   GL438272  13.720  25.900  25.310
 1595BOLB   C1C38273  13.520  25.470  25.360
 1595BOLB   C2C38274  13.400  25.060  25.660
 1595BOLB   C3C38275  13.440  24.650  25.690
 1595BOLB   C4C38276  13.410  24.260  25.760
 1595BOLB   C1D38277  14.050  25.630  25.290
 1595BOLB   C2D38278  14.160  25.290  25.570
 1595BOLB   C3D38279  14.410  25.100  25.880
 1595BOLB   C4D38280  14.530  24.730  25.900
 1596BOLB   NC138281  23.270  19.450  41.810
 1596BOLB   PO138282  23.310  19.430  42.360
 1596BOLB   GL138283  23.510  19.760  42.610
 1596BOLB   GL238284  23.260  19.860  42.760
 1596BOLB   C1A38285  23.990  19.840  42.710
 1596BOLB   C2A38286  24.180  20.120  42.900
 1596BOLB   C3A38287  24.500  20.350  43.110
 1596BOLB   C4A38288  24.850  20.540  43.440
 1596BOLB   C1B38289  23.610  20.060  43.010
 1596BOLB   C2B38290  23.630  20.190  43.480
 1596BOLB   C3B38291  23.760  20.530  43.840
 1596BOLB   C4B38292  23.410  20.720  44.050
 1596BOLB   NC238293  25.880  21.230  45.900
 1596BOLB   PO238294  25.670  21.070  45.620
 1596BOLB   GL338295  25.750  20.980  45.160
 1596BOLB   GL438296  25.880  20.730  45.100
 1596BOLB   C1C38297  25.460  21.090  44.860
 1596BOLB   C2C38298  25.380  21.040  44.420
 1596BOLB   C3C38299  25.110  20.830  44.200
 1596BOLB   C4C38300  25.050  20.690  43.850
 1596BOLB   C1D38301  26.060  20.460  44.840
 1596BOLB   C2D38302  26.120  20.200  44.580
 1596BOLB   C3D38303  26.080  19.810  44.400
 1596BOLB   C4D38304  26.020  19.550  44.130
 1597BOLB   NC138305  26.655  14.140  41.630
 1597BOLB   PO138306  26.370  14.460  41.500
 1597BOLB   GL138307  26.310  14.270  41.970
 1597BOLB   GL238308  26.485  14.030  42.110
 1597BOLB   C1A38309  26.360  14.430  42.470
 1597BOLB   C2A38310  26.455  14.510  43.000
 1597BOLB   C3A38311  26.390  14.330  43.380
 1597BOLB   C4A38312  26.380  14.530  43.790
 1597BOLB   C1B38313  26.475  13.890  42.570
 1597BOLB   C2B38314  26.485  13.500  42.790
 1597BOLB   C3B38315  26.430  13.140  43.020
 1597BOLB   C4B38316  26.635  12.840  43.380
 1597BOLB   NC238317  27.765  14.140  46.260
 1597BOLB   PO238318  27.575  14.380  45.880
 1597BOLB   GL338319  27.365  14.380  45.510
 1597BOLB   GL438320  27.265  14.780  45.570
 1597BOLB   C1C38321  27.045  14.180  45.160
 1597BOLB   C2C38322  26.915  13.920  44.770
 1597BOLB   C3C38323  26.645  13.950  44.500
 1597BOLB   C4C38324  26.420  14.250  44.190
 1597BOLB   C1D38325  27.195  14.750  45.160
 1597BOLB   C2D38326  26.785  14.610  45.080
 1597BOLB   C3D38327  26.300  14.560  45.240
 1597BOLB   C4D38328  25.950  14.300  44.900
 1598BOLB   NC138329  20.830  23.550  30.200
 1598BOLB   PO138330  20.630  23.970  30.170
 1598BOLB   GL138331  20.700  24.330  30.040
 1598BOLB   GL238332  20.630  24.290  29.740
 1598BOLB   C1A38333  20.970  24.810  29.970
 1598BOLB   C2A38334  21.140  25.130  29.790
 1598BOLB   C3A38335  21.190  25.630  29.640
 1598BOLB   C4A38336  21.460  25.900  29.620
 1598BOLB   C1B38337  20.700  24.700  29.540
 1598BOLB   C2B38338  20.840  25.160  29.410
 1598BOLB   C3B38339  20.820  25.590  29.330
 1598BOLB   C4B38340  20.690  25.990  29.080
 1598BOLB   NC238341  22.710   1.880  30.410
 1598BOLB   PO238342  22.260   1.690  30.450
 1598BOLB   GL338343  22.220   1.200  30.410
 1598BOLB   GL438344  21.800   1.050  30.600
 1598BOLB   C1C38345  22.110   0.880  30.180
 1598BOLB   C2C38346  21.910   0.510  29.890
 1598BOLB   C3C38347  21.650   0.280  29.850
 1598BOLB   C4C38348  21.520  26.320  29.750
 1598BOLB   C1D38349  21.640   0.620  30.530
 1598BOLB   C2D38350  21.590   0.200  30.390
 1598BOLB   C3D38351  21.380  26.370  30.280
 1598BOLB   C4D38352  21.140  26.020  30.050
 1599BOLB   NC138353  18.740  17.230  22.540
 1599BOLB   PO138354  18.450  17.150  22.260
 1599BOLB   GL138355  18.180  17.070  21.860
 1599BOLB   GL238356  17.900  17.020  21.990
 1599BOLB   C1A38357  18.310  17.150  21.480
 1599BOLB   C2A38358  18.170  17.060  21.090
 1599BOLB   C3A38359  18.050  16.990  20.650
 1599BOLB   C4A38360  17.990  17.080  20.220
 1599BOLB   C1B38361  17.700  16.850  21.630
 1599BOLB   C2B38362  17.680  16.850  21.170
 1599BOLB   C3B38363  17.380  16.690  20.780
 1599BOLB   C4B38364  17.320  16.460  20.320
 1599BOLB   NC238365  18.550  17.360  17.880
 1599BOLB   PO238366  18.100  17.460  17.770
 1599BOLB   GL338367  18.140  17.580  18.180
 1599BOLB   GL438368  18.450  17.590  18.320
 1599BOLB   C1C38369  17.940  17.550  18.540
 1599BOLB   C2C38370  17.800  17.590  19.000
 1599BOLB   C3C38371  17.850  17.390  19.360
 1599BOLB   C4C38372  18.060  17.070  19.750
 1599BOLB   C1D38373  18.240  17.910  18.610
 1599BOLB   C2D38374  18.270  17.680  19.150
 1599BOLB   C3D38375  18.370  17.320  19.280
 1599BOLB   C4D38376  18.540  17.000  19.560
 1600BOLB   NC138377  25.620  17.450  41.150
 1600BOLB   PO138378  25.890  17.840  41.390
 1600BOLB   GL138379  26.020  17.970  41.720
 1600BOLB   GL238380  25.890  18.310  41.710
 1600BOLB   C1A38381  26.440  18.050  41.970
 1600BOLB   C2A38382  26.765  17.750  42.140
 1600BOLB   C3A38383  27.025  17.900  42.340
 1600BOLB   C4A38384  27.355  18.190  42.520
 1600BOLB   C1B38385  26.240  18.490  41.760
 1600BOLB   C2B38386  26.400  18.490  42.210
 1600BOLB   C3B38387  26.300  18.360  42.610
 1600BOLB   C4B38388  26.270  18.220  42.970
 1600BOLB   NC238389  29.585  18.360  43.410
 1600BOLB   PO238390  29.755  18.040  43.290
 1600BOLB   GL338391  29.385  17.970  43.100
 1600BOLB   GL438392  29.225  17.930  43.420
 1600BOLB   C1C38393  28.975  17.950  42.980
 1600BOLB   C2C38394  28.575  18.150  42.980
 1600BOLB   C3C38395  28.135  18.240  42.680
 1600BOLB   C4C38396  27.715  18.390  42.530
 1600BOLB   C1D38397  28.865  17.610  43.330
 1600BOLB   C2D38398  28.805  17.470  42.900
 1600BOLB   C3D38399  28.745  17.220  42.480
 1600BOLB   C4D38400  28.945  16.880  42.290
 1601BOLB   NC138401  23.060  21.670  41.030
 1601BOLB   PO138402  23.010  21.440  41.400
 1601BOLB   GL138403  23.410  21.510  41.650
 1601BOLB   GL238404  23.250  21.720  42.030
 1601BOLB   C1A38405  23.810  21.680  41.940
 1601BOLB   C2A38406  24.070  21.610  42.280
 1601BOLB   C3A38407  24.270  21.610  42.660
 1601BOLB   C4A38408  24.560  21.410  42.950
 1601BOLB   C1B38409  23.270  21.980  42.420
 1601BOLB   C2B38410  22.950  21.950  42.840
 1601BOLB   C3B38411  22.560  21.970  43.010
 1601BOLB   C4B38412  22.230  21.720  43.140
 1601BOLB   NC238413  23.740  23.090  44.990
 1601BOLB   PO238414  24.060  22.990  44.700
 1601BOLB   GL338415  24.140  22.430  44.550
 1601BOLB   GL438416  23.820  22.490  44.340
 1601BOLB   C1C38417  24.480  22.120  44.470
 1601BOLB   C2C38418  24.310  21.750  44.130
 1601BOLB   C3C38419  24.520  21.420  43.870
 1601BOLB   C4C38420  24.650  21.440  43.420
 1601BOLB   C1D38421  23.920  22.050  44.290
 1601BOLB   C2D38422  23.630  21.680  44.140
 1601BOLB   C3D38423  23.580  21.280  44.130
 1601BOLB   C4D38424  23.470  21.130  43.750
 1602BOLB   NC138425  14.700  17.800  25.390
 1602BOLB   PO138426  14.450  18.200  25.380
 1602BOLB   GL138427  14.280  18.170  25.070
 1602BOLB   GL238428  14.310  18.440  24.920
 1602BOLB   C1A38429  13.940  18.020  24.840
 1602BOLB   C2A38430  13.680  18.010  24.550
 1602BOLB   C3A38431  13.330  17.980  24.350
 1602BOLB   C4A38432  12.990  17.950  24.160
 1602BOLB   C1B38433  13.860  18.480  24.820
 1602BOLB   C2B38434  13.590  18.570  24.390
 1602BOLB   C3B38435  13.250  18.430  24.100
 1602BOLB   C4B38436  12.760  18.500  23.830
 1602BOLB   NC238437  11.500  16.340  22.760
 1602BOLB   PO238438  11.600  16.820  22.780
 1602BOLB   GL338439  11.800  16.730  23.160
 1602BOLB   GL438440  12.090  16.810  22.960
 1602BOLB   C1C38441  11.820  16.980  23.480
 1602BOLB   C2C38442  11.930  17.290  23.820
 1602BOLB   C3C38443  12.150  17.760  24.050
 1602BOLB   C4C38444  12.590  17.870  24.210
 1602BOLB   C1D38445  12.180  17.250  23.210
 1602BOLB   C2D38446  12.250  17.740  23.110
 1602BOLB   C3D38447  12.380  18.070  23.360
 1602BOLB   C4D38448  12.230  18.380  23.670
 1603BOLB   NC138449  14.390  17.810  27.130
 1603BOLB   PO138450  14.000  17.750  27.150
 1603BOLB   GL138451  13.740  17.560  26.850
 1603BOLB   GL238452  13.820  17.770  26.580
 1603BOLB   C1A38453  13.360  17.380  26.560
 1603BOLB   C2A38454  12.940  17.460  26.400
 1603BOLB   C3A38455  12.590  17.640  26.590
 1603BOLB   C4A38456  12.240  17.840  26.810
 1603BOLB   C1B38457  13.840  17.330  26.410
 1603BOLB   C2B38458  13.470  17.010  26.160
 1603BOLB   C3B38459  12.980  17.100  26.070
 1603BOLB   C4B38460  12.610  17.060  26.310
 1603BOLB   NC238461  10.310  17.440  27.270
 1603BOLB   PO238462  10.070  17.060  27.070
 1603BOLB   GL338463  10.430  17.010  27.040
 1603BOLB   GL438464  10.530  16.950  26.630
 1603BOLB   C1C38465  10.860  17.160  27.190
 1603BOLB   C2C38466  11.220  17.370  27.450
 1603BOLB   C3C38467  11.620  17.530  27.370
 1603BOLB   C4C38468  11.980  17.660  27.200
 1603BOLB   C1D38469  10.950  17.000  26.710
 1603BOLB   C2D38470  11.270  17.270  26.850
 1603BOLB   C3D38471  11.710  17.360  26.910
 1603BOLB   C4D38472  11.930  17.520  26.550
 1604BOLB   NC138473  16.740  21.500  23.190
 1604BOLB   PO138474  16.810  21.730  23.580
 1604BOLB   GL138475  16.540  21.930  23.330
 1604BOLB   GL238476  16.210  21.780  23.290
 1604BOLB   C1A38477  16.400  22.220  22.970
 1604BOLB   C2A38478  16.330  22.430  22.570
 1604BOLB   C3A38479  16.630  22.500  22.260
 1604BOLB   C4A38480  16.480  22.590  21.940
 1604BOLB   C1B38481  15.910  21.670  23.110
 1604BOLB   C2B38482  15.560  21.810  22.830
 1604BOLB   C3B38483  15.290  22.060  22.460
 1604BOLB   C4B38484  15.010  22.150  22.180
 1604BOLB   NC238485  15.080  23.150  19.560
 1604BOLB   PO238486  15.330  23.380  19.810
 1604BOLB   GL338487  15.350  23.270  20.200
 1604BOLB   GL438488  15.080  23.130  20.450
 1604BOLB   C1C38489  15.570  23.360  20.600
 1604BOLB   C2C38490  15.920  23.290  20.920
 1604BOLB   C3C38491  16.150  23.080  21.260
 1604BOLB   C4C38492  16.280  22.890  21.660
 1604BOLB   C1D38493  15.110  23.260  20.800
 1604BOLB   C2D38494  15.400  23.220  21.050
 1604BOLB   C3D38495  15.670  23.250  21.450
 1604BOLB   C4D38496  15.930  23.360  21.660
 1605BOLB   NC138497  14.690  23.690  33.640
 1605BOLB   PO138498  14.930  23.420  33.930
 1605BOLB   GL138499  14.530  23.570  34.160
 1605BOLB   GL238500  14.350  23.870  33.970
 1605BOLB   C1A38501  14.430  23.520  34.610
 1605BOLB   C2A38502  14.300  23.650  34.990
 1605BOLB   C3A38503  13.930  23.840  35.060
 1605BOLB   C4A38504  13.520  23.940  34.890
 1605BOLB   C1B38505  14.280  24.220  34.170
 1605BOLB   C2B38506  14.080  24.470  34.520
 1605BOLB   C3B38507  13.910  24.910  34.660
 1605BOLB   C4B38508  13.600  25.220  34.520
 1605BOLB   NC238509  11.200  24.820  36.550
 1605BOLB   PO238510  11.200  24.760  36.180
 1605BOLB   GL338511  11.650  24.520  36.030
 1605BOLB   GL438512  11.800  24.150  36.090
 1605BOLB   C1C38513  11.960  24.380  35.660
 1605BOLB   C2C38514  12.310  24.310  35.410
 1605BOLB   C3C38515  12.710  24.050  35.370
 1605BOLB   C4C38516  13.120  23.950  35.060
 1605BOLB   C1D38517  12.040  23.820  36.220
 1605BOLB   C2D38518  12.490  23.590  36.190
 1605BOLB   C3D38519  12.760  23.370  36.430
 1605BOLB   C4D38520  13.100  23.050  36.580
 1606BOLB   NC138521  16.710  15.610  39.870
 1606BOLB   PO138522  17.050  15.640  40.080
 1606BOLB   GL138523  16.720  15.500  40.410
 1606BOLB   GL238524  16.520  15.730  40.360
 1606BOLB   C1A38525  16.750  15.120  40.660
 1606BOLB   C2A38526  16.490  14.880  40.900
 1606BOLB   C3A38527  16.090  14.910  41.210
 1606BOLB   C4A38528  15.890  14.960  41.620
 1606BOLB   C1B38529  16.080  15.470  40.430
 1606BOLB   C2B38530  15.580  15.370  40.380
 1606BOLB   C3B38531  15.190  15.170  40.280
 1606BOLB   C4B38532  14.840  15.020  40.470
 1606BOLB   NC238533  14.390  14.450  43.300
 1606BOLB   PO238534  14.760  14.270  43.020
 1606BOLB   GL338535  14.840  14.240  42.680
 1606BOLB   GL438536  14.770  13.990  42.470
 1606BOLB   C1C38537  15.180  14.240  42.470
 1606BOLB   C2C38538  15.540  14.300  42.550
 1606BOLB   C3C38539  15.870  14.540  42.330
 1606BOLB   C4C38540  15.970  14.660  41.840
 1606BOLB   C1D38541  15.030  14.090  42.040
 1606BOLB   C2D38542  15.240  14.520  42.000
 1606BOLB   C3D38543  15.480  14.970  41.820
 1606BOLB   C4D38544  15.760  15.300  41.930
 1607BOLB   NC138545  26.965   8.610  37.480
 1607BOLB   PO138546  27.125   8.410  37.060
 1607BOLB   GL138547  27.375   8.080  37.260
 1607BOLB   GL238548  27.685   7.830  37.120
 1607BOLB   C1A38549  27.195   8.060  37.670
 1607BOLB   C2A38550  27.065   7.740  37.870
 1607BOLB   C3A38551  27.005   7.310  37.750
 1607BOLB   C4A38552  27.415   7.130  37.740
 1607BOLB   C1B38553  27.805   7.500  37.350
 1607BOLB   C2B38554  27.875   7.330  37.740
 1607BOLB   C3B38555  27.875   7.060  38.110
 1607BOLB   C4B38556  27.755   6.670  38.230
 1607BOLB   NC238557  28.195   4.670  37.550
 1607BOLB   PO238558  28.565   4.820  37.640
 1607BOLB   GL338559  28.675   5.250  37.580
 1607BOLB   GL438560  28.875   5.490  37.360
 1607BOLB   C1C38561  28.595   5.700  37.750
 1607BOLB   C2C38562  28.275   6.050  37.930
 1607BOLB   C3C38563  27.955   6.430  37.880
 1607BOLB   C4C38564  27.735   6.810  37.720
 1607BOLB   C1D38565  28.755   5.850  37.270
 1607BOLB   C2D38566  28.635   6.160  36.980
 1607BOLB   C3D38567  28.125   6.180  36.860
 1607BOLB   C4D38568  27.795   6.340  36.750
 1608BOLB   NC138569  20.380   9.210  31.710
 1608BOLB   PO138570  20.030   9.350  31.420
 1608BOLB   GL138571  19.920   9.030  31.600
 1608BOLB   GL238572  20.150   8.800  31.550
 1608BOLB   C1A38573  19.460   8.900  31.580
 1608BOLB   C2A38574  19.070   8.970  31.640
 1608BOLB   C3A38575  18.910   8.610  31.680
 1608BOLB   C4A38576  18.560   8.280  31.920
 1608BOLB   C1B38577  19.830   8.420  31.650
 1608BOLB   C2B38578  19.380   8.140  31.860
 1608BOLB   C3B38579  19.000   8.120  31.650
 1608BOLB   C4B38580  18.620   7.800  31.720
 1608BOLB   NC238581  17.110   6.000  31.930
 1608BOLB   PO238582  17.070   6.360  32.120
 1608BOLB   GL338583  17.270   6.750  32.200
 1608BOLB   GL438584  17.070   6.890  32.050
 1608BOLB   C1C38585  17.700   6.950  32.210
 1608BOLB   C2C38586  17.970   7.250  32.350
 1608BOLB   C3C38587  18.230   7.600  32.130
 1608BOLB   C4C38588  18.320   8.020  32.060
 1608BOLB   C1D38589  17.250   7.170  31.810
 1608BOLB   C2D38590  17.650   7.310  31.620
 1608BOLB   C3D38591  18.000   7.440  31.580
 1608BOLB   C4D38592  18.270   7.720  31.330
 1609BOLB   NC138593  17.600  20.530  40.410
 1609BOLB   PO138594  17.360  20.240  40.410
 1609BOLB   GL138595  17.190  20.380  40.770
 1609BOLB   GL238596  17.280  20.320  41.000
 1609BOLB   C1A38597  16.800  20.650  40.770
 1609BOLB   C2A38598  16.470  20.790  41.020
 1609BOLB   C3A38599  16.430  21.010  41.390
 1609BOLB   C4A38600  16.210  20.990  41.770
 1609BOLB   C1B38601  16.920  20.570  41.240
 1609BOLB   C2B38602  16.700  20.740  41.730
 1609BOLB   C3B38603  16.890  20.890  42.050
 1609BOLB   C4B38604  17.240  21.110  42.190
 1609BOLB   NC238605  14.720  22.150  43.700
 1609BOLB   PO238606  15.160  22.090  43.550
 1609BOLB   GL338607  15.070  21.850  43.240
 1609BOLB   GL438608  14.970  22.090  42.980
 1609BOLB   C1C38609  15.210  21.490  42.960
 1609BOLB   C2C38610  15.390  21.150  42.790
 1609BOLB   C3C38611  15.680  20.880  42.590
 1609BOLB   C4C38612  15.980  20.850  42.180
 1609BOLB   C1D38613  15.110  22.420  42.680
 1609BOLB   C2D38614  15.300  22.390  42.330
 1609BOLB   C3D38615  15.550  22.230  42.090
 1609BOLB   C4D38616  15.670  21.900  41.900
 1610BOLB   NC138617  17.290  13.910  39.510
 1610BOLB   PO138618  17.090  14.100  39.230
 1610BOLB   GL138619  16.800  13.690  39.620
 1610BOLB   GL238620  17.010  13.380  39.620
 1610BOLB   C1A38621  16.390  13.760  39.810
 1610BOLB   C2A38622  16.100  13.470  39.870
 1610BOLB   C3A38623  15.770  13.370  39.730
 1610BOLB   C4A38624  15.350  13.220  39.740
 1610BOLB   C1B38625  16.570  13.320  39.890
 1610BOLB   C2B38626  16.370  13.580  40.300
 1610BOLB   C3B38627  16.060  13.570  40.430
 1610BOLB   C4B38628  15.950  13.640  40.920
 1610BOLB   NC238629  12.890  13.460  41.110
 1610BOLB   PO238630  13.300  13.260  41.230
 1610BOLB   GL338631  13.630  13.140  41.070
 1610BOLB   GL438632  13.710  13.490  40.950
 1610BOLB   C1C38633  13.900  13.130  40.760
 1610BOLB   C2C38634  14.370  13.330  40.620
 1610BOLB   C3C38635  14.810  13.210  40.470
 1610BOLB   C4C38636  15.120  13.290  40.050
 1610BOLB   C1D38637  13.720  13.870  41.060
 1610BOLB   C2D38638  13.460  14.300  41.000
 1610BOLB   C3D38639  13.220  14.520  40.800
 1610BOLB   C4D38640  13.200  14.860  40.450
 1611BOLB   NC138641  23.350  15.220  43.340
 1611BOLB   PO138642  23.480  15.620  43.230
 1611BOLB   GL138643  23.530  15.650  43.650
 1611BOLB   GL238644  23.370  15.430  43.930
 1611BOLB   C1A38645  23.940  15.600  43.920
 1611BOLB   C2A38646  24.180  15.690  44.250
 1611BOLB   C3A38647  24.310  15.740  44.770
 1611BOLB   C4A38648  24.670  15.620  45.050
 1611BOLB   C1B38649  23.470  15.410  44.400
 1611BOLB   C2B38650  23.430  15.270  44.850
 1611BOLB   C3B38651  23.320  15.120  45.270
 1611BOLB   C4B38652  23.340  15.090  45.650
 1611BOLB   NC238653  25.360  15.160  47.360
 1611BOLB   PO238654  25.640  14.910  47.140
 1611BOLB   GL338655  25.250  15.000  46.750
 1611BOLB   GL438656  25.410  15.230  46.490
 1611BOLB   C1C38657  25.080  14.850  46.430
 1611BOLB   C2C38658  24.990  14.880  45.970
 1611BOLB   C3C38659  25.210  15.160  45.680
 1611BOLB   C4C38660  25.060  15.320  45.220
 1611BOLB   C1D38661  25.540  15.470  46.220
 1611BOLB   C2D38662  25.620  15.710  46.010
 1611BOLB   C3D38663  25.310  15.700  45.740
 1611BOLB   C4D38664  24.890  15.910  45.370
 1612BOLB   NC138665  25.410  11.890  23.560
 1612BOLB   PO138666  25.310  12.040  23.190
 1612BOLB   GL138667  25.300  11.590  23.010
 1612BOLB   GL238668  25.400  11.310  23.130
 1612BOLB   C1A38669  25.180  11.460  22.400
 1612BOLB   C2A38670  25.080  11.270  22.030
 1612BOLB   C3A38671  25.070  10.960  21.740
 1612BOLB   C4A38672  25.140  10.760  21.330
 1612BOLB   C1B38673  25.580  11.200  22.820
 1612BOLB   C2B38674  25.570  11.000  22.420
 1612BOLB   C3B38675  25.570  10.780  22.020
 1612BOLB   C4B38676  25.710  10.580  21.750
 1612BOLB   NC238677  24.640   8.580  19.580
 1612BOLB   PO238678  24.550   8.920  19.830
 1612BOLB   GL338679  24.490   9.220  20.190
 1612BOLB   GL438680  24.790   9.370  20.200
 1612BOLB   C1C38681  24.420   9.640  20.350
 1612BOLB   C2C38682  24.490   9.790  20.680
 1612BOLB   C3C38683  24.720  10.110  20.880
 1612BOLB   C4C38684  24.980  10.440  21.040
 1612BOLB   C1D38685  24.880   9.530  20.660
 1612BOLB   C2D38686  24.600   9.480  21.070
 1612BOLB   C3D38687  24.580   9.670  21.450
 1612BOLB   C4D38688  24.530   9.930  21.770
 1613BOLB   NC138689  13.890  21.040  34.990
 1613BOLB   PO138690  13.950  21.480  35.030
 1613BOLB   GL138691  13.520  21.510  35.140
 1613BOLB   GL238692  13.310  21.350  35.210
 1613BOLB   C1A38693  13.320  21.920  35.160
 1613BOLB   C2A38694  13.120  22.230  35.300
 1613BOLB   C3A38695  12.630  22.280  35.450
 1613BOLB   C4A38696  12.200  22.550  35.460
 1613BOLB   C1B38697  12.890  21.200  35.170
 1613BOLB   C2B38698  12.600  21.180  35.390
 1613BOLB   C3B38699  12.320  21.290  35.750
 1613BOLB   C4B38700  11.990  21.270  36.130
 1613BOLB   NC238701   9.770  24.150  34.760
 1613BOLB   PO238702  10.170  23.940  34.650
 1613BOLB   GL338703  10.600  23.880  34.760
 1613BOLB   GL438704  10.750  24.040  34.610
 1613BOLB   C1C38705  10.880  23.460  34.840
 1613BOLB   C2C38706  11.220  23.140  34.990
 1613BOLB   C3C38707  11.580  23.160  35.150
 1613BOLB   C4C38708  11.770  22.790  35.350
 1613BOLB   C1D38709  11.130  23.830  34.630
 1613BOLB   C2D38710  11.480  23.490  34.690
 1613BOLB   C3D38711  11.900  23.180  34.730
 1613BOLB   C4D38712  12.170  23.120  34.390
 1614BOLB   NC138713  14.630  20.210  36.990
 1614BOLB   PO138714  14.980  20.390  37.240
 1614BOLB   GL138715  14.540  20.420  37.480
 1614BOLB   GL238716  14.410  20.190  37.620
 1614BOLB   C1A38717  14.240  20.630  37.800
 1614BOLB   C2A38718  13.870  20.410  37.930
 1614BOLB   C3A38719  13.480  20.340  38.110
 1614BOLB   C4A38720  13.040  20.200  38.140
 1614BOLB   C1B38721  14.200  20.050  37.950
 1614BOLB   C2B38722  14.210  19.920  38.240
 1614BOLB   C3B38723  13.960  19.680  38.530
 1614BOLB   C4B38724  13.500  19.640  38.640
 1614BOLB   NC238725  10.140  19.990  38.670
 1614BOLB   PO238726  10.480  19.790  38.790
 1614BOLB   GL338727  10.850  19.900  38.460
 1614BOLB   GL438728  10.880  19.870  38.060
 1614BOLB   C1C38729  11.300  20.060  38.310
 1614BOLB   C2C38730  11.620  20.050  38.120
 1614BOLB   C3C38731  12.080  20.110  38.110
 1614BOLB   C4C38732  12.560  20.290  38.060
 1614BOLB   C1D38733  11.250  19.890  37.740
 1614BOLB   C2D38734  11.460  19.900  37.360
 1614BOLB   C3D38735  11.400  20.150  37.030
 1614BOLB   C4D38736  11.160  20.410  36.660
 1615BOLB   NC138737  17.100  24.200  27.440
 1615BOLB   PO138738  16.760  24.040  27.300
 1615BOLB   GL138739  16.700  24.430  27.280
 1615BOLB   GL238740  16.860  24.680  27.490
 1615BOLB   C1A38741  16.380  24.760  27.160
 1615BOLB   C2A38742  16.190  25.090  26.920
 1615BOLB   C3A38743  16.240  25.410  26.620
 1615BOLB   C4A38744  16.190  25.510  26.230
 1615BOLB   C1B38745  16.810  24.960  27.200
 1615BOLB   C2B38746  16.880  25.380  27.200
 1615BOLB   C3B38747  17.060  25.790  27.330
 1615BOLB   C4B38748  17.420  26.090  27.340
 1615BOLB   NC238749  14.940   0.820  25.210
 1615BOLB   PO238750  14.620   0.610  25.310
 1615BOLB   GL338751  14.910   0.300  25.380
 1615BOLB   GL438752  15.200   0.410  25.500
 1615BOLB   C1C38753  15.120  26.360  25.380
 1615BOLB   C2C38754  15.440  26.060  25.550
 1615BOLB   C3C38755  15.900  25.830  25.540
 1615BOLB   C4C38756  16.180  25.590  25.800
 1615BOLB   C1D38757  15.470   0.160  25.810
 1615BOLB   C2D38758  15.870  26.380  25.990
 1615BOLB   C3D38759  16.070  26.030  26.110
 1615BOLB   C4D38760  15.910  25.840  26.500
 1616BOLB   NC138761  13.840   9.420  27.290
 1616BOLB   PO138762  14.000   9.820  27.130
 1616BOLB   GL138763  14.380   9.930  27.020
 1616BOLB   GL238764  14.630   9.770  26.970
 1616BOLB   C1A38765  14.680  10.190  27.200
 1616BOLB   C2A38766  14.850  10.530  27.510
 1616BOLB   C3A38767  14.870  10.860  27.800
 1616BOLB   C4A38768  14.870  11.040  28.230
 1616BOLB   C1B38769  15.070   9.900  26.980
 1616BOLB   C2B38770  15.510   9.780  27.190
 1616BOLB   C3B38771  15.910   9.500  27.060
 1616BOLB   C4B38772  16.320   9.780  26.980
 1616BOLB   NC238773  12.760  10.870  27.950
 1616BOLB   PO238774  12.930  10.740  28.260
 1616BOLB   GL338775  13.100  11.270  28.190
 1616BOLB   GL438776  13.040  11.490  28.510
 1616BOLB   C1C38777  13.540  11.370  28.320
 1616BOLB   C2C38778  13.950  11.200  28.540
 1616BOLB   C3C38779  14.290  11.260  28.740
 1616BOLB   C4C38780  14.670  11.140  28.550
 1616BOLB   C1D38781  13.440  11.690  28.780
 1616BOLB   C2D38782  13.660  12.010  29.020
 1616BOLB   C3D38783  13.820  12.400  29.310
 1616BOLB   C4D38784  14.090  12.560  29.530
 1617BOLB   NC138785  27.425  16.790  30.570
 1617BOLB   PO138786  27.505  16.670  31.110
 1617BOLB   GL138787  27.525  17.050  30.970
 1617BOLB   GL238788  27.875  17.060  30.830
 1617BOLB   C1A38789  27.555  17.500  30.880
 1617BOLB   C2A38790  27.895  17.840  30.940
 1617BOLB   C3A38791  28.075  18.210  30.940
 1617BOLB   C4A38792  28.195  18.520  30.750
 1617BOLB   C1B38793  28.005  17.440  30.730
 1617BOLB   C2B38794  28.375  17.720  30.800
 1617BOLB   C3B38795  28.745  17.850  30.750
 1617BOLB   C4B38796  29.015  18.020  30.510
 1617BOLB   NC238797  28.765  21.090  30.750
 1617BOLB   PO238798  28.375  21.000  30.690
 1617BOLB   GL338799  28.315  20.590  30.900
 1617BOLB   GL438800  28.135  20.590  31.150
 1617BOLB   C1C38801  28.195  20.150  30.790
 1617BOLB   C2C38802  27.955  19.760  30.950
 1617BOLB   C3C38803  27.935  19.300  31.010
 1617BOLB   C4C38804  28.105  18.940  30.880
 1617BOLB   C1D38805  27.625  20.420  31.390
 1617BOLB   C2D38806  27.275  20.320  31.590
 1617BOLB   C3D38807  26.855  20.040  31.610
 1617BOLB   C4D38808  26.515  19.800  31.500
 1618BOLB   NC138809  20.510  23.810  33.320
 1618BOLB   PO138810  20.510  23.910  33.730
 1618BOLB   GL138811  20.740  24.280  33.700
 1618BOLB   GL238812  21.010  24.460  33.800
 1618BOLB   C1A38813  20.620  24.700  33.770
 1618BOLB   C2A38814  20.690  25.100  33.640
 1618BOLB   C3A38815  20.740  25.580  33.740
 1618BOLB   C4A38816  20.610  25.950  33.470
 1618BOLB   C1B38817  21.120  24.830  33.500
 1618BOLB   C2B38818  21.160  25.170  33.680
 1618BOLB   C3B38819  21.310  25.580  33.840
 1618BOLB   C4B38820  21.520  26.010  33.720
 1618BOLB   NC238821  20.650   2.180  33.560
 1618BOLB   PO238822  20.390   2.200  33.950
 1618BOLB   GL338823  20.350   1.750  33.950
 1618BOLB   GL438824  20.010   1.510  34.260
 1618BOLB   C1C38825  20.370   1.310  33.980
 1618BOLB   C2C38826  20.320   0.820  33.850
 1618BOLB   C3C38827  20.240   0.370  33.570
 1618BOLB   C4C38828  20.370  26.360  33.430
 1618BOLB   C1D38829  20.020   1.100  34.280
 1618BOLB   C2D38830  19.860   0.740  34.050
 1618BOLB   C3D38831  19.470   0.850  33.800
 1618BOLB   C4D38832  19.390   0.880  33.420
 1619BOLB   NC138833  27.375  10.610  37.950
 1619BOLB   PO138834  27.335  10.260  38.380
 1619BOLB   GL138835  27.495   9.870  38.690
 1619BOLB   GL238836  27.175   9.800  38.860
 1619BOLB   C1A38837  27.835   9.620  38.780
 1619BOLB   C2A38838  28.015   9.490  39.150
 1619BOLB   C3A38839  28.005   9.060  39.410
 1619BOLB   C4A38840  28.225   8.810  39.640
 1619BOLB   C1B38841  27.455   9.470  39.120
 1619BOLB   C2B38842  27.515   8.970  39.140
 1619BOLB   C3B38843  27.775   8.570  39.380
 1619BOLB   C4B38844  28.115   8.370  39.290
 1619BOLB   NC238845  29.725   7.290  40.980
 1619BOLB   PO238846  29.345   7.120  40.740
 1619BOLB   GL338847  29.255   7.430  40.740
 1619BOLB   GL438848  28.955   7.460  40.800
 1619BOLB   C1C38849  29.125   7.890  40.660
 1619BOLB   C2C38850  28.905   8.040  40.220
 1619BOLB   C3C38851  28.545   8.130  39.890
 1619BOLB   C4C38852  28.425   8.610  39.750
 1619BOLB   C1D38853  28.715   7.510  40.450
 1619BOLB   C2D38854  28.475   7.700  40.170
 1619BOLB   C3D38855  28.145   7.770  39.990
 1619BOLB   C4D38856  27.765   7.840  39.570
 1620BOLB   NC138857  21.800   8.910  32.250
 1620BOLB   PO138858  21.930   8.430  32.580
 1620BOLB   GL138859  21.840   7.980  32.590
 1620BOLB   GL238860  21.550   8.000  32.760
 1620BOLB   C1A38861  21.930   7.550  32.650
 1620BOLB   C2A38862  21.850   7.190  32.810
 1620BOLB   C3A38863  21.830   6.790  32.790
 1620BOLB   C4A38864  21.700   6.380  32.940
 1620BOLB   C1B38865  21.310   7.630  32.760
 1620BOLB   C2B38866  20.910   7.530  32.950
 1620BOLB   C3B38867  20.610   7.650  33.230
 1620BOLB   C4B38868  20.270   7.470  33.240
 1620BOLB   NC238869  20.060   4.170  32.640
 1620BOLB   PO238870  19.950   4.600  32.620
 1620BOLB   GL338871  20.130   5.010  32.650
 1620BOLB   GL438872  19.970   5.290  32.510
 1620BOLB   C1C38873  20.540   5.340  32.650
 1620BOLB   C2C38874  20.770   5.680  32.750
 1620BOLB   C3C38875  21.150   5.680  32.900
 1620BOLB   C4C38876  21.360   6.070  33.080
 1620BOLB   C1D38877  20.270   5.720  32.660
 1620BOLB   C2D38878  20.410   6.160  32.660
 1620BOLB   C3D38879  20.610   6.550  32.680
 1620BOLB   C4D38880  20.930   6.750  32.500
 1621BOLB   NC138881  16.710  23.620  29.130
 1621BOLB   PO138882  16.450  24.050  29.120
 1621BOLB   GL138883  16.600  24.440  29.100
 1621BOLB   GL238884  16.920  24.590  29.190
 1621BOLB   C1A38885  16.360  24.830  29.190
 1621BOLB   C2A38886  16.350  25.200  29.450
 1621BOLB   C3A38887  16.490  25.690  29.430
 1621BOLB   C4A38888  16.160  26.020  29.250
 1621BOLB   C1B38889  16.800  24.940  29.260
 1621BOLB   C2B38890  16.780  25.360  29.200
 1621BOLB   C3B38891  16.800  25.760  29.020
 1621BOLB   C4B38892  16.570  26.060  28.820
 1621BOLB   NC238893  15.640   1.980  28.110
 1621BOLB   PO238894  15.570   1.590  28.260
 1621BOLB   GL338895  15.560   1.300  28.400
 1621BOLB   GL438896  15.890   1.100  28.370
 1621BOLB   C1C38897  15.520   0.890  28.620
 1621BOLB   C2C38898  15.830   0.600  28.480
 1621BOLB   C3C38899  16.020   0.210  28.660
 1621BOLB   C4C38900  16.070  26.300  28.990
 1621BOLB   C1D38901  16.160   0.950  28.670
 1621BOLB   C2D38902  16.460   0.560  28.560
 1621BOLB   C3D38903  16.570   0.150  28.750
 1621BOLB   C4D38904  16.420  26.310  28.450
 1622BOLB   NC138905  21.240  24.020  35.090
 1622BOLB   PO138906  21.300  23.950  35.490
 1622BOLB   GL138907  21.450  24.370  35.500
 1622BOLB   GL238908  21.590  24.430  35.760
 1622BOLB   C1A38909  21.400  24.830  35.460
 1622BOLB   C2A38910  21.370  25.240  35.390
 1622BOLB   C3A38911  21.220  25.590  35.170
 1622BOLB   C4A38912  21.430  26.040  35.190
 1622BOLB   C1B38913  21.840  24.800  35.840
 1622BOLB   C2B38914  21.950  25.200  35.970
 1622BOLB   C3B38915  21.720  25.640  35.910
 1622BOLB   C4B38916  21.790  25.870  35.500
 1622BOLB   NC238917  21.380   1.790  34.980
 1622BOLB   PO238918  21.570   1.820  34.620
 1622BOLB   GL338919  21.790   1.480  34.780
 1622BOLB   GL438920  21.770   1.510  35.180
 1622BOLB   C1C38921  21.840   1.100  34.900
 1622BOLB   C2C38922  21.700   0.670  34.820
 1622BOLB   C3C38923  21.600   0.310  35.010
 1622BOLB   C4C38924  21.340  26.430  35.020
 1622BOLB   C1D38925  21.800   1.360  35.550
 1622BOLB   C2D38926  21.590   1.000  35.730
 1622BOLB   C3D38927  21.570   0.660  35.740
 1622BOLB   C4D38928  21.210   0.300  35.830
 1623BOLB   NC138929  22.870  17.750  43.430
 1623BOLB   PO138930  23.190  17.850  43.490
 1623BOLB   GL138931  23.030  17.750  43.900
 1623BOLB   GL238932  22.900  17.450  43.830
 1623BOLB   C1A38933  23.130  17.590  44.270
 1623BOLB   C2A38934  23.400  17.690  44.610
 1623BOLB   C3A38935  23.830  17.730  44.750
 1623BOLB   C4A38936  23.890  17.610  45.200
 1623BOLB   C1B38937  22.670  17.710  44.270
 1623BOLB   C2B38938  22.670  17.580  44.650
 1623BOLB   C3B38939  22.530  17.130  44.890
 1623BOLB   C4B38940  22.620  16.760  44.640
 1623BOLB   NC238941  23.770  17.050  47.460
 1623BOLB   PO238942  24.300  17.110  47.370
 1623BOLB   GL338943  24.280  17.180  46.990
 1623BOLB   GL438944  23.990  17.140  46.980
 1623BOLB   C1C38945  24.450  17.560  46.740
 1623BOLB   C2C38946  24.600  17.540  46.370
 1623BOLB   C3C38947  24.470  17.490  45.980
 1623BOLB   C4C38948  24.140  17.580  45.620
 1623BOLB   C1D38949  24.100  16.740  46.630
 1623BOLB   C2D38950  24.030  16.830  46.230
 1623BOLB   C3D38951  24.220  16.880  45.810
 1623BOLB   C4D38952  24.260  17.060  45.510
 1624BOLB   NC138953  26.845  17.890  35.650
 1624BOLB   PO138954  26.775  18.200  35.890
 1624BOLB   GL138955  27.245  18.440  35.780
 1624BOLB   GL238956  27.325  18.480  36.200
 1624BOLB   C1A38957  27.595  18.320  35.570
 1624BOLB   C2A38958  28.085  18.580  35.550
 1624BOLB   C3A38959  28.435  18.650  35.470
 1624BOLB   C4A38960  28.745  18.830  35.560
 1624BOLB   C1B38961  27.525  18.900  36.130
 1624BOLB   C2B38962  27.825  19.220  36.000
 1624BOLB   C3B38963  27.995  19.540  35.860
 1624BOLB   C4B38964  28.455  19.650  35.970
 1624BOLB   NC238965  30.425  20.300  36.360
 1624BOLB   PO238966  30.745  19.950  36.300
 1624BOLB   GL338967  30.435  19.720  36.180
 1624BOLB   GL438968  30.425  19.530  35.960
 1624BOLB   C1C38969  29.965  19.630  36.010
 1624BOLB   C2C38970  29.735  19.290  35.980
 1624BOLB   C3C38971  29.435  19.140  35.920
 1624BOLB   C4C38972  29.035  19.100  35.690
 1624BOLB   C1D38973  30.175  19.450  35.600
 1624BOLB   C2D38974  29.945  19.370  35.220
 1624BOLB   C3D38975  29.685  19.110  35.210
 1624BOLB   C4D38976  29.405  18.740  35.250
 1625BOLB   NC138977  24.260  18.650  41.770
 1625BOLB   PO138978  24.470  18.720  42.240
 1625BOLB   GL138979  24.860  19.010  42.250
 1625BOLB   GL238980  25.150  18.970  42.140
 1625BOLB   C1A38981  25.180  19.210  42.550
 1625BOLB   C2A38982  25.380  19.230  42.930
 1625BOLB   C3A38983  25.530  19.630  43.180
 1625BOLB   C4A38984  25.560  19.970  43.440
 1625BOLB   C1B38985  25.550  19.030  42.200
 1625BOLB   C2B38986  25.910  19.340  42.230
 1625BOLB   C3B38987  26.320  19.310  42.400
 1625BOLB   C4B38988  26.575  19.240  42.860
 1625BOLB   NC238989  26.975  21.960  44.350
 1625BOLB   PO238990  26.575  21.770  44.450
 1625BOLB   GL338991  26.310  21.710  44.280
 1625BOLB   GL438992  25.940  21.740  44.360
 1625BOLB   C1C38993  26.380  21.220  44.080
 1625BOLB   C2C38994  26.160  20.830  44.070
 1625BOLB   C3C38995  26.090  20.520  43.770
 1625BOLB   C4C38996  25.880  20.300  43.550
 1625BOLB   C1D38997  25.550  21.440  44.230
 1625BOLB   C2D38998  25.220  21.420  44.050
 1625BOLB   C3D38999  24.930  21.170  43.840
 1625BOLB   C4D39000  24.650  20.900  43.620
 1626BOLB   NC139001  24.050   7.290  31.500
 1626BOLB   PO139002  24.180   7.470  31.940
 1626BOLB   GL139003  24.290   7.130  31.920
 1626BOLB   GL239004  24.050   6.960  32.100
 1626BOLB   C1A39005  24.350   6.680  31.740
 1626BOLB   C2A39006  24.400   6.330  31.740
 1626BOLB   C3A39007  24.130   5.900  31.480
 1626BOLB   C4A39008  24.240   5.510  31.450
 1626BOLB   C1B39009  23.860   6.710  31.810
 1626BOLB   C2B39010  23.560   6.390  31.610
 1626BOLB   C3B39011  23.560   5.950  31.470
 1626BOLB   C4B39012  23.770   5.550  31.610
 1626BOLB   NC239013  23.950   3.410  30.520
 1626BOLB   PO239014  23.940   3.550  30.960
 1626BOLB   GL339015  23.600   3.770  31.160
 1626BOLB   GL439016  23.510   3.650  31.440
 1626BOLB   C1C39017  23.580   4.200  31.130
 1626BOLB   C2C39018  23.880   4.390  31.490
 1626BOLB   C3C39019  23.970   4.800  31.440
 1626BOLB   C4C39020  24.240   5.090  31.600
 1626BOLB   C1D39021  23.390   4.150  31.600
 1626BOLB   C2D39022  23.370   4.590  31.530
 1626BOLB   C3D39023  23.560   5.020  31.640
 1626BOLB   C4D39024  23.460   5.330  31.890
 1627BOLB   NC139025  25.920  16.010  41.900
 1627BOLB   PO139026  25.920  16.430  41.880
 1627BOLB   GL139027  26.190  16.710  42.100
 1627BOLB   GL239028  26.150  16.670  42.420
 1627BOLB   C1A39029  26.605  16.600  42.220
 1627BOLB   C2A39030  26.995  16.580  42.030
 1627BOLB   C3A39031  27.345  16.820  42.170
 1627BOLB   C4A39032  27.635  16.820  42.580
 1627BOLB   C1B39033  26.440  16.760  42.680
 1627BOLB   C2B39034  26.735  16.730  43.060
 1627BOLB   C3B39035  27.085  16.520  43.250
 1627BOLB   C4B39036  27.155  16.190  43.390
 1627BOLB   NC239037  28.885  18.370  44.340
 1627BOLB   PO239038  29.135  18.010  44.360
 1627BOLB   GL339039  28.805  17.970  44.020
 1627BOLB   GL439040  28.565  18.250  43.920
 1627BOLB   C1C39041  28.555  17.570  43.820
 1627BOLB   C2C39042  28.235  17.360  43.550
 1627BOLB   C3C39043  28.065  17.230  43.150
 1627BOLB   C4C39044  27.895  16.880  42.830
 1627BOLB   C1D39045  28.185  17.880  43.810
 1627BOLB   C2D39046  27.725  17.830  43.700
 1627BOLB   C3D39047  27.225  17.530  43.620
 1627BOLB   C4D39048  26.815  17.240  43.550
 1628BOLB   NC139049  14.100  11.090  39.990
 1628BOLB   PO139050  13.780  11.440  39.900
 1628BOLB   GL139051  14.100  11.550  39.640
 1628BOLB   GL239052  14.250  11.690  39.930
 1628BOLB   C1A39053  14.390  11.740  39.430
 1628BOLB   C2A39054  14.600  12.120  39.460
 1628BOLB   C3A39055  14.860  12.330  39.230
 1628BOLB   C4A39056  15.190  12.300  38.940
 1628BOLB   C1B39057  14.630  11.480  39.930
 1628BOLB   C2B39058  14.910  11.730  39.680
 1628BOLB   C3B39059  15.130  11.990  39.550
 1628BOLB   C4B39060  15.340  12.450  39.660
 1628BOLB   NC239061  16.270  14.160  38.430
 1628BOLB   PO239062  16.470  13.770  38.450
 1628BOLB   GL339063  16.080  13.640  38.420
 1628BOLB   GL439064  15.840  13.900  38.350
 1628BOLB   C1C39065  15.940  13.240  38.360
 1628BOLB   C2C39066  15.780  12.850  38.230
 1628BOLB   C3C39067  15.540  12.520  38.310
 1628BOLB   C4C39068  15.480  12.190  38.650
 1628BOLB   C1D39069  15.460  13.740  38.300
 1628BOLB   C2D39070  15.060  13.550  38.000
 1628BOLB   C3D39071  14.720  13.330  38.010
 1628BOLB   C4D39072  14.460  13.010  37.900
 1629BOLB   NC139073  15.830  16.770  24.700
 1629BOLB   PO139074  15.600  16.430  24.580
 1629BOLB   GL139075  15.330  16.320  24.170
 1629BOLB   GL239076  15.240  16.610  23.900
 1629BOLB   C1A39077  15.140  15.840  24.150
 1629BOLB   C2A39078  14.960  15.690  23.750
 1629BOLB   C3A39079  14.930  15.720  23.330
 1629BOLB   C4A39080  14.640  15.710  22.970
 1629BOLB   C1B39081  14.860  16.410  23.730
 1629BOLB   C2B39082  14.570  16.360  23.500
 1629BOLB   C3B39083  14.640  16.590  23.150
 1629BOLB   C4B39084  14.960  16.940  23.170
 1629BOLB   NC239085  14.240  14.140  21.040
 1629BOLB   PO239086  13.920  14.130  21.270
 1629BOLB   GL339087  13.930  14.440  21.570
 1629BOLB   GL439088  13.890  14.240  21.860
 1629BOLB   C1C39089  14.050  14.820  21.830
 1629BOLB   C2C39090  14.100  14.920  22.170
 1629BOLB   C3C39091  14.180  15.290  22.380
 1629BOLB   C4C39092  14.310  15.660  22.700
 1629BOLB   C1D39093  14.180  14.420  22.060
 1629BOLB   C2D39094  14.580  14.680  22.080
 1629BOLB   C3D39095  14.510  14.990  21.810
 1629BOLB   C4D39096  14.320  14.840  21.460
 1630BOLB   NC139097  17.270  17.450  40.670
 1630BOLB   PO139098  17.330  16.900  40.800
 1630BOLB   GL139099  16.810  16.730  40.960
 1630BOLB   GL239100  16.860  16.760  41.230
 1630BOLB   C1A39101  16.440  16.500  40.960
 1630BOLB   C2A39102  15.990  16.340  41.160
 1630BOLB   C3A39103  15.780  16.400  41.510
 1630BOLB   C4A39104  15.550  16.400  41.880
 1630BOLB   C1B39105  16.540  16.720  41.410
 1630BOLB   C2B39106  16.310  16.330  41.510
 1630BOLB   C3B39107  16.040  16.250  41.920
 1630BOLB   C4B39108  15.740  16.030  42.170
 1630BOLB   NC239109  14.290  17.520  43.810
 1630BOLB   PO239110  13.900  17.360  43.650
 1630BOLB   GL339111  14.230  17.290  43.360
 1630BOLB   GL439112  14.070  17.210  43.090
 1630BOLB   C1C39113  14.620  17.320  43.050
 1630BOLB   C2C39114  14.790  17.050  42.800
 1630BOLB   C3C39115  15.140  16.810  42.580
 1630BOLB   C4C39116  15.400  16.730  42.150
 1630BOLB   C1D39117  14.200  17.470  42.800
 1630BOLB   C2D39118  14.120  17.740  42.440
 1630BOLB   C3D39119  14.360  18.120  42.210
 1630BOLB   C4D39120  14.680  18.310  42.150
 1631BOLB   NC139121  29.355   9.300  33.330
 1631BOLB   PO139122  29.205   9.650  33.600
 1631BOLB   GL139123  29.545   9.590  33.760
 1631BOLB   GL239124  29.605   9.470  34.050
 1631BOLB   C1A39125  29.965   9.540  33.690
 1631BOLB   C2A39126  30.355   9.520  33.400
 1631BOLB   C3A39127  30.645   9.200  33.350
 1631BOLB   C4A39128  30.975   9.150  33.170
 1631BOLB   C1B39129  29.845   9.130  33.890
 1631BOLB   C2B39130  30.035   8.600  33.750
 1631BOLB   C3B39131  30.145   8.190  33.890
 1631BOLB   C4B39132  30.225   7.790  34.070
 1631BOLB   NC239133  33.305   7.920  33.420
 1631BOLB   PO239134  33.235   8.330  33.150
 1631BOLB   GL339135  32.715   8.330  33.120
 1631BOLB   GL439136  32.805   8.250  32.780
 1631BOLB   C1C39137  32.335   8.260  32.880
 1631BOLB   C2C39138  31.975   8.530  32.840
 1631BOLB   C3C39139  31.615   8.600  32.920
 1631BOLB   C4C39140  31.325   8.940  32.970
 1631BOLB   C1D39141  32.475   8.540  32.520
 1631BOLB   C2D39142  32.135   8.460  32.390
 1631BOLB   C3D39143  31.705   8.290  32.510
 1631BOLB   C4D39144  31.445   8.000  32.260
 1632BOLB   NC139145  21.030   1.650  27.280
 1632BOLB   PO139146  20.930   1.210  27.280
 1632BOLB   GL139147  21.150   0.800  27.510
 1632BOLB   GL239148  21.400   0.730  27.660
 1632BOLB   C1A39149  21.060   0.340  27.500
 1632BOLB   C2A39150  21.080   0.020  27.650
 1632BOLB   C3A39151  20.890  26.220  27.930
 1632BOLB   C4A39152  20.890  25.950  28.320
 1632BOLB   C1B39153  21.480   0.290  27.780
 1632BOLB   C2B39154  21.420  26.360  28.010
 1632BOLB   C3B39155  21.330  25.880  28.020
 1632BOLB   C4B39156  21.180  25.520  28.120
 1632BOLB   NC239157  20.000  23.600  28.590
 1632BOLB   PO239158  20.080  23.760  28.890
 1632BOLB   GL339159  20.460  24.140  28.920
 1632BOLB   GL439160  20.770  24.220  28.760
 1632BOLB   C1C39161  20.610  24.450  29.120
 1632BOLB   C2C39162  20.780  24.870  28.970
 1632BOLB   C3C39163  20.920  25.350  28.930
 1632BOLB   C4C39164  20.900  25.670  28.630
 1632BOLB   C1D39165  20.670  24.530  28.520
 1632BOLB   C2D39166  20.480  24.930  28.520
 1632BOLB   C3D39167  20.530  25.320  28.570
 1632BOLB   C4D39168  20.390  25.470  28.960
 1633BOLB   NC139169  13.780  20.470  28.310
 1633BOLB   PO139170  13.400  20.560  27.970
 1633BOLB   GL139171  12.970  20.560  27.690
 1633BOLB   GL239172  12.740  20.580  27.880
 1633BOLB   C1A39173  12.710  20.450  27.310
 1633BOLB   C2A39174  12.500  20.610  27.010
 1633BOLB   C3A39175  12.270  20.930  26.680
 1633BOLB   C4A39176  11.880  21.180  26.490
 1633BOLB   C1B39177  12.400  20.270  27.740
 1633BOLB   C2B39178  12.190  20.150  27.330
 1633BOLB   C3B39179  12.250  20.190  26.900
 1633BOLB   C4B39180  12.250  20.440  26.550
 1633BOLB   NC239181   9.780  20.160  26.060
 1633BOLB   PO239182   9.650  20.660  25.970
 1633BOLB   GL339183  10.010  20.700  25.680
 1633BOLB   GL439184  10.190  20.440  25.820
 1633BOLB   C1C39185  10.400  20.960  25.830
 1633BOLB   C2C39186  10.830  21.000  25.960
 1633BOLB   C3C39187  11.250  21.050  26.080
 1633BOLB   C4C39188  11.620  21.020  26.200
 1633BOLB   C1D39189  10.640  20.370  26.050
 1633BOLB   C2D39190  10.930  20.280  26.350
 1633BOLB   C3D39191  11.270  20.030  26.600
 1633BOLB   C4D39192  11.700  20.140  26.700
 1634BOLB   NC139193  22.250  13.010  42.320
 1634BOLB   PO139194  22.220  12.600  42.410
 1634BOLB   GL139195  22.630  12.290  42.450
 1634BOLB   GL239196  22.580  12.160  42.740
 1634BOLB   C1A39197  22.810  11.800  42.360
 1634BOLB   C2A39198  22.790  11.440  42.410
 1634BOLB   C3A39199  22.630  11.220  42.570
 1634BOLB   C4A39200  22.740  10.810  42.700
 1634BOLB   C1B39201  22.850  11.780  42.860
 1634BOLB   C2B39202  23.070  11.380  42.820
 1634BOLB   C3B39203  23.380  11.330  42.570
 1634BOLB   C4B39204  23.790  11.190  42.570
 1634BOLB   NC239205  21.740   9.020  44.120
 1634BOLB   PO239206  21.360   8.780  43.730
 1634BOLB   GL339207  21.480   9.170  43.660
 1634BOLB   GL439208  21.510   9.240  43.270
 1634BOLB   C1C39209  21.760   9.480  43.660
 1634BOLB   C2C39210  21.810   9.870  43.450
 1634BOLB   C3C39211  22.190  10.150  43.260
 1634BOLB   C4C39212  22.520  10.460  43.000
 1634BOLB   C1D39213  21.580   9.420  42.900
 1634BOLB   C2D39214  21.780   9.690  42.660
 1634BOLB   C3D39215  22.010   9.890  42.450
 1634BOLB   C4D39216  22.250  10.060  42.170
 1635BOLB   NC139217  15.310  18.230  24.340
 1635BOLB   PO139218  15.060  18.120  24.590
 1635BOLB   GL139219  14.840  17.890  24.470
 1635BOLB   GL239220  14.600  17.910  24.790
 1635BOLB   C1A39221  14.350  17.910  24.370
 1635BOLB   C2A39222  13.990  17.690  24.250
 1635BOLB   C3A39223  13.600  17.430  24.000
 1635BOLB   C4A39224  13.400  17.010  24.080
 1635BOLB   C1B39225  14.280  17.640  24.810
 1635BOLB   C2B39226  13.950  17.470  24.730
 1635BOLB   C3B39227  13.500  17.520  24.520
 1635BOLB   C4B39228  13.200  17.550  24.750
 1635BOLB   NC239229  11.510  16.420  23.740
 1635BOLB   PO239230  11.410  16.410  24.230
 1635BOLB   GL339231  11.810  16.440  24.240
 1635BOLB   GL439232  12.010  16.180  24.420
 1635BOLB   C1C39233  12.290  16.340  24.070
 1635BOLB   C2C39234  12.620  16.100  24.020
 1635BOLB   C3C39235  12.910  16.210  24.190
 1635BOLB   C4C39236  13.160  16.630  24.180
 1635BOLB   C1D39237  12.260  16.570  24.540
 1635BOLB   C2D39238  12.750  16.500  24.710
 1635BOLB   C3D39239  13.140  16.620  24.700
 1635BOLB   C4D39240  13.480  16.610  24.930
 1636BOLB   NC139241  23.780   7.440  33.580
 1636BOLB   PO139242  23.940   7.360  33.080
 1636BOLB   GL139243  23.950   6.970  33.380
 1636BOLB   GL239244  23.880   6.980  33.800
 1636BOLB   C1A39245  24.090   6.570  33.150
 1636BOLB   C2A39246  24.230   6.130  33.200
 1636BOLB   C3A39247  24.170   5.800  33.540
 1636BOLB   C4A39248  23.960   5.560  33.820
 1636BOLB   C1B39249  23.480   6.740  33.610
 1636BOLB   C2B39250  23.410   6.230  33.490
 1636BOLB   C3B39251  23.600   5.990  33.730
 1636BOLB   C4B39252  23.390   5.670  33.860
 1636BOLB   NC239253  24.140   3.070  35.090
 1636BOLB   PO239254  24.500   3.270  34.770
 1636BOLB   GL339255  24.440   3.680  34.640
 1636BOLB   GL439256  24.110   3.660  34.440
 1636BOLB   C1C39257  24.470   4.100  34.400
 1636BOLB   C2C39258  24.530   4.590  34.290
 1636BOLB   C3C39259  24.420   5.030  34.260
 1636BOLB   C4C39260  24.030   5.240  34.130
 1636BOLB   C1D39261  23.970   4.030  34.750
 1636BOLB   C2D39262  23.840   4.350  35.030
 1636BOLB   C3D39263  23.770   4.840  35.050
 1636BOLB   C4D39264  23.730   5.280  35.110
 1637BOLB   NC139265  21.360  23.460  32.760
 1637BOLB   PO139266  21.240  23.810  32.490
 1637BOLB   GL139267  21.630  24.140  32.540
 1637BOLB   GL239268  21.440  24.480  32.670
 1637BOLB   C1A39269  21.930  24.490  32.720
 1637BOLB   C2A39270  22.070  24.780  32.730
 1637BOLB   C3A39271  21.890  25.140  32.890
 1637BOLB   C4A39272  22.040  25.440  33.240
 1637BOLB   C1B39273  21.370  24.940  32.800
 1637BOLB   C2B39274  21.480  25.280  32.650
 1637BOLB   C3B39275  21.670  25.610  32.740
 1637BOLB   C4B39276  21.840  26.020  32.740
 1637BOLB   NC239277  23.440   1.040  33.320
 1637BOLB   PO239278  23.740   0.780  33.240
 1637BOLB   GL339279  23.570   0.270  33.280
 1637BOLB   GL439280  23.320   0.340  33.080
 1637BOLB   C1C39281  23.300  26.360  33.440
 1637BOLB   C2C39282  22.880  26.080  33.570
 1637BOLB   C3C39283  22.500  25.850  33.620
 1637BOLB   C4C39284  22.360  25.480  33.520
 1637BOLB   C1D39285  23.090  26.290  32.940
 1637BOLB   C2D39286  23.120  25.830  33.110
 1637BOLB   C3D39287  22.810  25.500  33.080
 1637BOLB   C4D39288  22.920  25.090  33.070
 1638BOLB   NC139289  20.790  13.860  42.640
 1638BOLB   PO139290  21.180  13.900  42.960
 1638BOLB   GL139291  21.040  13.920  43.300
 1638BOLB   GL239292  21.280  14.040  43.440
 1638BOLB   C1A39293  20.760  13.680  43.720
 1638BOLB   C2A39294  20.840  13.330  43.910
 1638BOLB   C3A39295  21.000  13.020  44.270
 1638BOLB   C4A39296  20.880  12.840  44.660
 1638BOLB   C1B39297  21.060  14.160  43.710
 1638BOLB   C2B39298  20.840  14.070  44.110
 1638BOLB   C3B39299  20.870  13.660  44.290
 1638BOLB   C4B39300  20.910  13.340  44.610
 1638BOLB   NC239301  20.460  11.390  46.720
 1638BOLB   PO239302  20.450  11.560  46.320
 1638BOLB   GL339303  20.240  11.860  45.960
 1638BOLB   GL439304  20.500  12.050  45.840
 1638BOLB   C1C39305  19.950  12.110  45.490
 1638BOLB   C2C39306  19.830  12.250  45.070
 1638BOLB   C3C39307  20.170  12.470  44.920
 1638BOLB   C4C39308  20.560  12.500  44.710
 1638BOLB   C1D39309  20.480  12.220  45.480
 1638BOLB   C2D39310  20.520  12.230  45.140
 1638BOLB   C3D39311  20.490  12.030  44.740
 1638BOLB   C4D39312  20.540  12.180  44.370
 1639BOLB   NC139313  13.540  21.660  33.390
 1639BOLB   PO139314  13.620  21.470  33.780
 1639BOLB   GL139315  13.170  21.560  33.760
 1639BOLB   GL239316  12.840  21.340  33.970
 1639BOLB   C1A39317  12.900  21.860  33.870
 1639BOLB   C2A39318  12.750  22.250  33.770
 1639BOLB   C3A39319  12.620  22.690  33.670
 1639BOLB   C4A39320  12.390  23.000  33.930
 1639BOLB   C1B39321  12.420  21.470  33.940
 1639BOLB   C2B39322  12.020  21.230  33.950
 1639BOLB   C3B39323  11.870  21.050  33.580
 1639BOLB   C4B39324  12.050  20.580  33.330
 1639BOLB   NC239325  10.560  24.480  34.510
 1639BOLB   PO239326  10.380  24.710  34.180
 1639BOLB   GL339327  10.570  24.380  33.950
 1639BOLB   GL439328  10.490  24.080  34.120
 1639BOLB   C1C39329  10.960  24.160  33.710
 1639BOLB   C2C39330  11.380  23.860  33.630
 1639BOLB   C3C39331  11.770  23.660  33.860
 1639BOLB   C4C39332  12.110  23.340  33.800
 1639BOLB   C1D39333  10.800  23.890  34.120
 1639BOLB   C2D39334  11.200  23.640  34.070
 1639BOLB   C3D39335  11.530  23.300  34.110
 1639BOLB   C4D39336  11.790  23.020  34.050
 1640BOLB   NC139337  13.620  20.540  34.610
 1640BOLB   PO139338  13.450  20.870  34.750
 1640BOLB   GL139339  13.190  21.120  34.760
 1640BOLB   GL239340  13.100  21.230  34.360
 1640BOLB   C1A39341  13.170  21.530  34.750
 1640BOLB   C2A39342  12.900  21.760  34.990
 1640BOLB   C3A39343  12.530  21.940  35.040
 1640BOLB   C4A39344  12.150  21.990  35.140
 1640BOLB   C1B39345  12.820  21.620  34.320
 1640BOLB   C2B39346  12.440  21.780  34.430
 1640BOLB   C3B39347  12.200  21.430  34.410
 1640BOLB   C4B39348  12.130  21.160  34.680
 1640BOLB   NC239349   9.760  23.300  35.130
 1640BOLB   PO239350  10.120  23.520  35.440
 1640BOLB   GL339351  10.570  23.390  35.320
 1640BOLB   GL439352  10.780  23.630  35.370
 1640BOLB   C1C39353  10.800  23.050  35.470
 1640BOLB   C2C39354  11.070  22.760  35.310
 1640BOLB   C3C39355  11.410  22.580  35.100
 1640BOLB   C4C39356  11.780  22.270  35.260
 1640BOLB   C1D39357  11.210  23.470  35.480
 1640BOLB   C2D39358  11.450  23.120  35.640
 1640BOLB   C3D39359  11.670  22.890  35.860
 1640BOLB   C4D39360  11.810  22.670  36.180
 1641BOLB   NC139361  26.805  17.300  28.230
 1641BOLB   PO139362  27.015  17.020  28.450
 1641BOLB   GL139363  27.285  17.390  28.260
 1641BOLB   GL239364  27.315  17.430  28.570
 1641BOLB   C1A39365  27.785  17.430  28.260
 1641BOLB   C2A39366  28.115  17.740  28.260
 1641BOLB   C3A39367  28.305  18.140  28.240
 1641BOLB   C4A39368  28.735  18.310  28.170
 1641BOLB   C1B39369  27.645  17.770  28.610
 1641BOLB   C2B39370  27.825  18.250  28.520
 1641BOLB   C3B39371  27.985  18.660  28.720
 1641BOLB   C4B39372  27.865  18.930  28.960
 1641BOLB   NC239373  30.555  18.650  26.830
 1641BOLB   PO239374  30.825  19.050  26.930
 1641BOLB   GL339375  30.485  18.780  27.310
 1641BOLB   GL439376  30.285  18.420  27.270
 1641BOLB   C1C39377  30.025  18.860  27.420
 1641BOLB   C2C39378  29.605  18.880  27.670
 1641BOLB   C3C39379  29.395  18.670  27.840
 1641BOLB   C4C39380  29.085  18.520  28.220
 1641BOLB   C1D39381  30.145  18.080  27.110
 1641BOLB   C2D39382  29.965  17.610  26.940
 1641BOLB   C3D39383  29.775  17.200  27.030
 1641BOLB   C4D39384  29.725  16.750  27.190
 1642BOLB   NC139385  22.090  21.210  24.300
 1642BOLB   PO139386  21.990  21.130  23.910
 1642BOLB   GL139387  22.250  21.400  23.760
 1642BOLB   GL239388  22.120  21.380  23.480
 1642BOLB   C1A39389  22.660  21.510  23.680
 1642BOLB   C2A39390  22.950  21.430  23.360
 1642BOLB   C3A39391  23.130  21.670  23.100
 1642BOLB   C4A39392  23.460  21.770  22.700
 1642BOLB   C1B39393  22.370  21.710  23.200
 1642BOLB   C2B39394  22.600  21.970  23.040
 1642BOLB   C3B39395  22.510  22.080  22.650
 1642BOLB   C4B39396  22.570  22.150  22.190
 1642BOLB   NC239397  25.850  21.860  21.390
 1642BOLB   PO239398  25.450  21.920  21.300
 1642BOLB   GL339399  25.090  21.910  21.460
 1642BOLB   GL439400  24.810  21.710  21.490
 1642BOLB   C1C39401  25.030  21.830  21.960
 1642BOLB   C2C39402  24.770  21.680  22.280
 1642BOLB   C3C39403  24.410  21.910  22.450
 1642BOLB   C4C39404  23.800  21.970  22.430
 1642BOLB   C1D39405  24.550  21.660  21.820
 1642BOLB   C2D39406  24.250  21.490  22.220
 1642BOLB   C3D39407  23.990  21.420  22.630
 1642BOLB   C4D39408  23.600  21.330  22.870
 1643BOLB   NC139409  21.230  23.820  31.200
 1643BOLB   PO139410  20.970  24.120  31.490
 1643BOLB   GL139411  21.310  24.290  31.270
 1643BOLB   GL239412  21.680  24.040  31.270
 1643BOLB   C1A39413  21.560  24.540  31.190
 1643BOLB   C2A39414  21.750  24.980  31.200
 1643BOLB   C3A39415  22.100  25.100  31.270
 1643BOLB   C4A39416  22.360  25.450  31.360
 1643BOLB   C1B39417  21.910  24.230  30.930
 1643BOLB   C2B39418  22.100  24.680  30.840
 1643BOLB   C3B39419  22.410  25.090  30.890
 1643BOLB   C4B39420  22.470  25.290  30.540
 1643BOLB   NC239421  24.690   0.690  31.820
 1643BOLB   PO239422  24.420   0.260  31.950
 1643BOLB   GL339423  24.120  26.290  32.020
 1643BOLB   GL439424  24.000  26.220  32.340
 1643BOLB   C1C39425  23.950  26.110  31.650
 1643BOLB   C2C39426  23.580  25.930  31.480
 1643BOLB   C3C39427  23.160  25.710  31.510
 1643BOLB   C4C39428  22.800  25.570  31.360
 1643BOLB   C1D39429  23.650  25.990  32.090
 1643BOLB   C2D39430  23.200  25.790  32.130
 1643BOLB   C3D39431  22.750  25.850  32.080
 1643BOLB   C4D39432  22.550  26.360  32.180
 1644BOLB   NC139433  19.270  21.280  22.460
 1644BOLB   PO139434  19.080  21.460  22.160
 1644BOLB   GL139435  18.950  21.510  21.810
 1644BOLB   GL239436  18.930  21.290  21.570
 1644BOLB   C1A39437  19.120  21.730  21.390
 1644BOLB   C2A39438  19.260  21.800  20.880
 1644BOLB   C3A39439  19.210  22.240  20.770
 1644BOLB   C4A39440  18.900  22.620  20.740
 1644BOLB   C1B39441  19.330  21.200  21.420
 1644BOLB   C2B39442  19.450  21.330  21.040
 1644BOLB   C3B39443  19.260  21.360  20.600
 1644BOLB   C4B39444  19.180  21.090  20.250
 1644BOLB   NC239445  20.370  23.910  18.990
 1644BOLB   PO239446  20.020  23.630  19.030
 1644BOLB   GL339447  19.860  23.470  19.450
 1644BOLB   GL439448  20.080  23.300  19.720
 1644BOLB   C1C39449  19.560  23.210  19.780
 1644BOLB   C2C39450  19.110  23.000  19.760
 1644BOLB   C3C39451  18.790  22.970  20.070
 1644BOLB   C4C39452  18.600  22.710  20.420
 1644BOLB   C1D39453  19.970  22.890  19.890
 1644BOLB   C2D39454  19.810  22.490  20.190
 1644BOLB   C3D39455  19.530  22.270  20.370
 1644BOLB   C4D39456  19.290  21.800  20.310
 1645BOLB   NC139457  10.640  21.800  23.750
 1645BOLB   PO139458  10.610  22.020  24.050
 1645BOLB   GL139459  10.900  21.920  24.310
 1645BOLB   GL239460  10.970  21.860  24.650
 1645BOLB   C1A39461  11.290  21.810  24.270
 1645BOLB   C2A39462  11.530  21.600  24.500
 1645BOLB   C3A39463  11.820  21.540  24.870
 1645BOLB   C4A39464  12.130  21.740  25.070
 1645BOLB   C1B39465  11.020  21.350  24.570
 1645BOLB   C2B39466  11.350  21.210  24.720
 1645BOLB   C3B39467  11.560  21.100  25.030
 1645BOLB   C4B39468  11.630  20.790  25.360
 1645BOLB   NC239469  14.370  20.110  25.830
 1645BOLB   PO239470  14.550  20.470  25.660
 1645BOLB   GL339471  14.210  20.560  25.500
 1645BOLB   GL439472  14.170  20.510  25.130
 1645BOLB   C1C39473  13.800  20.800  25.300
 1645BOLB   C2C39474  13.490  21.160  25.360
 1645BOLB   C3C39475  13.150  21.380  25.270
 1645BOLB   C4C39476  12.680  21.610  25.170
 1645BOLB   C1D39477  13.800  20.310  24.940
 1645BOLB   C2D39478  13.350  20.380  24.820
 1645BOLB   C3D39479  12.960  20.620  24.620
 1645BOLB   C4D39480  12.510  20.860  24.690
 1646BOLB   NC139481  24.660   7.760  35.410
 1646BOLB   PO139482  24.720   7.700  35.910
 1646BOLB   GL139483  24.470   7.370  35.720
 1646BOLB   GL239484  24.240   7.150  35.460
 1646BOLB   C1A39485  24.370   6.930  35.850
 1646BOLB   C2A39486  24.250   6.490  35.940
 1646BOLB   C3A39487  24.280   6.090  36.020
 1646BOLB   C4A39488  24.340   5.800  35.670
 1646BOLB   C1B39489  24.060   6.690  35.550
 1646BOLB   C2B39490  23.950   6.210  35.680
 1646BOLB   C3B39491  23.880   5.790  35.870
 1646BOLB   C4B39492  24.140   5.620  36.160
 1646BOLB   NC239493  25.660   3.040  35.120
 1646BOLB   PO239494  25.460   3.390  35.290
 1646BOLB   GL339495  25.310   3.850  35.130
 1646BOLB   GL439496  25.320   3.710  34.840
 1646BOLB   C1C39497  25.140   4.260  35.180
 1646BOLB   C2C39498  24.920   4.640  35.200
 1646BOLB   C3C39499  24.770   5.040  35.290
 1646BOLB   C4C39500  24.460   5.380  35.620
 1646BOLB   C1D39501  25.500   4.030  34.680
 1646BOLB   C2D39502  25.790   4.320  34.490
 1646BOLB   C3D39503  26.120   4.610  34.650
 1646BOLB   C4D39504  26.290   4.990  34.860
 1647BOLB   NC139505  19.430  12.700  40.000
 1647BOLB   PO139506  19.190  12.380  39.860
 1647BOLB   GL139507  18.900  12.080  40.000
 1647BOLB   GL239508  19.080  11.850  39.910
 1647BOLB   C1A39509  18.440  11.870  40.040
 1647BOLB   C2A39510  18.170  11.700  39.660
 1647BOLB   C3A39511  18.010  11.280  39.640
 1647BOLB   C4A39512  17.890  10.850  39.710
 1647BOLB   C1B39513  18.820  11.600  39.810
 1647BOLB   C2B39514  18.470  11.400  39.990
 1647BOLB   C3B39515  18.110  11.130  40.090
 1647BOLB   C4B39516  17.780  11.010  40.490
 1647BOLB   NC239517  16.650   8.820  40.630
 1647BOLB   PO239518  16.760   8.780  40.220
 1647BOLB   GL339519  17.000   9.100  40.260
 1647BOLB   GL439520  16.960   9.320  40.610
 1647BOLB   C1C39521  17.290   9.420  40.140
 1647BOLB   C2C39522  17.480   9.640  39.770
 1647BOLB   C3C39523  17.600   9.950  39.680
 1647BOLB   C4C39524  17.730  10.410  39.750
 1647BOLB   C1D39525  17.230   9.670  40.550
 1647BOLB   C2D39526  17.230   9.960  40.820
 1647BOLB   C3D39527  17.310  10.410  41.090
 1647BOLB   C4D39528  17.150  10.770  41.260
 1648BOLB   NC139529  24.060  20.180  27.520
 1648BOLB   PO139530  23.960  20.240  27.890
 1648BOLB   GL139531  24.340  20.460  27.910
 1648BOLB   GL239532  24.380  20.810  28.010
 1648BOLB   C1A39533  24.650  20.420  28.240
 1648BOLB   C2A39534  25.030  20.570  28.400
 1648BOLB   C3A39535  25.410  20.640  28.590
 1648BOLB   C4A39536  25.790  20.530  28.850
 1648BOLB   C1B39537  24.710  20.760  27.880
 1648BOLB   C2B39538  25.110  20.900  27.990
 1648BOLB   C3B39539  25.450  20.930  28.190
 1648BOLB   C4B39540  25.860  21.170  28.090
 1648BOLB   NC239541  27.055  21.820  29.900
 1648BOLB   PO239542  27.255  21.720  30.330
 1648BOLB   GL339543  26.925  21.470  30.200
 1648BOLB   GL439544  26.765  21.620  30.430
 1648BOLB   C1C39545  26.585  21.150  30.000
 1648BOLB   C2C39546  26.280  20.870  29.810
 1648BOLB   C3C39547  26.080  20.590  29.680
 1648BOLB   C4C39548  25.900  20.480  29.260
 1648BOLB   C1D39549  26.430  21.470  30.340
 1648BOLB   C2D39550  26.100  21.110  30.230
 1648BOLB   C3D39551  25.770  20.960  29.970
 1648BOLB   C4D39552  25.590  20.690  29.610
 1649BOLB   NC139553  29.805  13.970  34.630
 1649BOLB   PO139554  29.625  14.290  34.860
 1649BOLB   GL139555  29.965  14.610  35.070
 1649BOLB   GL239556  30.175  14.650  35.360
 1649BOLB   C1A39557  30.365  14.840  34.880
 1649BOLB   C2A39558  30.675  15.230  34.780
 1649BOLB   C3A39559  31.025  15.390  34.920
 1649BOLB   C4A39560  31.335  15.590  34.900
 1649BOLB   C1B39561  30.505  14.830  35.670
 1649BOLB   C2B39562  30.805  14.730  35.840
 1649BOLB   C3B39563  31.275  14.770  35.630
 1649BOLB   C4B39564  31.415  14.560  35.190
 1649BOLB   NC239565  34.045  15.970  34.090
 1649BOLB   PO239566  33.695  15.730  34.270
 1649BOLB   GL339567  33.275  15.830  34.140
 1649BOLB   GL439568  33.065  16.090  34.200
 1649BOLB   C1C39569  32.955  15.530  34.170
 1649BOLB   C2C39570  32.435  15.490  34.160
 1649BOLB   C3C39571  32.175  15.640  34.410
 1649BOLB   C4C39572  31.725  15.890  34.630
 1649BOLB   C1D39573  32.615  15.920  34.100
 1649BOLB   C2D39574  32.195  15.960  33.860
 1649BOLB   C3D39575  31.965  15.860  33.500
 1649BOLB   C4D39576  31.735  15.580  33.140
 1650BOLB   NC139577  17.480  11.180  36.000
 1650BOLB   PO139578  17.420  11.340  35.600
 1650BOLB   GL139579  17.180  10.900  35.660
 1650BOLB   GL239580  16.860  10.780  35.470
 1650BOLB   C1A39581  17.170  10.520  35.780
 1650BOLB   C2A39582  16.930  10.220  35.990
 1650BOLB   C3A39583  16.610   9.910  35.870
 1650BOLB   C4A39584  16.170   9.760  35.800
 1650BOLB   C1B39585  16.750  10.410  35.540
 1650BOLB   C2B39586  16.320  10.330  35.700
 1650BOLB   C3B39587  15.880  10.080  36.000
 1650BOLB   C4B39588  15.560   9.790  36.140
 1650BOLB   NC239589  14.330   7.960  37.020
 1650BOLB   PO239590  14.400   8.380  37.030
 1650BOLB   GL339591  14.690   8.750  37.060
 1650BOLB   GL439592  14.440   8.960  37.020
 1650BOLB   C1C39593  14.960   9.150  37.030
 1650BOLB   C2C39594  15.320   9.350  36.680
 1650BOLB   C3C39595  15.610   9.270  36.260
 1650BOLB   C4C39596  15.900   9.470  35.950
 1650BOLB   C1D39597  14.370   9.470  37.070
 1650BOLB   C2D39598  14.470   9.930  36.980
 1650BOLB   C3D39599  14.770  10.250  36.820
 1650BOLB   C4D39600  15.240  10.200  36.700
 1651BOLB   NC139601  22.490   8.930  29.050
 1651BOLB   PO139602  22.240   8.700  29.290
 1651BOLB   GL139603  22.130   8.240  29.230
 1651BOLB   GL239604  21.850   8.380  29.270
 1651BOLB   C1A39605  22.080   7.800  29.220
 1651BOLB   C2A39606  21.790   7.350  29.270
 1651BOLB   C3A39607  21.670   7.040  29.060
 1651BOLB   C4A39608  21.800   6.740  28.870
 1651BOLB   C1B39609  21.730   8.120  28.990
 1651BOLB   C2B39610  21.680   7.610  28.840
 1651BOLB   C3B39611  21.460   7.220  28.680
 1651BOLB   C4B39612  21.300   6.810  28.810
 1651BOLB   NC239613  21.540   4.250  28.190
 1651BOLB   PO239614  21.100   4.520  28.210
 1651BOLB   GL339615  21.430   4.760  28.310
 1651BOLB   GL439616  21.540   4.560  28.640
 1651BOLB   C1C39617  21.610   5.220  28.290
 1651BOLB   C2C39618  21.600   5.670  28.030
 1651BOLB   C3C39619  21.530   5.980  28.330
 1651BOLB   C4C39620  21.690   6.360  28.490
 1651BOLB   C1D39621  21.480   5.010  28.710
 1651BOLB   C2D39622  21.580   5.390  28.770
 1651BOLB   C3D39623  21.880   5.670  28.500
 1651BOLB   C4D39624  22.160   5.970  28.600
 1652BOLB   NC139625  20.060  10.350  30.670
 1652BOLB   PO139626  19.530  10.250  30.680
 1652BOLB   GL139627  19.250  10.030  30.390
 1652BOLB   GL239628  19.040   9.750  30.540
 1652BOLB   C1A39629  19.090   9.740  30.060
 1652BOLB   C2A39630  18.740   9.390  30.010
 1652BOLB   C3A39631  18.370   9.070  30.030
 1652BOLB   C4A39632  18.220   8.620  29.910
 1652BOLB   C1B39633  18.870   9.360  30.830
 1652BOLB   C2B39634  18.790   9.010  31.110
 1652BOLB   C3B39635  18.860   8.620  31.190
 1652BOLB   C4B39636  18.610   8.250  31.350
 1652BOLB   NC239637  16.340   7.130  29.920
 1652BOLB   PO239638  16.350   7.440  29.830
 1652BOLB   GL339639  16.630   7.500  29.600
 1652BOLB   GL439640  16.460   7.670  29.410
 1652BOLB   C1C39641  17.080   7.580  29.730
 1652BOLB   C2C39642  17.500   7.720  29.750
 1652BOLB   C3C39643  17.840   7.920  29.970
 1652BOLB   C4C39644  18.100   8.200  29.970
 1652BOLB   C1D39645  16.660   8.010  29.600
 1652BOLB   C2D39646  17.060   8.090  29.740
 1652BOLB   C3D39647  17.370   8.310  29.530
 1652BOLB   C4D39648  17.710   8.480  29.480
 1653BOLB   NC139649  26.615  17.890  40.310
 1653BOLB   PO139650  26.605  18.370  40.140
 1653BOLB   GL139651  26.835  18.560  40.290
 1653BOLB   GL239652  27.015  18.860  40.050
 1653BOLB   C1A39653  27.165  18.600  40.570
 1653BOLB   C2A39654  27.365  18.610  40.920
 1653BOLB   C3A39655  27.555  18.700  41.260
 1653BOLB   C4A39656  27.885  18.720  41.610
 1653BOLB   C1B39657  27.455  18.960  40.130
 1653BOLB   C2B39658  27.695  18.950  40.580
 1653BOLB   C3B39659  28.045  19.150  40.740
 1653BOLB   C4B39660  28.035  19.030  41.100
 1653BOLB   NC239661  29.555  19.320  43.340
 1653BOLB   PO239662  29.775  19.010  43.110
 1653BOLB   GL339663  29.395  18.850  43.040
 1653BOLB   GL439664  29.215  18.490  43.100
 1653BOLB   C1C39665  29.045  18.940  42.840
 1653BOLB   C2C39666  28.765  18.830  42.470
 1653BOLB   C3C39667  28.715  18.870  41.950
 1653BOLB   C4C39668  28.325  18.680  41.720
 1653BOLB   C1D39669  28.955  18.460  42.820
 1653BOLB   C2D39670  28.755  18.240  42.520
 1653BOLB   C3D39671  28.375  18.290  42.220
 1653BOLB   C4D39672  28.335  18.110  41.870
 1654BOLB   NC139673  11.130  19.680  21.760
 1654BOLB   PO139674  11.380  19.830  21.960
 1654BOLB   GL139675  11.630  19.540  22.200
 1654BOLB   GL239676  11.460  19.460  22.450
 1654BOLB   C1A39677  12.070  19.730  22.320
 1654BOLB   C2A39678  12.090  19.870  22.750
 1654BOLB   C3A39679  12.240  19.940  23.190
 1654BOLB   C4A39680  12.290  19.790  23.650
 1654BOLB   C1B39681  11.840  19.410  22.640
 1654BOLB   C2B39682  12.120  19.330  22.930
 1654BOLB   C3B39683  12.450  19.390  23.300
 1654BOLB   C4B39684  12.780  19.580  23.320
 1654BOLB   NC239685  11.080  18.780  22.580
 1654BOLB   PO239686  11.090  19.210  22.720
 1654BOLB   GL339687  11.400  19.270  22.980
 1654BOLB   GL439688  11.280  19.510  23.190
 1654BOLB   C1C39689  11.390  19.110  23.470
 1654BOLB   C2C39690  11.640  19.220  23.720
 1654BOLB   C3C39691  11.920  19.460  23.880
 1654BOLB   C4C39692  12.090  19.810  23.950
 1654BOLB   C1D39693  11.670  19.610  23.160
 1654BOLB   C2D39694  11.940  19.470  23.390
 1654BOLB   C3D39695  12.090  19.040  23.570
 1654BOLB   C4D39696  12.480  18.920  23.610
 1655BOLB   NC139697  27.415   6.350  23.630
 1655BOLB   PO139698  27.775   6.020  23.900
 1655BOLB   GL139699  27.725   6.340  24.260
 1655BOLB   GL239700  27.715   6.310  24.490
 1655BOLB   C1A39701  27.515   6.890  24.410
 1655BOLB   C2A39702  27.165   7.070  24.640
 1655BOLB   C3A39703  26.785   7.190  24.840
 1655BOLB   C4A39704  26.475   7.500  25.060
 1655BOLB   C1B39705  27.225   6.510  24.530
 1655BOLB   C2B39706  26.825   6.650  24.750
 1655BOLB   C3B39707  26.635   6.950  24.450
 1655BOLB   C4B39708  26.555   7.050  23.980
 1655BOLB   NC239709  26.755   8.820  27.120
 1655BOLB   PO239710  27.045   9.090  26.860
 1655BOLB   GL339711  26.915   8.590  26.600
 1655BOLB   GL439712  27.145   8.490  26.390
 1655BOLB   C1C39713  26.705   8.150  26.560
 1655BOLB   C2C39714  26.655   7.800  26.300
 1655BOLB   C3C39715  26.765   7.750  25.910
 1655BOLB   C4C39716  26.515   7.700  25.480
 1655BOLB   C1D39717  27.545   8.210  26.340
 1655BOLB   C2D39718  27.815   8.210  26.660
 1655BOLB   C3D39719  28.135   8.470  26.780
 1655BOLB   C4D39720  28.295   8.870  26.540
 1656BOLB   NC139721  25.960  14.170  41.630
 1656BOLB   PO139722  25.840  14.090  41.990
 1656BOLB   GL139723  25.860  13.850  42.410
 1656BOLB   GL239724  25.650  13.960  42.600
 1656BOLB   C1A39725  25.990  13.700  42.760
 1656BOLB   C2A39726  26.030  13.400  43.090
 1656BOLB   C3A39727  26.190  13.260  43.420
 1656BOLB   C4A39728  26.300  13.140  43.810
 1656BOLB   C1B39729  25.660  13.880  43.050
 1656BOLB   C2B39730  25.990  13.770  43.400
 1656BOLB   C3B39731  25.990  13.600  43.810
 1656BOLB   C4B39732  26.160  13.540  44.180
 1656BOLB   NC239733  28.355  12.570  45.450
 1656BOLB   PO239734  27.825  12.770  45.360
 1656BOLB   GL339735  27.395  12.890  45.180
 1656BOLB   GL439736  27.145  12.890  45.360
 1656BOLB   C1C39737  27.175  13.160  44.980
 1656BOLB   C2C39738  26.795  13.370  44.840
 1656BOLB   C3C39739  26.565  13.410  44.550
 1656BOLB   C4C39740  26.390  13.140  44.280
 1656BOLB   C1D39741  26.855  12.780  44.990
 1656BOLB   C2D39742  26.745  12.930  44.590
 1656BOLB   C3D39743  26.905  13.030  44.200
 1656BOLB   C4D39744  26.725  12.910  43.890
 1657BOLB   NC139745  16.880  12.770  44.520
 1657BOLB   PO139746  17.220  12.830  44.770
 1657BOLB   GL139747  17.490  13.180  44.650
 1657BOLB   GL239748  17.710  12.960  44.540
 1657BOLB   C1A39749  17.250  13.610  44.560
 1657BOLB   C2A39750  17.240  13.990  44.440
 1657BOLB   C3A39751  17.040  14.280  44.130
 1657BOLB   C4A39752  16.940  14.710  43.830
 1657BOLB   C1B39753  17.820  12.960  44.160
 1657BOLB   C2B39754  17.910  12.740  43.800
 1657BOLB   C3B39755  17.960  12.960  43.480
 1657BOLB   C4B39756  17.860  13.360  43.150
 1657BOLB   NC239757  16.550  16.140  45.560
 1657BOLB   PO239758  16.460  15.670  45.480
 1657BOLB   GL339759  16.710  15.770  45.040
 1657BOLB   GL439760  17.080  15.870  45.160
 1657BOLB   C1C39761  16.810  15.690  44.610
 1657BOLB   C2C39762  17.100  15.630  44.280
 1657BOLB   C3C39763  17.390  15.380  43.920
 1657BOLB   C4C39764  17.090  15.090  43.640
 1657BOLB   C1D39765  17.330  15.800  44.790
 1657BOLB   C2D39766  17.710  15.610  44.440
 1657BOLB   C3D39767  18.030  15.590  44.220
 1657BOLB   C4D39768  18.350  15.660  43.950
 1658BOLB   NC139769  29.435  10.670  33.710
 1658BOLB   PO139770  29.885  10.710  33.870
 1658BOLB   GL139771  30.325  10.590  33.800
 1658BOLB   GL239772  30.455  10.850  33.470
 1658BOLB   C1A39773  30.805  10.310  33.770
 1658BOLB   C2A39774  31.145  10.180  33.480
 1658BOLB   C3A39775  31.575  10.370  33.510
 1658BOLB   C4A39776  31.965  10.370  33.310
 1658BOLB   C1B39777  30.715  10.880  33.860
 1658BOLB   C2B39778  30.915  10.670  34.220
 1658BOLB   C3B39779  31.145  10.310  34.250
 1658BOLB   C4B39780  30.995   9.860  34.350
 1658BOLB   NC239781  33.705   8.680  32.510
 1658BOLB   PO239782  33.375   8.480  32.660
 1658BOLB   GL339783  33.005   8.660  32.470
 1658BOLB   GL439784  32.895   8.510  32.180
 1658BOLB   C1C39785  32.845   9.110  32.450
 1658BOLB   C2C39786  32.625   9.250  32.810
 1658BOLB   C3C39787  32.565   9.570  33.150
 1658BOLB   C4C39788  32.135   9.910  33.320
 1658BOLB   C1D39789  32.585   8.860  32.130
 1658BOLB   C2D39790  32.205   9.030  32.290
 1658BOLB   C3D39791  31.775   9.250  32.490
 1658BOLB   C4D39792  31.785   9.070  32.870
 1659BOLB   NC139793  32.005  13.310  24.470
 1659BOLB   PO139794  32.275  13.550  24.720
 1659BOLB   GL139795  31.885  13.710  24.960
 1659BOLB   GL239796  31.905  13.960  25.120
 1659BOLB   C1A39797  31.485  13.580  25.330
 1659BOLB   C2A39798  31.055  13.470  25.400
 1659BOLB   C3A39799  30.605  13.430  25.170
 1659BOLB   C4A39800  30.205  13.250  25.110
 1659BOLB   C1B39801  31.565  14.130  24.930
 1659BOLB   C2B39802  31.355  14.520  24.790
 1659BOLB   C3B39803  31.135  14.800  24.940
 1659BOLB   C4B39804  31.165  15.230  25.170
 1659BOLB   NC239805  31.945  13.230  23.690
 1659BOLB   PO239806  31.905  13.000  24.120
 1659BOLB   GL339807  31.515  12.890  24.330
 1659BOLB   GL439808  31.485  13.130  24.550
 1659BOLB   C1C39809  31.105  12.920  24.340
 1659BOLB   C2C39810  30.665  13.220  24.370
 1659BOLB   C3C39811  30.305  13.400  24.380
 1659BOLB   C4C39812  30.035  13.440  24.650
 1659BOLB   C1D39813  31.135  13.250  24.750
 1659BOLB   C2D39814  31.095  13.050  25.080
 1659BOLB   C3D39815  30.815  13.000  25.390
 1659BOLB   C4D39816  30.735  12.820  25.900
 1660BOLB   NC139817  21.320  14.870  43.120
 1660BOLB   PO139818  21.130  15.120  43.280
 1660BOLB   GL139819  20.950  15.190  43.670
 1660BOLB   GL239820  21.220  15.410  43.850
 1660BOLB   C1A39821  20.750  15.340  44.000
 1660BOLB   C2A39822  20.860  15.300  44.440
 1660BOLB   C3A39823  20.710  15.600  44.770
 1660BOLB   C4A39824  20.620  15.940  45.000
 1660BOLB   C1B39825  21.240  15.100  44.240
 1660BOLB   C2B39826  21.150  14.950  44.590
 1660BOLB   C3B39827  21.520  14.910  44.830
 1660BOLB   C4B39828  21.550  14.970  45.310
 1660BOLB   NC239829  20.240  15.510  47.570
 1660BOLB   PO239830  20.410  15.240  47.250
 1660BOLB   GL339831  20.400  15.370  46.820
 1660BOLB   GL439832  20.100  15.350  46.610
 1660BOLB   C1C39833  20.600  15.410  46.500
 1660BOLB   C2C39834  20.760  15.550  46.140
 1660BOLB   C3C39835  20.650  15.800  45.770
 1660BOLB   C4C39836  20.520  15.880  45.490
 1660BOLB   C1D39837  20.260  15.550  46.080
 1660BOLB   C2D39838  20.340  15.380  45.750
 1660BOLB   C3D39839  20.410  15.120  45.470
 1660BOLB   C4D39840  20.170  14.910  45.150
 1661BOLB   NC139841  23.020  18.210  21.940
 1661BOLB   PO139842  23.140  17.790  21.960
 1661BOLB   GL139843  23.240  17.960  21.560
 1661BOLB   GL239844  23.240  17.630  21.490
 1661BOLB   C1A39845  23.530  18.270  21.390
 1661BOLB   C2A39846  23.890  18.290  21.170
 1661BOLB   C3A39847  24.280  18.290  21.040
 1661BOLB   C4A39848  24.550  18.500  21.110
 1661BOLB   C1B39849  23.230  17.850  21.090
 1661BOLB   C2B39850  23.380  18.210  20.900
 1661BOLB   C3B39851  23.320  18.600  20.680
 1661BOLB   C4B39852  23.260  18.870  20.230
 1661BOLB   NC239853  26.440  19.410  19.840
 1661BOLB   PO239854  26.220  19.100  19.450
 1661BOLB   GL339855  25.820  18.960  19.700
 1661BOLB   GL439856  25.930  19.160  20.060
 1661BOLB   C1C39857  25.600  18.750  19.920
 1661BOLB   C2C39858  25.370  18.560  20.320
 1661BOLB   C3C39859  25.200  18.600  20.740
 1661BOLB   C4C39860  25.000  18.400  21.070
 1661BOLB   C1D39861  25.680  18.980  20.340
 1661BOLB   C2D39862  25.390  19.030  20.570
 1661BOLB   C3D39863  25.080  19.180  20.560
 1661BOLB   C4D39864  24.800  19.420  20.880
 1662BOLB   NC139865  25.070   9.190  37.340
 1662BOLB   PO139866  24.840   8.820  37.430
 1662BOLB   GL139867  24.760   8.360  37.570
 1662BOLB   GL239868  24.590   8.100  37.380
 1662BOLB   C1A39869  24.840   7.970  37.840
 1662BOLB   C2A39870  24.700   7.710  38.120
 1662BOLB   C3A39871  24.860   7.460  38.200
 1662BOLB   C4A39872  25.060   7.140  38.400
 1662BOLB   C1B39873  24.350   7.940  37.770
 1662BOLB   C2B39874  24.140   7.800  38.190
 1662BOLB   C3B39875  23.960   7.570  38.380
 1662BOLB   C4B39876  23.610   7.300  38.410
 1662BOLB   NC239877  25.630   4.780  39.780
 1662BOLB   PO239878  25.470   5.190  39.860
 1662BOLB   GL339879  25.250   5.640  39.750
 1662BOLB   GL439880  24.950   5.800  39.800
 1662BOLB   C1C39881  25.290   5.770  39.260
 1662BOLB   C2C39882  25.030   6.070  39.070
 1662BOLB   C3C39883  25.080   6.450  38.870
 1662BOLB   C4C39884  25.280   6.840  38.720
 1662BOLB   C1D39885  25.220   6.160  39.610
 1662BOLB   C2D39886  25.090   6.580  39.360
 1662BOLB   C3D39887  25.010   7.000  39.550
 1662BOLB   C4D39888  24.850   7.450  39.600
 1663BOLB   NC139889  24.440  18.200  42.410
 1663BOLB   PO139890  24.560  18.010  42.800
 1663BOLB   GL139891  24.930  18.140  43.060
 1663BOLB   GL239892  25.190  18.340  42.970
 1663BOLB   C1A39893  25.090  18.080  43.380
 1663BOLB   C2A39894  25.030  18.170  43.840
 1663BOLB   C3A39895  25.190  18.450  44.150
 1663BOLB   C4A39896  25.530  18.720  44.270
 1663BOLB   C1B39897  25.610  18.140  43.010
 1663BOLB   C2B39898  25.840  18.000  43.220
 1663BOLB   C3B39899  25.950  17.960  43.700
 1663BOLB   C4B39900  25.780  17.880  44.100
 1663BOLB   NC239901  28.335  17.800  45.410
 1663BOLB   PO239902  27.905  17.880  45.220
 1663BOLB   GL339903  27.575  18.020  45.020
 1663BOLB   GL439904  27.815  18.120  44.690
 1663BOLB   C1C39905  27.085  18.000  44.810
 1663BOLB   C2C39906  26.755  18.240  44.720
 1663BOLB   C3C39907  26.290  18.520  44.630
 1663BOLB   C4C39908  25.990  18.800  44.490
 1663BOLB   C1D39909  27.385  18.340  44.460
 1663BOLB   C2D39910  27.015  18.320  44.270
 1663BOLB   C3D39911  26.745  18.370  43.860
 1663BOLB   C4D39912  26.380  18.230  43.830
 1664BOLB   NC139913  16.470  23.910  36.150
 1664BOLB   PO139914  16.740  24.090  36.340
 1664BOLB   GL139915  16.530  24.440  36.550
 1664BOLB   GL239916  16.740  24.850  36.590
 1664BOLB   C1A39917  16.220  24.830  36.650
 1664BOLB   C2A39918  16.020  25.230  36.840
 1664BOLB   C3A39919  15.920  25.390  37.240
 1664BOLB   C4A39920  15.570  25.480  37.470
 1664BOLB   C1B39921  16.910  25.130  36.700
 1664BOLB   C2B39922  16.470  25.320  36.750
 1664BOLB   C3B39923  16.170  25.750  36.940
 1664BOLB   C4B39924  15.920  26.120  36.800
 1664BOLB   NC239925  15.260   0.920  37.960
 1664BOLB   PO239926  15.020   0.760  38.310
 1664BOLB   GL339927  15.150   0.350  38.270
 1664BOLB   GL439928  14.910   0.050  38.190
 1664BOLB   C1C39929  15.530   0.220  38.370
 1664BOLB   C2C39930  15.550  26.280  38.100
 1664BOLB   C3C39931  15.640  25.920  38.020
 1664BOLB   C4C39932  15.520  25.580  37.880
 1664BOLB   C1D39933  15.140   0.070  37.800
 1664BOLB   C2D39934  15.090   0.150  37.380
 1664BOLB   C3D39935  15.090   0.120  36.960
 1664BOLB   C4D39936  15.260  26.350  36.600
 1665BOLB   NC139937  23.990   8.930  26.760
 1665BOLB   PO139938  24.060   8.440  26.730
 1665BOLB   GL139939  23.910   8.060  26.800
 1665BOLB   GL239940  24.100   8.040  27.060
 1665BOLB   C1A39941  23.690   7.810  26.420
 1665BOLB   C2A39942  23.890   7.410  26.100
 1665BOLB   C3A39943  24.260   7.120  26.030
 1665BOLB   C4A39944  24.380   6.740  25.730
 1665BOLB   C1B39945  23.950   7.570  26.890
 1665BOLB   C2B39946  24.080   7.240  26.550
 1665BOLB   C3B39947  24.090   6.800  26.350
 1665BOLB   C4B39948  24.150   6.470  26.200
 1665BOLB   NC239949  25.130   4.470  24.810
 1665BOLB   PO239950  25.040   4.700  25.180
 1665BOLB   GL339951  25.190   5.070  25.420
 1665BOLB   GL439952  25.580   5.130  25.240
 1665BOLB   C1C39953  25.110   5.360  25.630
 1665BOLB   C2C39954  25.170   5.800  25.600
 1665BOLB   C3C39955  24.930   6.210  25.430
 1665BOLB   C4C39956  24.720   6.500  25.510
 1665BOLB   C1D39957  25.630   5.490  25.490
 1665BOLB   C2D39958  25.800   5.870  25.690
 1665BOLB   C3D39959  25.900   6.030  26.080
 1665BOLB   C4D39960  25.690   6.330  26.320
 1666BOLB   NC139961  26.410  24.560  40.650
 1666BOLB   PO139962  26.020  24.630  40.730
 1666BOLB   GL139963  25.630  24.560  40.520
 1666BOLB   GL239964  25.710  24.810  40.360
 1666BOLB   C1A39965  25.580  24.140  40.710
 1666BOLB   C2A39966  25.260  23.710  40.730
 1666BOLB   C3A39967  25.350  23.260  40.510
 1666BOLB   C4A39968  25.360  22.900  40.270
 1666BOLB   C1B39969  25.570  24.240  40.210
 1666BOLB   C2B39970  25.130  24.150  39.960
 1666BOLB   C3B39971  24.920  23.820  39.700
 1666BOLB   C4B39972  24.650  23.560  39.890
 1666BOLB   NC239973  23.560  21.330  39.780
 1666BOLB   PO239974  23.590  21.590  40.150
 1666BOLB   GL339975  23.710  21.960  40.270
 1666BOLB   GL439976  23.520  22.140  40.520
 1666BOLB   C1C39977  24.060  22.050  40.350
 1666BOLB   C2C39978  24.450  22.060  40.320
 1666BOLB   C3C39979  24.810  22.190  40.230
 1666BOLB   C4C39980  25.140  22.490  40.340
 1666BOLB   C1D39981  23.870  22.430  40.640
 1666BOLB   C2D39982  23.970  22.850  40.540
 1666BOLB   C3D39983  23.870  23.270  40.570
 1666BOLB   C4D39984  24.180  23.530  40.880
 1667BOLB   NC139985  23.820  14.290  21.510
 1667BOLB   PO139986  23.400  14.510  21.430
 1667BOLB   GL139987  23.300  14.540  21.020
 1667BOLB   GL239988  23.390  14.730  20.950
 1667BOLB   C1A39989  23.170  14.530  20.560
 1667BOLB   C2A39990  23.420  14.800  20.190
 1667BOLB   C3A39991  23.570  15.130  19.920
 1667BOLB   C4A39992  23.640  15.470  19.470
 1667BOLB   C1B39993  23.680  14.680  20.660
 1667BOLB   C2B39994  23.830  14.550  20.330
 1667BOLB   C3B39995  23.920  14.320  20.020
 1667BOLB   C4B39996  24.050  13.910  19.950
 1667BOLB   NC239997  24.480  17.040  17.620
 1667BOLB   PO239998  24.280  16.580  17.850
 1667BOLB   GL339999  23.940  16.670  17.960
 1667BOLB   GL440000  23.900  16.940  17.760
 1667BOLB   C1C40001  23.750  16.500  18.310
 1667BOLB   C2C40002  23.480  16.500  18.670
 1667BOLB   C3C40003  23.620  16.330  19.140
 1667BOLB   C4C40004  23.630  15.920  19.300
 1667BOLB   C1D40005  23.490  16.750  17.930
 1667BOLB   C2D40006  23.320  16.350  18.160
 1667BOLB   C3D40007  23.580  16.040  18.440
 1667BOLB   C4D40008  23.640  15.950  18.810
 1668BOLB   NC140009  28.055  13.120  27.300
 1668BOLB   PO140010  28.555  13.160  27.140
 1668BOLB   GL140011  28.705  12.950  26.770
 1668BOLB   GL240012  28.705  13.000  26.380
 1668BOLB   C1A40013  29.215  12.990  26.700
 1668BOLB   C2A40014  29.405  12.590  26.580
 1668BOLB   C3A40015  29.915  12.580  26.410
 1668BOLB   C4A40016  30.285  12.390  26.440
 1668BOLB   C1B40017  29.115  13.170  26.120
 1668BOLB   C2B40018  29.425  13.350  25.990
 1668BOLB   C3B40019  29.485  13.640  25.660
 1668BOLB   C4B40020  29.715  13.550  25.340
 1668BOLB   NC240021  32.515  12.500  25.600
 1668BOLB   PO240022  32.255  12.700  25.190
 1668BOLB   GL340023  31.915  12.540  25.330
 1668BOLB   GL440024  31.705  12.650  25.660
 1668BOLB   C1C40025  31.605  12.200  25.440
 1668BOLB   C2C40026  31.265  12.030  25.740
 1668BOLB   C3C40027  30.825  12.110  25.830
 1668BOLB   C4C40028  30.645  12.370  26.170
 1668BOLB   C1D40029  31.605  12.310  25.930
 1668BOLB   C2D40030  31.315  12.030  26.210
 1668BOLB   C3D40031  31.285  11.650  26.380
 1668BOLB   C4D40032  31.665  11.310  26.260
 1669BOLB   NC140033  22.720  20.210  42.020
 1669BOLB   PO140034  22.560  20.520  42.390
 1669BOLB   GL140035  22.620  20.360  42.800
 1669BOLB   GL240036  22.410  20.280  42.950
 1669BOLB   C1A40037  22.960  20.320  43.150
 1669BOLB   C2A40038  23.070  20.190  43.550
 1669BOLB   C3A40039  23.310  20.240  43.870
 1669BOLB   C4A40040  23.190  20.290  44.210
 1669BOLB   C1B40041  22.610  20.680  43.230
 1669BOLB   C2B40042  22.980  20.670  43.520
 1669BOLB   C3B40043  23.360  20.650  43.520
 1669BOLB   C4B40044  23.720  20.910  43.300
 1669BOLB   NC240045  22.710  21.850  46.090
 1669BOLB   PO240046  23.160  21.780  46.100
 1669BOLB   GL340047  23.020  21.670  45.690
 1669BOLB   GL440048  23.130  21.920  45.430
 1669BOLB   C1C40049  22.800  21.450  45.330
 1669BOLB   C2C40050  22.890  21.170  44.940
 1669BOLB   C3C40051  22.890  20.710  44.730
 1669BOLB   C4C40052  22.860  20.480  44.440
 1669BOLB   C1D40053  23.030  21.700  44.990
 1669BOLB   C2D40054  22.760  21.660  44.760
 1669BOLB   C3D40055  22.450  21.440  44.540
 1669BOLB   C4D40056  22.010  21.300  44.460
 1670BOLB   NC140057  27.915   8.730  35.950
 1670BOLB   PO140058  28.335   9.070  35.940
 1670BOLB   GL140059  28.725   9.020  36.020
 1670BOLB   GL240060  28.685   8.680  35.930
 1670BOLB   C1A40061  29.075   8.790  36.350
 1670BOLB   C2A40062  29.335   8.630  36.640
 1670BOLB   C3A40063  29.675   8.350  36.640
 1670BOLB   C4A40064  30.125   8.370  36.700
 1670BOLB   C1B40065  29.135   8.780  35.870
 1670BOLB   C2B40066  29.475   8.770  36.120
 1670BOLB   C3B40067  29.885   8.730  36.370
 1670BOLB   C4B40068  30.275   8.620  36.300
 1670BOLB   NC240069  31.995   6.490  35.590
 1670BOLB   PO240070  31.525   6.680  35.650
 1670BOLB   GL340071  31.195   6.890  35.770
 1670BOLB   GL440072  31.005   6.690  35.880
 1670BOLB   C1C40073  30.865   7.150  35.910
 1670BOLB   C2C40074  30.655   7.530  36.010
 1670BOLB   C3C40075  30.585   7.920  36.140
 1670BOLB   C4C40076  30.545   8.150  36.540
 1670BOLB   C1D40077  30.815   6.770  35.420
 1670BOLB   C2D40078  30.435   6.860  35.260
 1670BOLB   C3D40079  30.365   7.020  34.800
 1670BOLB   C4D40080  30.395   7.340  34.550
 1671BOLB   NC140081  23.590   5.280  39.990
 1671BOLB   PO140082  24.050   5.490  40.130
 1671BOLB   GL140083  24.050   5.640  39.730
 1671BOLB   GL240084  23.750   5.710  39.740
 1671BOLB   C1A40085  24.210   5.870  39.380
 1671BOLB   C2A40086  24.080   6.130  39.110
 1671BOLB   C3A40087  23.830   6.060  38.810
 1671BOLB   C4A40088  23.920   5.860  38.410
 1671BOLB   C1B40089  23.720   6.030  39.510
 1671BOLB   C2B40090  23.620   6.390  39.230
 1671BOLB   C3B40091  23.400   6.720  39.110
 1671BOLB   C4B40092  23.340   7.160  39.200
 1671BOLB   NC240093  22.790   4.340  37.440
 1671BOLB   PO240094  22.540   4.460  37.700
 1671BOLB   GL340095  22.530   4.950  37.670
 1671BOLB   GL440096  22.310   4.920  37.470
 1671BOLB   C1C40097  22.690   5.330  37.770
 1671BOLB   C2C40098  23.020   5.480  37.930
 1671BOLB   C3C40099  23.310   5.820  37.860
 1671BOLB   C4C40100  23.720   5.970  37.950
 1671BOLB   C1D40101  22.290   5.290  37.150
 1671BOLB   C2D40102  22.560   5.770  37.330
 1671BOLB   C3D40103  22.630   5.920  37.710
 1671BOLB   C4D40104  22.870   6.030  38.040
 1672BOLB   NC140105  28.225  14.480  39.220
 1672BOLB   PO140106  28.255  14.520  38.770
 1672BOLB   GL140107  28.695  14.590  38.910
 1672BOLB   GL240108  28.915  14.780  38.760
 1672BOLB   C1A40109  29.045  14.870  39.220
 1672BOLB   C2A40110  29.355  15.050  39.570
 1672BOLB   C3A40111  29.685  15.300  39.730
 1672BOLB   C4A40112  30.045  15.440  39.780
 1672BOLB   C1B40113  29.275  14.660  38.860
 1672BOLB   C2B40114  29.505  14.680  39.210
 1672BOLB   C3B40115  29.395  14.540  39.590
 1672BOLB   C4B40116  29.485  14.280  39.910
 1672BOLB   NC240117  32.185  15.670  40.870
 1672BOLB   PO240118  32.215  15.270  41.130
 1672BOLB   GL340119  31.735  15.230  41.000
 1672BOLB   GL440120  31.495  14.940  41.020
 1672BOLB   C1C40121  31.435  15.420  40.690
 1672BOLB   C2C40122  31.015  15.520  40.550
 1672BOLB   C3C40123  30.585  15.430  40.300
 1672BOLB   C4C40124  30.435  15.470  40.030
 1672BOLB   C1D40125  31.115  15.030  40.800
 1672BOLB   C2D40126  30.645  15.160  40.820
 1672BOLB   C3D40127  30.385  15.220  41.070
 1672BOLB   C4D40128  29.985  15.130  40.860
 1673BOLB   NC140129  25.430   6.560  22.160
 1673BOLB   PO140130  25.210   6.770  21.770
 1673BOLB   GL140131  25.210   7.260  22.030
 1673BOLB   GL240132  25.260   7.550  22.030
 1673BOLB   C1A40133  25.140   7.500  22.490
 1673BOLB   C2A40134  24.850   7.560  22.890
 1673BOLB   C3A40135  24.880   8.050  23.010
 1673BOLB   C4A40136  25.010   8.430  23.260
 1673BOLB   C1B40137  25.270   7.970  22.230
 1673BOLB   C2B40138  25.270   8.350  22.480
 1673BOLB   C3B40139  24.900   8.610  22.730
 1673BOLB   C4B40140  24.810   8.970  22.990
 1673BOLB   NC240141  24.870  10.210  25.030
 1673BOLB   PO240142  24.920  10.000  24.660
 1673BOLB   GL340143  25.090   9.810  24.300
 1673BOLB   GL440144  25.430   9.770  24.370
 1673BOLB   C1C40145  24.950   9.500  24.130
 1673BOLB   C2C40146  24.750   9.280  23.910
 1673BOLB   C3C40147  24.850   8.880  23.950
 1673BOLB   C4C40148  24.820   8.670  23.570
 1673BOLB   C1D40149  25.530   9.530  24.130
 1673BOLB   C2D40150  25.820   9.330  23.730
 1673BOLB   C3D40151  26.010   8.940  23.560
 1673BOLB   C4D40152  26.140   8.510  23.580
 1674BOLB   NC140153  26.965  22.610  23.280
 1674BOLB   PO140154  26.975  22.390  23.720
 1674BOLB   GL140155  26.575  22.340  23.940
 1674BOLB   GL240156  26.220  22.470  23.810
 1674BOLB   C1A40157  26.360  22.230  24.260
 1674BOLB   C2A40158  26.030  22.000  24.440
 1674BOLB   C3A40159  25.620  21.830  24.600
 1674BOLB   C4A40160  25.230  21.860  24.390
 1674BOLB   C1B40161  25.840  22.320  24.010
 1674BOLB   C2B40162  25.560  22.250  24.270
 1674BOLB   C3B40163  25.710  22.340  24.690
 1674BOLB   C4B40164  25.770  22.130  24.960
 1674BOLB   NC240165  25.710  22.640  21.970
 1674BOLB   PO240166  25.720  22.650  22.360
 1674BOLB   GL340167  25.430  22.370  22.660
 1674BOLB   GL440168  25.420  22.020  22.610
 1674BOLB   C1C40169  25.140  22.270  22.950
 1674BOLB   C2C40170  24.760  22.330  23.280
 1674BOLB   C3C40171  24.780  22.400  23.740
 1674BOLB   C4C40172  25.030  22.250  24.090
 1674BOLB   C1D40173  25.040  22.060  22.540
 1674BOLB   C2D40174  24.840  22.270  22.520
 1674BOLB   C3D40175  24.550  22.460  22.830
 1674BOLB   C4D40176  24.210  22.300  23.190
 1675BOLB   NC140177  33.135  11.880  38.540
 1675BOLB   PO140178  33.195  12.030  38.080
 1675BOLB   GL140179  32.815  12.120  38.130
 1675BOLB   GL240180  32.645  11.920  38.360
 1675BOLB   C1A40181  32.535  12.420  37.830
 1675BOLB   C2A40182  32.305  12.840  37.630
 1675BOLB   C3A40183  32.065  12.890  37.290
 1675BOLB   C4A40184  31.575  12.810  37.320
 1675BOLB   C1B40185  32.325  11.820  37.990
 1675BOLB   C2B40186  32.135  11.460  38.070
 1675BOLB   C3B40187  32.295  11.110  38.240
 1675BOLB   C4B40188  32.245  10.700  38.360
 1675BOLB   NC240189  29.045  13.130  37.240
 1675BOLB   PO240190  29.375  12.880  36.860
 1675BOLB   GL340191  29.655  13.130  36.890
 1675BOLB   GL440192  29.825  13.350  37.110
 1675BOLB   C1C40193  30.035  12.920  36.810
 1675BOLB   C2C40194  30.495  13.060  36.840
 1675BOLB   C3C40195  30.955  13.030  36.940
 1675BOLB   C4C40196  31.275  13.060  37.160
 1675BOLB   C1D40197  30.115  13.130  37.260
 1675BOLB   C2D40198  30.495  13.110  37.380
 1675BOLB   C3D40199  30.865  12.890  37.620
 1675BOLB   C4D40200  31.195  13.120  37.740
 1676BOLB   NC140201  29.545  10.470  31.900
 1676BOLB   PO140202  29.565  10.730  32.250
 1676BOLB   GL140203  29.945  10.410  32.270
 1676BOLB   GL240204  30.245  10.420  32.040
 1676BOLB   C1A40205  30.185  10.010  32.470
 1676BOLB   C2A40206  30.415   9.610  32.350
 1676BOLB   C3A40207  30.785   9.440  32.230
 1676BOLB   C4A40208  30.955   8.970  32.200
 1676BOLB   C1B40209  30.595  10.160  32.240
 1676BOLB   C2B40210  30.795  10.030  32.580
 1676BOLB   C3B40211  30.905  10.290  32.950
 1676BOLB   C4B40212  31.295  10.540  33.110
 1676BOLB   NC240213  32.735   7.170  31.950
 1676BOLB   PO240214  32.755   7.190  31.520
 1676BOLB   GL340215  32.485   7.490  31.600
 1676BOLB   GL440216  32.265   7.200  31.830
 1676BOLB   C1C40217  32.235   7.790  31.740
 1676BOLB   C2C40218  32.165   8.180  31.820
 1676BOLB   C3C40219  31.725   8.350  31.910
 1676BOLB   C4C40220  31.275   8.650  32.080
 1676BOLB   C1D40221  31.885   7.270  31.560
 1676BOLB   C2D40222  31.505   7.380  31.610
 1676BOLB   C3D40223  31.185   7.560  31.510
 1676BOLB   C4D40224  30.775   7.440  31.260
 1677BOLB   NC140225  19.650  14.650  42.220
 1677BOLB   PO140226  20.100  14.610  42.330
 1677BOLB   GL140227  19.780  14.240  42.420
 1677BOLB   GL240228  19.990  13.920  42.390
 1677BOLB   C1A40229  19.470  14.000  42.530
 1677BOLB   C2A40230  19.290  13.690  42.750
 1677BOLB   C3A40231  19.430  13.420  43.170
 1677BOLB   C4A40232  19.410  13.200  43.600
 1677BOLB   C1B40233  19.830  14.030  42.870
 1677BOLB   C2B40234  19.560  13.930  43.230
 1677BOLB   C3B40235  19.360  13.710  43.580
 1677BOLB   C4B40236  19.190  13.830  43.960
 1677BOLB   NC240237  17.460  12.020  44.440
 1677BOLB   PO240238  17.720  12.170  44.070
 1677BOLB   GL340239  18.110  12.180  43.920
 1677BOLB   GL440240  18.330  11.910  43.910
 1677BOLB   C1C40241  18.360  12.550  43.810
 1677BOLB   C2C40242  18.360  12.970  43.760
 1677BOLB   C3C40243  18.580  13.350  43.770
 1677BOLB   C4C40244  19.050  13.300  43.850
 1677BOLB   C1D40245  18.490  11.950  43.470
 1677BOLB   C2D40246  18.350  11.950  43.060
 1677BOLB   C3D40247  18.130  11.530  42.910
 1677BOLB   C4D40248  17.930  11.250  42.510
 1678BOLB   NC140249  25.530   8.190  37.010
 1678BOLB   PO140250  25.610   8.440  37.390
 1678BOLB   GL140251  25.610   7.990  37.560
 1678BOLB   GL240252  25.720   8.090  37.830
 1678BOLB   C1A40253  25.300   7.740  37.690
 1678BOLB   C2A40254  25.020   7.470  37.700
 1678BOLB   C3A40255  25.000   7.010  37.910
 1678BOLB   C4A40256  24.890   6.650  38.250
 1678BOLB   C1B40257  26.040   7.820  38.070
 1678BOLB   C2B40258  26.170   7.350  38.180
 1678BOLB   C3B40259  26.220   6.890  38.420
 1678BOLB   C4B40260  26.280   6.410  38.280
 1678BOLB   NC240261  26.000   4.860  39.100
 1678BOLB   PO240262  25.790   4.560  38.820
 1678BOLB   GL340263  25.570   5.010  38.830
 1678BOLB   GL440264  25.550   5.100  39.100
 1678BOLB   C1C40265  25.410   5.300  38.550
 1678BOLB   C2C40266  25.390   5.670  38.430
 1678BOLB   C3C40267  25.380   6.120  38.520
 1678BOLB   C4C40268  25.140   6.440  38.390
 1678BOLB   C1D40269  25.620   5.510  38.970
 1678BOLB   C2D40270  25.620   5.920  38.870
 1678BOLB   C3D40271  25.490   6.320  39.080
 1678BOLB   C4D40272  25.730   6.620  38.980
 1679BOLB   NC140273  14.770  17.800  44.590
 1679BOLB   PO140274  14.680  18.070  44.700
 1679BOLB   GL140275  15.130  18.140  44.530
 1679BOLB   GL240276  15.400  18.020  44.330
 1679BOLB   C1A40277  15.610  18.410  44.550
 1679BOLB   C2A40278  15.830  18.330  44.160
 1679BOLB   C3A40279  15.960  18.180  43.660
 1679BOLB   C4A40280  16.290  18.290  43.310
 1679BOLB   C1B40281  15.540  18.000  43.940
 1679BOLB   C2B40282  15.400  17.690  43.600
 1679BOLB   C3B40283  15.490  17.530  43.330
 1679BOLB   C4B40284  15.820  17.280  43.040
 1679BOLB   NC240285  18.130  17.470  42.160
 1679BOLB   PO240286  18.210  17.810  41.880
 1679BOLB   GL340287  17.810  17.910  42.010
 1679BOLB   GL440288  17.600  18.130  41.980
 1679BOLB   C1C40289  17.620  17.820  42.350
 1679BOLB   C2C40290  17.320  17.970  42.650
 1679BOLB   C3C40291  16.940  18.170  42.890
 1679BOLB   C4C40292  16.590  18.330  43.120
 1679BOLB   C1D40293  17.190  18.280  42.310
 1679BOLB   C2D40294  16.810  18.040  42.380
 1679BOLB   C3D40295  16.340  18.140  42.330
 1679BOLB   C4D40296  15.950  18.400  42.250
 1680BOLB   NC140297  30.655   5.530  30.340
 1680BOLB   PO140298  30.955   5.730  30.600
 1680BOLB   GL140299  30.735   6.080  30.730
 1680BOLB   GL240300  30.735   6.390  30.550
 1680BOLB   C1A40301  30.325   6.170  30.610
 1680BOLB   C2A40302  30.055   6.460  30.460
 1680BOLB   C3A40303  29.765   6.500  30.100
 1680BOLB   C4A40304  29.865   6.780  29.720
 1680BOLB   C1B40305  30.575   6.790  30.580
 1680BOLB   C2B40306  30.545   7.220  30.380
 1680BOLB   C3B40307  30.245   7.610  30.390
 1680BOLB   C4B40308  30.105   7.970  30.130
 1680BOLB   NC240309  30.415   6.070  27.840
 1680BOLB   PO240310  30.035   5.910  27.580
 1680BOLB   GL340311  29.935   6.220  27.900
 1680BOLB   GL440312  29.755   6.370  27.800
 1680BOLB   C1C40313  29.885   6.540  28.280
 1680BOLB   C2C40314  29.705   6.840  28.570
 1680BOLB   C3C40315  29.675   7.030  28.990
 1680BOLB   C4C40316  29.645   6.980  29.500
 1680BOLB   C1D40317  29.305   6.500  27.870
 1680BOLB   C2D40318  28.965   6.790  27.900
 1680BOLB   C3D40319  28.635   6.720  28.100
 1680BOLB   C4D40320  28.255   6.720  27.990
 1681BOLB   NC140321  15.220  23.430  32.770
 1681BOLB   PO140322  14.910  23.610  32.590
 1681BOLB   GL140323  14.880  24.050  32.540
 1681BOLB   GL240324  14.760  24.160  32.320
 1681BOLB   C1A40325  14.730  24.480  32.670
 1681BOLB   C2A40326  14.620  24.880  32.690
 1681BOLB   C3A40327  14.420  25.190  32.440
 1681BOLB   C4A40328  14.110  25.280  32.140
 1681BOLB   C1B40329  14.350  24.090  32.420
 1681BOLB   C2B40330  14.290  24.280  32.740
 1681BOLB   C3B40331  14.210  24.650  32.970
 1681BOLB   C4B40332  13.960  24.960  33.190
 1681BOLB   NC240333  11.660  26.110  32.810
 1681BOLB   PO240334  12.040  26.380  32.690
 1681BOLB   GL340335  12.230  26.290  32.440
 1681BOLB   GL440336  12.460  26.030  32.570
 1681BOLB   C1C40337  12.680  26.320  32.230
 1681BOLB   C2C40338  13.040  26.080  32.180
 1681BOLB   C3C40339  13.570  25.900  32.240
 1681BOLB   C4C40340  13.790  25.490  32.190
 1681BOLB   C1D40341  12.680  25.760  32.400
 1681BOLB   C2D40342  12.870  25.390  32.520
 1681BOLB   C3D40343  12.910  25.110  32.290
 1681BOLB   C4D40344  13.190  24.750  32.020
 1682BOLB   NC140345  29.605  13.660  20.480
 1682BOLB   PO140346  29.125  13.510  20.480
 1682BOLB   GL140347  28.875  13.620  20.840
 1682BOLB   GL240348  28.475  13.610  20.730
 1682BOLB   C1A40349  28.755  13.900  21.220
 1682BOLB   C2A40350  28.545  14.110  21.470
 1682BOLB   C3A40351  28.375  14.290  21.860
 1682BOLB   C4A40352  28.205  14.440  22.370
 1682BOLB   C1B40353  28.305  13.690  21.220
 1682BOLB   C2B40354  28.145  13.860  21.620
 1682BOLB   C3B40355  28.005  13.960  21.990
 1682BOLB   C4B40356  27.765  14.010  22.320
 1682BOLB   NC240357  29.805  14.590  21.100
 1682BOLB   PO240358  30.055  14.600  21.500
 1682BOLB   GL340359  29.745  14.580  21.900
 1682BOLB   GL440360  29.685  14.810  22.030
 1682BOLB   C1C40361  29.645  14.420  22.420
 1682BOLB   C2C40362  29.345  14.510  22.780
 1682BOLB   C3C40363  28.865  14.530  22.960
 1682BOLB   C4C40364  28.395  14.520  22.730
 1682BOLB   C1D40365  29.495  15.270  22.120
 1682BOLB   C2D40366  29.085  15.370  22.370
 1682BOLB   C3D40367  28.645  15.340  22.370
 1682BOLB   C4D40368  28.195  15.280  22.420
 1683BOLB   NC140369  13.910  17.130  30.570
 1683BOLB   PO140370  13.940  16.860  30.240
 1683BOLB   GL140371  13.530  16.830  30.310
 1683BOLB   GL240372  13.450  16.830  30.610
 1683BOLB   C1A40373  13.150  16.650  30.310
 1683BOLB   C2A40374  12.880  16.700  30.620
 1683BOLB   C3A40375  12.480  16.830  30.600
 1683BOLB   C4A40376  12.130  16.710  30.370
 1683BOLB   C1B40377  13.270  16.760  31.040
 1683BOLB   C2B40378  12.940  16.470  31.020
 1683BOLB   C3B40379  12.520  16.560  31.090
 1683BOLB   C4B40380  12.080  16.640  30.890
 1683BOLB   NC240381   9.470  15.520  30.030
 1683BOLB   PO240382   9.930  15.840  30.090
 1683BOLB   GL340383  10.240  15.840  30.270
 1683BOLB   GL440384  10.420  16.090  30.140
 1683BOLB   C1C40385  10.770  15.790  30.350
 1683BOLB   C2C40386  11.020  15.840  30.590
 1683BOLB   C3C40387  11.320  16.180  30.460
 1683BOLB   C4C40388  11.720  16.490  30.360
 1683BOLB   C1D40389  10.810  16.160  30.030
 1683BOLB   C2D40390  11.200  16.250  30.010
 1683BOLB   C3D40391  11.450  16.570  29.860
 1683BOLB   C4D40392  11.610  16.720  29.540
 1684BOLB   NC140393  19.520  22.500  24.530
 1684BOLB   PO140394  19.160  22.780  24.390
 1684BOLB   GL140395  19.130  23.130  24.080
 1684BOLB   GL240396  19.110  23.430  24.040
 1684BOLB   C1A40397  19.260  23.170  23.660
 1684BOLB   C2A40398  19.330  23.330  23.250
 1684BOLB   C3A40399  19.190  23.720  23.110
 1684BOLB   C4A40400  19.180  24.000  23.460
 1684BOLB   C1B40401  18.990  23.610  23.690
 1684BOLB   C2B40402  18.690  24.020  23.720
 1684BOLB   C3B40403  18.800  24.430  23.690
 1684BOLB   C4B40404  18.970  24.650  23.950
 1684BOLB   NC240405  20.160   0.240  23.360
 1684BOLB   PO240406  20.290  26.280  23.220
 1684BOLB   GL340407  20.120  25.900  23.150
 1684BOLB   GL440408  19.740  25.910  23.050
 1684BOLB   C1C40409  19.870  25.510  23.230
 1684BOLB   C2C40410  19.510  25.270  23.370
 1684BOLB   C3C40411  19.530  24.820  23.530
 1684BOLB   C4C40412  19.330  24.380  23.640
 1684BOLB   C1D40413  19.490  25.860  23.400
 1684BOLB   C2D40414  19.160  25.520  23.650
 1684BOLB   C3D40415  19.080  24.970  23.570
 1684BOLB   C4D40416  19.110  24.630  23.300
 1685BOLB   NC140417  26.180  11.370  40.070
 1685BOLB   PO140418  25.920  11.020  39.890
 1685BOLB   GL140419  26.110  10.830  40.250
 1685BOLB   GL240420  26.280  10.670  40.240
 1685BOLB   C1A40421  26.320  10.770  40.700
 1685BOLB   C2A40422  26.565  10.460  40.930
 1685BOLB   C3A40423  26.795  10.160  41.260
 1685BOLB   C4A40424  27.145   9.910  41.390
 1685BOLB   C1B40425  26.340  10.290  40.500
 1685BOLB   C2B40426  26.515  10.010  40.780
 1685BOLB   C3B40427  26.695   9.680  40.950
 1685BOLB   C4B40428  26.705   9.420  41.390
 1685BOLB   NC240429  29.185   8.850  43.100
 1685BOLB   PO240430  28.895   8.840  42.750
 1685BOLB   GL340431  28.665   9.070  42.480
 1685BOLB   GL440432  28.315   9.400  42.600
 1685BOLB   C1C40433  28.515   9.290  42.140
 1685BOLB   C2C40434  28.285   9.660  42.100
 1685BOLB   C3C40435  27.915   9.620  41.720
 1685BOLB   C4C40436  27.635   9.780  41.490
 1685BOLB   C1D40437  28.085   9.760  42.550
 1685BOLB   C2D40438  27.875  10.230  42.420
 1685BOLB   C3D40439  27.745  10.580  42.190
 1685BOLB   C4D40440  27.825  10.690  41.720
 1686BOLB   NC140441  21.110   6.020  23.790
 1686BOLB   PO140442  21.190   6.110  24.090
 1686BOLB   GL140443  21.140   6.320  24.460
 1686BOLB   GL240444  21.410   6.180  24.560
 1686BOLB   C1A40445  21.220   6.660  24.540
 1686BOLB   C2A40446  21.170   6.830  24.970
 1686BOLB   C3A40447  21.110   7.190  25.170
 1686BOLB   C4A40448  21.300   7.630  25.050
 1686BOLB   C1B40449  21.670   6.510  24.340
 1686BOLB   C2B40450  21.920   6.890  24.380
 1686BOLB   C3B40451  22.030   7.310  24.620
 1686BOLB   C4B40452  22.460   7.490  24.710
 1686BOLB   NC240453  19.880   6.770  22.990
 1686BOLB   PO240454  20.310   6.720  23.210
 1686BOLB   GL340455  20.250   6.760  23.710
 1686BOLB   GL440456  20.090   6.940  23.770
 1686BOLB   C1C40457  20.490   6.810  24.070
 1686BOLB   C2C40458  20.740   7.240  24.110
 1686BOLB   C3C40459  20.980   7.550  24.360
 1686BOLB   C4C40460  21.320   7.720  24.640
 1686BOLB   C1D40461  20.330   7.320  23.630
 1686BOLB   C2D40462  20.300   7.480  24.050
 1686BOLB   C3D40463  20.360   7.230  24.410
 1686BOLB   C4D40464  20.220   7.160  24.880
 1687BOLB   NC140465  21.830  22.870  27.290
 1687BOLB   PO140466  22.110  22.500  27.360
 1687BOLB   GL140467  22.270  22.820  27.010
 1687BOLB   GL240468  22.460  22.620  26.920
 1687BOLB   C1A40469  22.460  23.150  27.140
 1687BOLB   C2A40470  22.520  23.580  27.010
 1687BOLB   C3A40471  22.880  23.720  26.830
 1687BOLB   C4A40472  23.340  23.850  26.700
 1687BOLB   C1B40473  22.700  22.900  26.760
 1687BOLB   C2B40474  23.100  23.030  26.610
 1687BOLB   C3B40475  23.410  23.310  26.580
 1687BOLB   C4B40476  23.750  23.250  26.500
 1687BOLB   NC240477  25.760  24.620  26.460
 1687BOLB   PO240478  25.560  24.810  26.220
 1687BOLB   GL340479  25.370  24.360  26.230
 1687BOLB   GL440480  25.480  24.110  26.140
 1687BOLB   C1C40481  25.030  24.180  26.150
 1687BOLB   C2C40482  24.700  23.830  26.290
 1687BOLB   C3C40483  24.210  23.660  26.300
 1687BOLB   C4C40484  23.780  23.720  26.610
 1687BOLB   C1D40485  25.230  23.740  26.310
 1687BOLB   C2D40486  24.960  23.490  26.500
 1687BOLB   C3D40487  24.750  23.270  26.880
 1687BOLB   C4D40488  24.610  23.140  27.320
 1688BOLB   NC140489  19.220   2.190  34.290
 1688BOLB   PO140490  19.060   2.510  34.690
 1688BOLB   GL140491  18.920   2.080  34.760
 1688BOLB   GL240492  18.620   2.030  34.820
 1688BOLB   C1A40493  19.060   1.600  34.720
 1688BOLB   C2A40494  18.900   1.260  34.940
 1688BOLB   C3A40495  18.600   0.940  34.930
 1688BOLB   C4A40496  18.190   0.870  34.670
 1688BOLB   C1B40497  18.930   1.760  35.150
 1688BOLB   C2B40498  18.860   1.570  35.380
 1688BOLB   C3B40499  18.550   1.290  35.360
 1688BOLB   C4B40500  18.170   1.280  35.430
 1688BOLB   NC240501  17.180   3.200  33.620
 1688BOLB   PO240502  17.240   2.890  34.010
 1688BOLB   GL340503  17.150   2.400  33.840
 1688BOLB   GL440504  16.940   2.220  33.540
 1688BOLB   C1C40505  17.370   2.030  33.900
 1688BOLB   C2C40506  17.450   1.530  33.800
 1688BOLB   C3C40507  17.570   1.220  34.180
 1688BOLB   C4C40508  17.990   0.960  34.410
 1688BOLB   C1D40509  17.050   1.770  33.460
 1688BOLB   C2D40510  16.850   1.400  33.400
 1688BOLB   C3D40511  17.000   1.050  33.220
 1688BOLB   C4D40512  16.950   0.810  32.890
 1689BOLB   NC140513  29.025  15.740  35.640
 1689BOLB   PO140514  28.965  15.870  36.060
 1689BOLB   GL140515  29.375  16.030  36.200
 1689BOLB   GL240516  29.335  16.350  36.240
 1689BOLB   C1A40517  29.875  16.180  36.180
 1689BOLB   C2A40518  30.255  16.410  36.090
 1689BOLB   C3A40519  30.685  16.540  35.940
 1689BOLB   C4A40520  31.125  16.690  35.740
 1689BOLB   C1B40521  29.575  16.670  36.070
 1689BOLB   C2B40522  30.035  16.810  36.000
 1689BOLB   C3B40523  30.435  16.970  35.910
 1689BOLB   C4B40524  30.865  17.160  35.810
 1689BOLB   NC240525  33.115  16.910  36.210
 1689BOLB   PO240526  33.175  17.210  35.880
 1689BOLB   GL340527  32.765  17.240  36.080
 1689BOLB   GL440528  32.595  17.300  35.690
 1689BOLB   C1C40529  32.335  17.330  36.200
 1689BOLB   C2C40530  31.965  17.150  36.280
 1689BOLB   C3C40531  31.745  16.890  36.010
 1689BOLB   C4C40532  31.475  16.630  35.730
 1689BOLB   C1D40533  32.105  17.210  35.770
 1689BOLB   C2D40534  31.605  17.390  35.650
 1689BOLB   C3D40535  31.295  17.250  35.980
 1689BOLB   C4D40536  31.065  16.930  36.220
 1690BOLB   NC140537  24.340  21.040  39.520
 1690BOLB   PO140538  24.060  21.320  39.800
 1690BOLB   GL140539  24.430  21.590  39.750
 1690BOLB   GL240540  24.560  21.500  39.580
 1690BOLB   C1A40541  24.650  21.860  39.880
 1690BOLB   C2A40542  25.120  21.970  39.890
 1690BOLB   C3A40543  25.450  22.090  40.140
 1690BOLB   C4A40544  25.740  22.270  40.390
 1690BOLB   C1B40545  24.870  21.820  39.460
 1690BOLB   C2B40546  25.100  22.100  39.380
 1690BOLB   C3B40547  24.890  22.480  39.270
 1690BOLB   C4B40548  24.810  22.880  39.360
 1690BOLB   NC240549  27.105  23.300  42.290
 1690BOLB   PO240550  26.625  23.410  42.320
 1690BOLB   GL340551  26.250  23.250  42.090
 1690BOLB   GL440552  25.910  23.070  42.240
 1690BOLB   C1C40553  25.970  23.250  41.800
 1690BOLB   C2C40554  25.930  23.110  41.330
 1690BOLB   C3C40555  25.780  22.690  41.230
 1690BOLB   C4C40556  25.720  22.570  40.760
 1690BOLB   C1D40557  25.790  22.760  41.890
 1690BOLB   C2D40558  25.620  22.430  41.660
 1690BOLB   C3D40559  25.270  22.460  41.330
 1690BOLB   C4D40560  24.860  22.200  41.130
 1691BOLB   NC140561  17.920  20.840  17.870
 1691BOLB   PO140562  17.930  20.410  17.860
 1691BOLB   GL140563  17.950  20.070  18.080
 1691BOLB   GL240564  18.170  20.290  18.250
 1691BOLB   C1A40565  17.950  19.870  18.480
 1691BOLB   C2A40566  18.080  19.560  18.770
 1691BOLB   C3A40567  18.040  19.380  19.120
 1691BOLB   C4A40568  17.750  19.340  19.460
 1691BOLB   C1B40569  18.580  20.500  18.390
 1691BOLB   C2B40570  18.630  20.850  18.660
 1691BOLB   C3B40571  18.720  20.760  19.120
 1691BOLB   C4B40572  18.830  20.810  19.500
 1691BOLB   NC240573  16.360  18.640  17.860
 1691BOLB   PO240574  16.070  18.620  18.020
 1691BOLB   GL340575  16.430  18.390  18.350
 1691BOLB   GL440576  16.440  18.130  18.170
 1691BOLB   C1C40577  16.710  18.470  18.690
 1691BOLB   C2C40578  17.030  18.510  19.050
 1691BOLB   C3C40579  17.270  18.710  19.380
 1691BOLB   C4C40580  17.400  19.090  19.480
 1691BOLB   C1D40581  16.630  17.970  18.620
 1691BOLB   C2D40582  16.980  17.830  18.720
 1691BOLB   C3D40583  17.370  17.900  18.950
 1691BOLB   C4D40584  17.480  18.070  19.260
 1692BOLB   NC140585  21.760  10.440  40.050
 1692BOLB   PO140586  21.410  10.670  39.940
 1692BOLB   GL140587  21.110  10.460  40.140
 1692BOLB   GL240588  21.230  10.220  40.000
 1692BOLB   C1A40589  21.010  10.380  40.570
 1692BOLB   C2A40590  21.150  10.060  40.750
 1692BOLB   C3A40591  21.020   9.750  41.110
 1692BOLB   C4A40592  20.980   9.350  41.260
 1692BOLB   C1B40593  21.380  10.010  40.300
 1692BOLB   C2B40594  21.150   9.680  40.450
 1692BOLB   C3B40595  20.910   9.330  40.740
 1692BOLB   C4B40596  21.130   8.940  40.860
 1692BOLB   NC240597  19.130   8.290  42.360
 1692BOLB   PO240598  19.440   7.950  42.390
 1692BOLB   GL340599  19.780   8.140  42.170
 1692BOLB   GL440600  19.690   8.320  41.950
 1692BOLB   C1C40601  20.120   8.440  42.150
 1692BOLB   C2C40602  20.270   8.710  41.800
 1692BOLB   C3C40603  20.360   9.010  41.570
 1692BOLB   C4C40604  20.650   9.260  41.530
 1692BOLB   C1D40605  19.570   8.100  41.570
 1692BOLB   C2D40606  19.610   8.020  41.190
 1692BOLB   C3D40607  19.850   7.920  40.870
 1692BOLB   C4D40608  20.090   7.610  40.890
 1693BOLB   NC140609  17.510  15.820  41.150
 1693BOLB   PO140610  17.530  15.500  40.880
 1693BOLB   GL140611  17.640  15.280  41.310
 1693BOLB   GL240612  17.420  15.370  41.550
 1693BOLB   C1A40613  17.720  14.960  41.620
 1693BOLB   C2A40614  17.700  15.140  42.090
 1693BOLB   C3A40615  17.260  15.200  42.350
 1693BOLB   C4A40616  17.120  14.940  42.650
 1693BOLB   C1B40617  17.210  15.440  41.940
 1693BOLB   C2B40618  16.830  15.380  42.070
 1693BOLB   C3B40619  16.600  15.690  42.420
 1693BOLB   C4B40620  16.630  15.970  42.730
 1693BOLB   NC240621  15.820  14.160  44.750
 1693BOLB   PO240622  15.680  14.010  44.500
 1693BOLB   GL340623  15.850  14.100  44.070
 1693BOLB   GL440624  15.760  14.360  43.890
 1693BOLB   C1C40625  16.180  14.140  43.770
 1693BOLB   C2C40626  16.550  14.320  43.630
 1693BOLB   C3C40627  16.900  14.490  43.360
 1693BOLB   C4C40628  17.110  14.690  43.060
 1693BOLB   C1D40629  16.060  14.540  43.530
 1693BOLB   C2D40630  16.340  14.650  43.160
 1693BOLB   C3D40631  16.510  14.910  42.820
 1693BOLB   C4D40632  16.680  15.120  42.460
 1694BOLB   NC140633  19.860  18.300  43.360
 1694BOLB   PO140634  20.140  18.680  43.440
 1694BOLB   GL140635  19.900  18.700  43.770
 1694BOLB   GL240636  19.630  18.960  43.890
 1694BOLB   C1A40637  19.920  18.930  44.270
 1694BOLB   C2A40638  19.690  18.920  44.610
 1694BOLB   C3A40639  19.780  18.910  44.990
 1694BOLB   C4A40640  19.870  19.290  45.150
 1694BOLB   C1B40641  19.310  18.850  44.270
 1694BOLB   C2B40642  19.180  19.010  44.710
 1694BOLB   C3B40643  18.910  18.940  45.020
 1694BOLB   C4B40644  18.660  18.540  45.090
 1694BOLB   NC240645  19.920  20.570  47.360
 1694BOLB   PO240646  20.200  20.750  46.920
 1694BOLB   GL340647  20.380  20.640  46.500
 1694BOLB   GL440648  20.340  20.900  46.220
 1694BOLB   C1C40649  20.210  20.430  46.240
 1694BOLB   C2C40650  20.190  20.160  45.880
 1694BOLB   C3C40651  20.090  19.850  45.650
 1694BOLB   C4C40652  20.100  19.630  45.300
 1694BOLB   C1D40653  20.000  20.660  45.880
 1694BOLB   C2D40654  19.840  20.360  45.560
 1694BOLB   C3D40655  19.750  20.110  45.240
 1694BOLB   C4D40656  19.620  20.120  44.820
 1695BOLB   NC140657  29.765  11.390  32.980
 1695BOLB   PO140658  29.965  11.620  32.590
 1695BOLB   GL140659  30.305  11.380  32.670
 1695BOLB   GL240660  30.325  11.070  32.490
 1695BOLB   C1A40661  30.775  11.320  32.640
 1695BOLB   C2A40662  31.235  11.450  32.530
 1695BOLB   C3A40663  31.405  11.760  32.350
 1695BOLB   C4A40664  31.765  11.740  32.490
 1695BOLB   C1B40665  30.705  11.100  32.180
 1695BOLB   C2B40666  31.125  10.980  32.330
 1695BOLB   C3B40667  31.305  10.690  32.520
 1695BOLB   C4B40668  31.405  10.210  32.510
 1695BOLB   NC240669  33.215  10.050  32.550
 1695BOLB   PO240670  33.305  10.370  32.270
 1695BOLB   GL340671  32.895  10.290  32.100
 1695BOLB   GL440672  32.945  10.170  31.780
 1695BOLB   C1C40673  32.555  10.480  32.320
 1695BOLB   C2C40674  32.265  10.660  32.660
 1695BOLB   C3C40675  32.135  11.060  32.770
 1695BOLB   C4C40676  32.135  11.430  32.470
 1695BOLB   C1D40677  32.675   9.810  31.820
 1695BOLB   C2D40678  32.295   9.580  31.810
 1695BOLB   C3D40679  31.985   9.590  32.210
 1695BOLB   C4D40680  31.775   9.770  32.610
 1696BOLB   NC140681  14.690  20.350  25.110
 1696BOLB   PO140682  14.470  20.010  24.880
 1696BOLB   GL140683  14.050  19.960  24.780
 1696BOLB   GL240684  14.040  19.670  24.780
 1696BOLB   C1A40685  13.680  20.090  24.460
 1696BOLB   C2A40686  13.290  20.290  24.330
 1696BOLB   C3A40687  12.880  20.150  24.420
 1696BOLB   C4A40688  12.590  20.290  24.800
 1696BOLB   C1B40689  13.660  19.530  24.390
 1696BOLB   C2B40690  13.210  19.330  24.310
 1696BOLB   C3B40691  12.720  19.200  24.410
 1696BOLB   C4B40692  12.440  19.180  24.690
 1696BOLB   NC240693  10.190  20.330  24.010
 1696BOLB   PO240694  10.510  20.100  24.250
 1696BOLB   GL340695  10.810  20.010  24.510
 1696BOLB   GL440696  10.680  19.940  24.920
 1696BOLB   C1C40697  11.200  20.180  24.730
 1696BOLB   C2C40698  11.470  20.270  25.020
 1696BOLB   C3C40699  11.820  20.260  25.220
 1696BOLB   C4C40700  12.180  20.290  25.000
 1696BOLB   C1D40701  10.940  19.620  24.920
 1696BOLB   C2D40702  11.200  19.500  25.170
 1696BOLB   C3D40703  11.400  19.220  25.380
 1696BOLB   C4D40704  11.040  18.950  25.420
 1697BOLB   NC140705  20.810  20.490  41.990
 1697BOLB   PO140706  21.020  20.840  41.920
 1697BOLB   GL140707  21.020  21.230  42.160
 1697BOLB   GL240708  20.990  21.110  42.420
 1697BOLB   C1A40709  21.120  21.620  42.400
 1697BOLB   C2A40710  20.990  21.980  42.700
 1697BOLB   C3A40711  20.660  22.070  43.040
 1697BOLB   C4A40712  20.340  22.200  43.410
 1697BOLB   C1B40713  20.730  21.310  42.600
 1697BOLB   C2B40714  20.540  21.770  42.480
 1697BOLB   C3B40715  20.110  21.880  42.470
 1697BOLB   C4B40716  19.830  22.220  42.510
 1697BOLB   NC240717  19.060  23.160  45.340
 1697BOLB   PO240718  19.600  23.210  45.460
 1697BOLB   GL340719  19.750  22.820  45.170
 1697BOLB   GL440720  19.430  22.620  45.000
 1697BOLB   C1C40721  19.930  22.600  44.860
 1697BOLB   C2C40722  20.100  22.360  44.620
 1697BOLB   C3C40723  20.060  22.480  44.160
 1697BOLB   C4C40724  20.200  22.230  43.850
 1697BOLB   C1D40725  19.200  22.400  44.650
 1697BOLB   C2D40726  19.070  22.310  44.220
 1697BOLB   C3D40727  19.420  22.290  43.930
 1697BOLB   C4D40728  19.720  22.040  43.790
 1698BOLB   NC140729  25.100  20.650  35.820
 1698BOLB   PO140730  25.220  20.550  36.270
 1698BOLB   GL140731  25.310  21.000  36.180
 1698BOLB   GL240732  25.620  20.890  35.930
 1698BOLB   C1A40733  25.430  21.370  35.990
 1698BOLB   C2A40734  25.650  21.730  35.700
 1698BOLB   C3A40735  25.630  22.240  35.630
 1698BOLB   C4A40736  25.990  22.450  35.760
 1698BOLB   C1B40737  26.050  20.990  35.910
 1698BOLB   C2B40738  26.515  21.020  35.800
 1698BOLB   C3B40739  26.825  21.180  35.840
 1698BOLB   C4B40740  27.215  21.590  35.740
 1698BOLB   NC240741  26.985  23.990  34.310
 1698BOLB   PO240742  27.285  24.020  34.600
 1698BOLB   GL340743  26.915  23.810  34.770
 1698BOLB   GL440744  26.635  23.790  34.620
 1698BOLB   C1C40745  26.945  23.630  35.040
 1698BOLB   C2C40746  26.795  23.410  35.350
 1698BOLB   C3C40747  26.545  23.180  35.740
 1698BOLB   C4C40748  26.290  22.850  35.910
 1698BOLB   C1D40749  26.465  23.750  34.930
 1698BOLB   C2D40750  26.320  23.590  35.250
 1698BOLB   C3D40751  26.070  23.370  35.560
 1698BOLB   C4D40752  25.870  23.020  35.670
 1699BOLB   NC140753  24.720   0.020  35.140
 1699BOLB   PO140754  24.870  26.110  34.890
 1699BOLB   GL140755  24.630  25.880  35.070
 1699BOLB   GL240756  24.380  26.110  35.150
 1699BOLB   C1A40757  24.720  25.570  35.320
 1699BOLB   C2A40758  24.660  25.070  35.440
 1699BOLB   C3A40759  24.400  24.830  35.650
 1699BOLB   C4A40760  23.990  24.760  35.530
 1699BOLB   C1B40761  24.230  25.730  35.310
 1699BOLB   C2B40762  24.240  25.410  35.390
 1699BOLB   C3B40763  24.270  24.980  35.180
 1699BOLB   C4B40764  24.610  24.630  35.200
 1699BOLB   NC240765  24.590   0.150  35.930
 1699BOLB   PO240766  24.520   0.280  35.560
 1699BOLB   GL340767  24.260  26.360  35.580
 1699BOLB   GL440768  24.030  26.430  35.840
 1699BOLB   C1C40769  23.960  26.200  35.370
 1699BOLB   C2C40770  23.710  25.960  35.250
 1699BOLB   C3C40771  23.770  25.530  35.380
 1699BOLB   C4C40772  23.800  25.120  35.680
 1699BOLB   C1D40773  23.710  26.150  35.830
 1699BOLB   C2D40774  23.400  25.850  35.800
 1699BOLB   C3D40775  23.190  25.480  35.540
 1699BOLB   C4D40776  23.120  25.430  35.130
 1700BOLB   NC140777  21.860  23.700  34.910
 1700BOLB   PO140778  21.630  23.710  35.230
 1700BOLB   GL140779  21.810  24.130  35.190
 1700BOLB   GL240780  21.610  24.360  35.050
 1700BOLB   C1A40781  21.970  24.470  35.510
 1700BOLB   C2A40782  22.330  24.790  35.710
 1700BOLB   C3A40783  22.430  25.080  36.020
 1700BOLB   C4A40784  22.270  25.510  36.080
 1700BOLB   C1B40785  21.780  24.850  35.170
 1700BOLB   C2B40786  22.020  25.250  35.380
 1700BOLB   C3B40787  22.330  25.440  35.420
 1700BOLB   C4B40788  22.720  25.360  35.430
 1700BOLB   NC240789  22.440   1.860  36.380
 1700BOLB   PO240790  22.350   1.720  35.910
 1700BOLB   GL340791  22.280   1.280  35.680
 1700BOLB   GL440792  22.250   1.250  35.340
 1700BOLB   C1C40793  22.410   0.940  35.870
 1700BOLB   C2C40794  22.510   0.480  35.960
 1700BOLB   C3C40795  22.520  26.390  36.050
 1700BOLB   C4C40796  22.410  26.010  36.080
 1700BOLB   C1D40797  22.020   0.860  35.400
 1700BOLB   C2D40798  21.970   0.390  35.400
 1700BOLB   C3D40799  21.670   0.210  35.500
 1700BOLB   C4D40800  21.250   0.380  35.360
 1701BOLB   NC140801  25.740   7.100  32.200
 1701BOLB   PO140802  25.560   7.250  31.860
 1701BOLB   GL140803  25.690   6.890  31.750
 1701BOLB   GL240804  26.050   6.780  31.620
 1701BOLB   C1A40805  25.930   6.540  32.010
 1701BOLB   C2A40806  25.930   6.150  32.310
 1701BOLB   C3A40807  25.900   6.060  32.800
 1701BOLB   C4A40808  25.740   5.660  32.940
 1701BOLB   C1B40809  26.220   6.420  31.630
 1701BOLB   C2B40810  26.410   6.140  31.840
 1701BOLB   C3B40811  26.745   6.080  32.080
 1701BOLB   C4B40812  27.135   6.060  32.170
 1701BOLB   NC240813  27.255   3.560  32.900
 1701BOLB   PO240814  26.795   3.480  32.900
 1701BOLB   GL340815  26.615   3.940  32.970
 1701BOLB   GL440816  26.895   4.070  32.690
 1701BOLB   C1C40817  26.340   4.270  33.120
 1701BOLB   C2C40818  26.350   4.640  33.340
 1701BOLB   C3C40819  26.200   4.980  33.250
 1701BOLB   C4C40820  25.850   5.260  33.100
 1701BOLB   C1D40821  26.925   4.240  32.370
 1701BOLB   C2D40822  26.915   4.680  32.320
 1701BOLB   C3D40823  27.055   4.960  32.020
 1701BOLB   C4D40824  26.865   5.270  31.890
 1702BOLB   NC140825  15.680  13.470  33.220
 1702BOLB   PO140826  15.580  13.380  33.610
 1702BOLB   GL140827  15.420  13.090  33.660
 1702BOLB   GL240828  15.470  12.860  33.440
 1702BOLB   C1A40829  15.260  12.630  33.870
 1702BOLB   C2A40830  14.900  12.370  33.980
 1702BOLB   C3A40831  14.500  12.160  33.750
 1702BOLB   C4A40832  14.260  11.750  33.620
 1702BOLB   C1B40833  15.130  12.500  33.350
 1702BOLB   C2B40834  14.730  12.170  33.330
 1702BOLB   C3B40835  14.690  11.820  33.460
 1702BOLB   C4B40836  14.800  11.310  33.640
 1702BOLB   NC240837  13.050  10.160  34.510
 1702BOLB   PO240838  13.170   9.910  34.140
 1702BOLB   GL340839  13.530  10.160  34.340
 1702BOLB   GL440840  13.450  10.220  34.770
 1702BOLB   C1C40841  13.730  10.540  34.150
 1702BOLB   C2C40842  13.960  10.890  34.040
 1702BOLB   C3C40843  13.960  11.110  33.790
 1702BOLB   C4C40844  14.210  11.360  33.580
 1702BOLB   C1D40845  13.750  10.430  34.740
 1702BOLB   C2D40846  14.250  10.460  34.540
 1702BOLB   C3D40847  14.540  10.790  34.510
 1702BOLB   C4D40848  14.500  11.070  34.170
 1703BOLB   NC140849  21.730  12.720  22.590
 1703BOLB   PO140850  21.760  12.750  22.240
 1703BOLB   GL140851  21.660  12.480  21.880
 1703BOLB   GL240852  21.430  12.390  21.920
 1703BOLB   C1A40853  21.690  12.400  21.450
 1703BOLB   C2A40854  21.870  12.080  21.160
 1703BOLB   C3A40855  21.860  12.030  20.750
 1703BOLB   C4A40856  21.790  11.720  20.450
 1703BOLB   C1B40857  21.170  12.380  21.520
 1703BOLB   C2B40858  20.970  12.190  21.210
 1703BOLB   C3B40859  20.890  11.750  21.190
 1703BOLB   C4B40860  20.910  11.300  20.930
 1703BOLB   NC240861  20.790  10.880  18.560
 1703BOLB   PO240862  20.760  10.460  18.690
 1703BOLB   GL340863  21.050  10.720  19.010
 1703BOLB   GL440864  21.370  10.710  18.970
 1703BOLB   C1C40865  20.950  11.180  19.220
 1703BOLB   C2C40866  21.170  11.360  19.540
 1703BOLB   C3C40867  21.620  11.430  19.760
 1703BOLB   C4C40868  21.800  11.600  20.080
 1703BOLB   C1D40869  21.150  10.840  19.460
 1703BOLB   C2D40870  20.980  10.800  19.870
 1703BOLB   C3D40871  20.700  10.870  20.180
 1703BOLB   C4D40872  20.470  11.030  20.640
 1704BOLB   NC140873  17.260  19.390  41.110
 1704BOLB   PO140874  17.460  19.690  41.300
 1704BOLB   GL140875  17.200  19.430  41.630
 1704BOLB   GL240876  16.940  19.560  41.560
 1704BOLB   C1A40877  17.000  19.450  42.100
 1704BOLB   C2A40878  17.050  19.370  42.530
 1704BOLB   C3A40879  17.050  19.260  43.010
 1704BOLB   C4A40880  16.850  18.980  43.320
 1704BOLB   C1B40881  16.520  19.680  41.710
 1704BOLB   C2B40882  15.990  19.620  41.760
 1704BOLB   C3B40883  15.660  19.280  41.890
 1704BOLB   C4B40884  15.400  19.440  42.140
 1704BOLB   NC240885  15.880  18.460  45.540
 1704BOLB   PO240886  15.910  18.180  45.110
 1704BOLB   GL340887  16.070  18.010  44.610
 1704BOLB   GL440888  15.930  17.790  44.480
 1704BOLB   C1C40889  16.290  18.190  44.370
 1704BOLB   C2C40890  16.340  18.250  44.010
 1704BOLB   C3C40891  16.360  18.560  43.720
 1704BOLB   C4C40892  16.610  18.710  43.410
 1704BOLB   C1D40893  16.050  17.850  44.080
 1704BOLB   C2D40894  16.270  17.710  43.730
 1704BOLB   C3D40895  16.470  17.740  43.360
 1704BOLB   C4D40896  16.370  17.930  42.880
 1705BOLB   NC140897  23.050  24.750  22.430
 1705BOLB   PO140898  23.420  24.600  22.580
 1705BOLB   GL140899  23.210  24.320  22.830
 1705BOLB   GL240900  23.180  24.350  23.170
 1705BOLB   C1A40901  23.140  23.940  22.870
 1705BOLB   C2A40902  22.880  23.570  22.910
 1705BOLB   C3A40903  22.860  23.100  23.090
 1705BOLB   C4A40904  22.920  22.760  23.170
 1705BOLB   C1B40905  23.100  24.000  23.440
 1705BOLB   C2B40906  22.740  23.680  23.520
 1705BOLB   C3B40907  22.410  23.330  23.320
 1705BOLB   C4B40908  22.440  22.960  23.300
 1705BOLB   NC240909  24.120  23.930  22.540
 1705BOLB   PO240910  24.200  23.670  22.180
 1705BOLB   GL340911  23.940  23.290  22.160
 1705BOLB   GL440912  23.600  23.390  22.060
 1705BOLB   C1C40913  23.800  22.830  22.010
 1705BOLB   C2C40914  23.750  22.470  22.240
 1705BOLB   C3C40915  23.380  22.260  22.580
 1705BOLB   C4C40916  23.020  22.240  22.970
 1705BOLB   C1D40917  23.460  23.070  22.290
 1705BOLB   C2D40918  23.070  22.970  22.370
 1705BOLB   C3D40919  22.830  23.140  22.560
 1705BOLB   C4D40920  22.500  23.040  22.730
 1706BOLB   NC140921  22.310  12.830  17.480
 1706BOLB   PO140922  21.880  12.990  17.580
 1706BOLB   GL140923  22.080  13.010  18.010
 1706BOLB   GL240924  22.480  12.780  17.980
 1706BOLB   C1A40925  21.920  13.110  18.450
 1706BOLB   C2A40926  21.860  13.170  18.780
 1706BOLB   C3A40927  22.020  13.160  19.140
 1706BOLB   C4A40928  22.130  12.950  19.510
 1706BOLB   C1B40929  22.270  12.750  18.380
 1706BOLB   C2B40930  22.290  12.640  18.700
 1706BOLB   C3B40931  22.450  12.880  19.100
 1706BOLB   C4B40932  22.500  13.220  19.380
 1706BOLB   NC240933  22.500  12.240  17.610
 1706BOLB   PO240934  22.710  11.890  17.760
 1706BOLB   GL340935  22.770  12.170  18.110
 1706BOLB   GL440936  22.460  12.330  18.140
 1706BOLB   C1C40937  22.740  12.410  18.580
 1706BOLB   C2C40938  22.590  12.270  19.050
 1706BOLB   C3C40939  22.560  12.480  19.420
 1706BOLB   C4C40940  22.130  12.530  19.690
 1706BOLB   C1D40941  22.140  12.200  18.440
 1706BOLB   C2D40942  22.060  12.170  18.860
 1706BOLB   C3D40943  22.130  11.770  19.190
 1706BOLB   C4D40944  22.480  11.430  19.380
 1707BOLB   NC140945  14.840  17.410  36.090
 1707BOLB   PO140946  14.560  17.010  36.020
 1707BOLB   GL140947  14.140  17.020  36.180
 1707BOLB   GL240948  14.070  17.160  36.500
 1707BOLB   C1A40949  13.700  16.900  36.280
 1707BOLB   C2A40950  13.290  16.920  36.500
 1707BOLB   C3A40951  12.970  16.840  36.540
 1707BOLB   C4A40952  12.790  16.680  36.870
 1707BOLB   C1B40953  13.690  17.110  36.780
 1707BOLB   C2B40954  13.440  16.800  36.970
 1707BOLB   C3B40955  13.220  16.620  37.290
 1707BOLB   C4B40956  13.000  16.480  37.590
 1707BOLB   NC240957  10.500  16.450  39.120
 1707BOLB   PO240958  10.690  16.570  38.720
 1707BOLB   GL340959  11.100  16.630  38.610
 1707BOLB   GL440960  11.190  16.820  38.800
 1707BOLB   C1C40961  11.430  16.710  38.310
 1707BOLB   C2C40962  11.840  16.760  37.940
 1707BOLB   C3C40963  12.190  16.760  37.660
 1707BOLB   C4C40964  12.520  16.830  37.350
 1707BOLB   C1D40965  11.620  17.030  38.680
 1707BOLB   C2D40966  11.950  16.780  38.570
 1707BOLB   C3D40967  12.300  16.840  38.170
 1707BOLB   C4D40968  12.620  16.880  37.880
 1708BOLB   NC140969  18.230  24.620  28.720
 1708BOLB   PO140970  17.840  24.790  28.640
 1708BOLB   GL140971  17.690  25.210  28.690
 1708BOLB   GL240972  17.660  25.160  29.040
 1708BOLB   C1A40973  17.830  25.550  28.430
 1708BOLB   C2A40974  17.570  25.890  28.210
 1708BOLB   C3A40975  17.130  26.060  28.360
 1708BOLB   C4A40976  16.910  26.440  28.370
 1708BOLB   C1B40977  17.810  25.550  29.000
 1708BOLB   C2B40978  17.720  25.950  29.130
 1708BOLB   C3B40979  17.940  26.410  29.090
 1708BOLB   C4B40980  18.070   0.320  28.980
 1708BOLB   NC240981  15.920   1.930  27.190
 1708BOLB   PO240982  15.660   1.800  27.560
 1708BOLB   GL340983  15.780   1.520  27.850
 1708BOLB   GL440984  15.800   1.200  27.780
 1708BOLB   C1C40985  16.250   1.290  27.910
 1708BOLB   C2C40986  16.490   1.090  28.200
 1708BOLB   C3C40987  16.740   0.730  28.140
 1708BOLB   C4C40988  16.720   0.280  28.190
 1708BOLB   C1D40989  16.040   1.060  27.500
 1708BOLB   C2D40990  16.470   0.830  27.650
 1708BOLB   C3D40991  16.370   0.460  27.870
 1708BOLB   C4D40992  16.240   0.170  28.070
 1709BOLB   NC140993  27.555   9.300  35.950
 1709BOLB   PO140994  27.895   9.120  36.200
 1709BOLB   GL140995  28.305   8.760  36.290
 1709BOLB   GL240996  28.545   8.830  36.450
 1709BOLB   C1A40997  28.475   8.400  36.300
 1709BOLB   C2A40998  28.885   8.350  36.460
 1709BOLB   C3A40999  29.265   8.110  36.540
 1709BOLB   C4A41000  29.635   7.870  36.480
 1709BOLB   C1B41001  28.845   8.790  36.810
 1709BOLB   C2B41002  28.605   8.660  37.190
 1709BOLB   C3B41003  28.465   8.320  37.240
 1709BOLB   C4B41004  28.605   7.990  37.200
 1709BOLB   NC241005  31.625   6.830  37.420
 1709BOLB   PO241006  31.175   6.540  37.370
 1709BOLB   GL341007  30.885   6.910  37.260
 1709BOLB   GL441008  30.635   7.110  37.470
 1709BOLB   C1C41009  30.735   7.080  36.960
 1709BOLB   C2C41010  30.695   7.390  36.790
 1709BOLB   C3C41011  30.465   7.610  36.530
 1709BOLB   C4C41012  30.115   7.890  36.380
 1709BOLB   C1D41013  30.325   7.410  37.210
 1709BOLB   C2D41014  30.055   7.440  36.850
 1709BOLB   C3D41015  29.965   7.440  36.360
 1709BOLB   C4D41016  29.615   7.350  36.120
 1710BOLB   NC141017  20.190  10.310  37.890
 1710BOLB   PO141018  20.150  10.430  37.490
 1710BOLB   GL141019  20.100   9.960  37.440
 1710BOLB   GL241020  20.200   9.750  37.800
 1710BOLB   C1A41021  19.870   9.650  37.200
 1710BOLB   C2A41022  19.590   9.320  37.340
 1710BOLB   C3A41023  19.380   8.950  37.450
 1710BOLB   C4A41024  18.990   8.570  37.440
 1710BOLB   C1B41025  19.930   9.470  37.750
 1710BOLB   C2B41026  19.700   9.190  37.850
 1710BOLB   C3B41027  19.470   9.030  38.130
 1710BOLB   C4B41028  19.360   8.710  38.490
 1710BOLB   NC241029  17.150   7.290  38.540
 1710BOLB   PO241030  17.100   7.490  38.170
 1710BOLB   GL341031  17.400   7.660  38.250
 1710BOLB   GL441032  17.440   7.920  38.470
 1710BOLB   C1C41033  17.810   7.760  38.130
 1710BOLB   C2C41034  18.060   8.100  38.160
 1710BOLB   C3C41035  18.440   8.110  38.150
 1710BOLB   C4C41036  18.730   8.310  37.770
 1710BOLB   C1D41037  17.580   8.250  38.020
 1710BOLB   C2D41038  17.930   8.500  37.910
 1710BOLB   C3D41039  18.060   8.950  37.640
 1710BOLB   C4D41040  18.110   9.370  37.590
 1711BOLB   NC141041  22.130  13.600  21.660
 1711BOLB   PO141042  22.550  13.580  21.440
 1711BOLB   GL141043  22.310  13.410  21.110
 1711BOLB   GL241044  22.610  13.210  21.030
 1711BOLB   C1A41045  22.160  13.040  20.950
 1711BOLB   C2A41046  22.290  12.860  20.660
 1711BOLB   C3A41047  22.440  12.410  20.700
 1711BOLB   C4A41048  22.420  12.050  20.480
 1711BOLB   C1B41049  22.540  13.300  20.590
 1711BOLB   C2B41050  22.320  13.310  20.170
 1711BOLB   C3B41051  22.150  13.450  19.700
 1711BOLB   C4B41052  21.750  13.520  19.550
 1711BOLB   NC241053  22.700  10.800  18.650
 1711BOLB   PO241054  22.470  10.400  18.820
 1711BOLB   GL341055  22.290  10.710  19.050
 1711BOLB   GL441056  22.500  11.010  19.020
 1711BOLB   C1C41057  22.140  10.940  19.370
 1711BOLB   C2C41058  22.050  11.080  19.750
 1711BOLB   C3C41059  22.250  11.260  20.130
 1711BOLB   C4C41060  22.320  11.690  20.260
 1711BOLB   C1D41061  22.710  10.880  19.330
 1711BOLB   C2D41062  22.510  11.030  19.660
 1711BOLB   C3D41063  22.720  11.290  19.990
 1711BOLB   C4D41064  23.190  11.240  20.090
 1712BOLB   NC141065  15.180  20.480  23.860
 1712BOLB   PO141066  15.360  20.310  23.500
 1712BOLB   GL141067  14.870  20.270  23.370
 1712BOLB   GL241068  14.750  20.380  23.590
 1712BOLB   C1A41069  14.430  20.480  23.240
 1712BOLB   C2A41070  14.090  20.780  23.180
 1712BOLB   C3A41071  13.700  20.740  23.440
 1712BOLB   C4A41072  13.220  20.800  23.570
 1712BOLB   C1B41073  14.320  20.310  23.710
 1712BOLB   C2B41074  13.980  20.340  23.480
 1712BOLB   C3B41075  13.600  20.230  23.380
 1712BOLB   C4B41076  13.260  20.480  23.240
 1712BOLB   NC241077  11.060  21.010  22.460
 1712BOLB   PO241078  11.470  20.810  22.260
 1712BOLB   GL341079  11.800  20.660  22.440
 1712BOLB   GL441080  12.020  20.570  22.210
 1712BOLB   C1C41081  12.100  20.480  22.680
 1712BOLB   C2C41082  12.460  20.330  22.840
 1712BOLB   C3C41083  12.820  20.470  23.010
 1712BOLB   C4C41084  12.820  20.680  23.470
 1712BOLB   C1D41085  12.410  20.430  22.220
 1712BOLB   C2D41086  12.760  20.370  22.430
 1712BOLB   C3D41087  13.120  20.150  22.720
 1712BOLB   C4D41088  13.500  20.040  22.920
 1713BOLB   NC141089  26.995  13.480  41.140
 1713BOLB   PO141090  26.625  13.670  41.450
 1713BOLB   GL141091  26.875  13.700  41.850
 1713BOLB   GL241092  27.095  14.070  41.860
 1713BOLB   C1A41093  26.935  13.800  42.300
 1713BOLB   C2A41094  26.955  13.610  42.660
 1713BOLB   C3A41095  26.885  13.180  42.830
 1713BOLB   C4A41096  26.945  12.770  42.950
 1713BOLB   C1B41097  27.325  14.140  42.180
 1713BOLB   C2B41098  27.245  14.100  42.580
 1713BOLB   C3B41099  27.185  13.890  42.950
 1713BOLB   C4B41100  27.275  13.480  43.020
 1713BOLB   NC241101  27.575  12.350  45.510
 1713BOLB   PO241102  27.465  12.010  45.270
 1713BOLB   GL341103  27.235  12.130  44.770
 1713BOLB   GL441104  26.855  11.940  44.720
 1713BOLB   C1C41105  27.205  12.000  44.320
 1713BOLB   C2C41106  27.275  12.060  43.900
 1713BOLB   C3C41107  27.215  12.250  43.480
 1713BOLB   C4C41108  27.105  12.630  43.230
 1713BOLB   C1D41109  26.725  12.360  44.660
 1713BOLB   C2D41110  26.495  12.620  44.300
 1713BOLB   C3D41111  26.310  12.670  43.930
 1713BOLB   C4D41112  26.110  12.780  43.560
 1714BOLB   NC141113  25.750  17.200  29.300
 1714BOLB   PO141114  25.750  17.290  28.870
 1714BOLB   GL141115  25.880  17.640  28.970
 1714BOLB   GL241116  26.090  17.610  29.280
 1714BOLB   C1A41117  26.090  18.070  29.090
 1714BOLB   C2A41118  26.290  18.420  29.290
 1714BOLB   C3A41119  26.350  18.840  29.180
 1714BOLB   C4A41120  26.360  19.310  29.410
 1714BOLB   C1B41121  26.485  17.830  29.410
 1714BOLB   C2B41122  26.715  18.130  29.490
 1714BOLB   C3B41123  26.785  18.580  29.590
 1714BOLB   C4B41124  26.955  18.930  29.900
 1714BOLB   NC241125  28.485  20.700  29.770
 1714BOLB   PO241126  28.075  20.660  29.820
 1714BOLB   GL341127  27.685  20.520  29.530
 1714BOLB   GL441128  27.445  20.470  29.620
 1714BOLB   C1C41129  27.365  20.400  29.110
 1714BOLB   C2C41130  26.985  20.210  28.890
 1714BOLB   C3C41131  26.655  19.970  29.110
 1714BOLB   C4C41132  26.575  19.660  29.380
 1714BOLB   C1D41133  27.525  20.060  29.510
 1714BOLB   C2D41134  27.405  19.690  29.680
 1714BOLB   C3D41135  27.105  19.350  29.570
 1714BOLB   C4D41136  26.935  19.010  29.420
 1715BOLB   NC141137  20.710  23.130  44.950
 1715BOLB   PO141138  21.060  23.090  45.180
 1715BOLB   GL141139  21.200  23.040  44.750
 1715BOLB   GL241140  21.460  23.290  44.570
 1715BOLB   C1A41141  21.310  22.800  44.500
 1715BOLB   C2A41142  21.550  22.570  44.220
 1715BOLB   C3A41143  21.680  22.500  43.810
 1715BOLB   C4A41144  21.770  22.560  43.460
 1715BOLB   C1B41145  21.230  23.190  44.160
 1715BOLB   C2B41146  21.100  23.410  43.780
 1715BOLB   C3B41147  21.160  23.790  43.590
 1715BOLB   C4B41148  20.980  24.080  43.240
 1715BOLB   NC241149  22.650  24.310  43.880
 1715BOLB   PO241150  22.800  24.410  43.530
 1715BOLB   GL341151  22.850  24.070  43.270
 1715BOLB   GL441152  23.010  23.740  43.320
 1715BOLB   C1C41153  22.510  23.780  43.280
 1715BOLB   C2C41154  22.390  23.440  43.270
 1715BOLB   C3C41155  21.980  23.290  43.360
 1715BOLB   C4C41156  21.930  22.920  43.180
 1715BOLB   C1D41157  23.310  23.530  43.230
 1715BOLB   C2D41158  23.570  23.210  43.320
 1715BOLB   C3D41159  23.700  22.890  43.090
 1715BOLB   C4D41160  24.220  22.870  43.110
 1716BOLB   NC141161  17.790  12.830  25.360
 1716BOLB   PO141162  18.150  12.550  25.510
 1716BOLB   GL141163  17.930  12.250  25.360
 1716BOLB   GL241164  17.680  12.370  25.200
 1716BOLB   C1A41165  17.660  11.820  25.290
 1716BOLB   C2A41166  17.460  11.450  25.250
 1716BOLB   C3A41167  17.110  11.310  25.030
 1716BOLB   C4A41168  16.880  11.280  24.720
 1716BOLB   C1B41169  17.510  12.390  24.750
 1716BOLB   C2B41170  17.350  12.280  24.410
 1716BOLB   C3B41171  17.240  12.350  23.970
 1716BOLB   C4B41172  16.810  12.220  23.730
 1716BOLB   NC241173  14.850  10.900  23.030
 1716BOLB   PO241174  14.910  10.800  23.430
 1716BOLB   GL341175  15.110  11.160  23.580
 1716BOLB   GL441176  15.180  11.410  23.290
 1716BOLB   C1C41177  15.520  11.410  23.770
 1716BOLB   C2C41178  15.880  11.080  23.930
 1716BOLB   C3C41179  16.170  10.880  24.220
 1716BOLB   C4C41180  16.540  11.060  24.500
 1716BOLB   C1D41181  15.580  11.530  23.340
 1716BOLB   C2D41182  16.000  11.490  23.580
 1716BOLB   C3D41183  16.000  11.550  24.020
 1716BOLB   C4D41184  16.040  11.370  24.450
 1717BOLB   NC141185  24.640  10.760  40.510
 1717BOLB   PO141186  24.350  11.170  40.590
 1717BOLB   GL141187  24.430  11.010  40.940
 1717BOLB   GL241188  24.460  10.650  40.980
 1717BOLB   C1A41189  24.350  10.860  41.370
 1717BOLB   C2A41190  24.560  10.490  41.630
 1717BOLB   C3A41191  24.580  10.150  41.970
 1717BOLB   C4A41192  24.700   9.930  42.370
 1717BOLB   C1B41193  24.640  10.330  41.190
 1717BOLB   C2B41194  24.870  10.100  41.540
 1717BOLB   C3B41195  25.060  10.000  41.850
 1717BOLB   C4B41196  25.150   9.880  42.230
 1717BOLB   NC241197  25.050   8.430  43.820
 1717BOLB   PO241198  24.590   8.360  43.750
 1717BOLB   GL341199  24.700   8.810  43.730
 1717BOLB   GL441200  24.420   8.880  43.730
 1717BOLB   C1C41201  24.780   9.210  43.530
 1717BOLB   C2C41202  24.760   9.460  43.300
 1717BOLB   C3C41203  24.840   9.680  43.000
 1717BOLB   C4C41204  24.900   9.810  42.700
 1717BOLB   C1D41205  24.230   9.220  43.530
 1717BOLB   C2D41206  24.040   9.560  43.340
 1717BOLB   C3D41207  24.330   9.520  43.060
 1717BOLB   C4D41208  24.370   9.700  42.690
 1718BOLB   NC141209  19.860  13.970  46.990
 1718BOLB   PO141210  19.900  13.680  46.680
 1718BOLB   GL141211  20.360  13.740  46.420
 1718BOLB   GL241212  20.640  13.440  46.560
 1718BOLB   C1A41213  20.590  13.940  46.100
 1718BOLB   C2A41214  20.750  14.090  45.730
 1718BOLB   C3A41215  21.010  14.350  45.470
 1718BOLB   C4A41216  21.430  14.490  45.430
 1718BOLB   C1B41217  20.820  13.810  46.570
 1718BOLB   C2B41218  21.160  14.150  46.450
 1718BOLB   C3B41219  21.570  14.340  46.420
 1718BOLB   C4B41220  21.660  14.750  46.590
 1718BOLB   NC241221  21.550  13.070  47.430
 1718BOLB   PO241222  21.890  13.190  47.180
 1718BOLB   GL341223  21.900  13.250  46.740
 1718BOLB   GL441224  21.560  13.330  46.450
 1718BOLB   C1C41225  21.990  13.590  46.450
 1718BOLB   C2C41226  21.960  14.050  46.220
 1718BOLB   C3C41227  22.040  14.270  45.820
 1718BOLB   C4C41228  21.870  14.540  45.520
 1718BOLB   C1D41229  21.480  13.700  46.130
 1718BOLB   C2D41230  21.580  13.860  45.700
 1718BOLB   C3D41231  21.670  13.670  45.310
 1718BOLB   C4D41232  21.510  13.440  45.000
 1719BOLB   NC141233  20.150   2.050  35.340
 1719BOLB   PO141234  20.090   1.920  35.730
 1719BOLB   GL141235  19.970   1.620  35.440
 1719BOLB   GL241236  19.800   1.570  35.180
 1719BOLB   C1A41237  19.930   1.230  35.650
 1719BOLB   C2A41238  19.530   0.990  35.610
 1719BOLB   C3A41239  19.380   0.570  35.600
 1719BOLB   C4A41240  19.510   0.250  35.910
 1719BOLB   C1B41241  19.800   1.220  35.090
 1719BOLB   C2B41242  19.750   0.950  34.770
 1719BOLB   C3B41243  19.770   0.620  34.600
 1719BOLB   C4B41244  19.820   0.220  34.770
 1719BOLB   NC241245  20.500   2.140  36.700
 1719BOLB   PO241246  20.070   2.110  36.420
 1719BOLB   GL341247  19.820   1.700  36.430
 1719BOLB   GL441248  19.950   1.670  36.100
 1719BOLB   C1C41249  19.540   1.390  36.550
 1719BOLB   C2C41250  19.890   1.030  36.570
 1719BOLB   C3C41251  19.800   0.570  36.480
 1719BOLB   C4C41252  19.570   0.350  36.260
 1719BOLB   C1D41253  19.730   1.300  36.090
 1719BOLB   C2D41254  19.710   0.900  36.060
 1719BOLB   C3D41255  19.910   0.580  35.830
 1719BOLB   C4D41256  20.300   0.290  35.750
 1720BOLB   NC141257  24.690   9.290  38.560
 1720BOLB   PO141258  24.490   9.450  38.940
 1720BOLB   GL141259  24.400   9.160  39.260
 1720BOLB   GL241260  24.100   9.210  39.250
 1720BOLB   C1A41261  24.440   8.940  39.560
 1720BOLB   C2A41262  24.700   8.570  39.670
 1720BOLB   C3A41263  24.860   8.140  39.930
 1720BOLB   C4A41264  25.080   7.770  40.090
 1720BOLB   C1B41265  23.960   8.830  39.500
 1720BOLB   C2B41266  24.030   8.570  39.810
 1720BOLB   C3B41267  23.980   8.630  40.300
 1720BOLB   C4B41268  24.210   8.970  40.570
 1720BOLB   NC241269  25.980   5.930  41.080
 1720BOLB   PO241270  25.860   6.040  40.620
 1720BOLB   GL341271  25.560   6.250  40.390
 1720BOLB   GL441272  25.430   6.580  40.560
 1720BOLB   C1C41273  25.160   6.440  40.180
 1720BOLB   C2C41274  24.840   6.720  40.030
 1720BOLB   C3C41275  24.830   7.070  40.260
 1720BOLB   C4C41276  25.120   7.460  40.310
 1720BOLB   C1D41277  25.250   6.930  40.380
 1720BOLB   C2D41278  25.270   7.160  39.930
 1720BOLB   C3D41279  25.380   7.410  39.600
 1720BOLB   C4D41280  25.480   7.660  39.250
 1721BOLB   NC141281  11.800  12.230  31.470
 1721BOLB   PO141282  11.620  12.300  31.020
 1721BOLB   GL141283  11.860  12.600  31.060
 1721BOLB   GL241284  12.160  12.250  31.110
 1721BOLB   C1A41285  12.110  12.950  31.240
 1721BOLB   C2A41286  12.250  13.390  31.130
 1721BOLB   C3A41287  12.120  13.880  31.090
 1721BOLB   C4A41288  12.200  14.300  31.220
 1721BOLB   C1B41289  12.250  12.590  30.800
 1721BOLB   C2B41290  12.560  12.840  30.660
 1721BOLB   C3B41291  12.950  12.920  30.440
 1721BOLB   C4B41292  13.440  13.170  30.360
 1721BOLB   NC241293  10.530  13.990  32.330
 1721BOLB   PO241294  10.640  14.270  32.670
 1721BOLB   GL341295  11.080  14.330  32.650
 1721BOLB   GL441296  11.140  14.130  32.870
 1721BOLB   C1C41297  11.440  14.550  32.380
 1721BOLB   C2C41298  11.820  14.530  32.220
 1721BOLB   C3C41299  12.170  14.580  31.870
 1721BOLB   C4C41300  12.370  14.510  31.510
 1721BOLB   C1D41301  11.470  14.360  33.090
 1721BOLB   C2D41302  11.570  14.590  33.420
 1721BOLB   C3D41303  11.850  14.900  33.530
 1721BOLB   C4D41304  12.200  15.180  33.420
 1722BOLB   NC141305  24.720  21.710  36.620
 1722BOLB   PO141306  24.850  21.590  36.970
 1722BOLB   GL141307  24.990  21.880  37.150
 1722BOLB   GL241308  24.980  21.800  37.460
 1722BOLB   C1A41309  25.350  22.160  37.170
 1722BOLB   C2A41310  25.460  22.450  36.830
 1722BOLB   C3A41311  25.520  22.920  36.650
 1722BOLB   C4A41312  25.680  23.250  36.510
 1722BOLB   C1B41313  25.080  22.220  37.640
 1722BOLB   C2B41314  25.330  22.430  37.820
 1722BOLB   C3B41315  25.430  22.740  38.030
 1722BOLB   C4B41316  25.210  23.100  38.040
 1722BOLB   NC241317  26.785  24.660  36.070
 1722BOLB   PO241318  26.535  25.050  35.860
 1722BOLB   GL341319  26.250  24.710  35.920
 1722BOLB   GL441320  25.960  24.920  35.940
 1722BOLB   C1C41321  26.290  24.320  35.960
 1722BOLB   C2C41322  26.515  23.970  35.920
 1722BOLB   C3C41323  26.310  23.570  35.990
 1722BOLB   C4C41324  25.900  23.330  36.120
 1722BOLB   C1D41325  25.720  24.970  36.250
 1722BOLB   C2D41326  25.190  24.990  36.250
 1722BOLB   C3D41327  24.770  25.020  36.190
 1722BOLB   C4D41328  24.430  24.990  36.480
 1723BOLB   NC141329  14.120  16.670  30.630
 1723BOLB   PO141330  14.260  16.200  30.610
 1723BOLB   GL141331  13.840  16.210  30.400
 1723BOLB   GL241332  13.780  16.390  30.160
 1723BOLB   C1A41333  13.450  16.080  30.300
 1723BOLB   C2A41334  12.990  16.120  30.170
 1723BOLB   C3A41335  12.710  16.410  30.160
 1723BOLB   C4A41336  12.350  16.280  30.420
 1723BOLB   C1B41337  13.430  16.400  29.900
 1723BOLB   C2B41338  13.110  16.340  29.610
 1723BOLB   C3B41339  12.670  16.270  29.710
 1723BOLB   C4B41340  12.280  16.240  29.880
 1723BOLB   NC241341  10.380  15.090  29.720
 1723BOLB   PO241342  10.250  15.310  29.340
 1723BOLB   GL341343  10.650  15.400  29.460
 1723BOLB   GL441344  10.790  15.610  29.310
 1723BOLB   C1C41345  10.820  15.630  29.860
 1723BOLB   C2C41346  11.160  15.780  30.010
 1723BOLB   C3C41347  11.650  15.910  30.120
 1723BOLB   C4C41348  12.060  16.070  30.300
 1723BOLB   C1D41349  11.180  15.530  29.510
 1723BOLB   C2D41350  11.540  15.550  29.500
 1723BOLB   C3D41351  11.870  15.710  29.520
 1723BOLB   C4D41352  12.100  15.800  29.860
 1724BOLB   NC141353  20.400  17.120  43.120
 1724BOLB   PO141354  20.370  17.520  43.260
 1724BOLB   GL141355  20.280  17.200  43.650
 1724BOLB   GL241356  20.160  16.900  43.490
 1724BOLB   C1A41357  19.960  17.250  43.970
 1724BOLB   C2A41358  19.870  17.110  44.380
 1724BOLB   C3A41359  19.500  17.220  44.620
 1724BOLB   C4A41360  19.350  17.020  44.960
 1724BOLB   C1B41361  19.850  16.710  43.820
 1724BOLB   C2B41362  19.910  16.450  44.270
 1724BOLB   C3B41363  19.960  16.360  44.660
 1724BOLB   C4B41364  19.640  16.210  45.080
 1724BOLB   NC241365  18.640  15.040  46.370
 1724BOLB   PO241366  18.940  15.370  46.630
 1724BOLB   GL341367  18.790  15.630  46.370
 1724BOLB   GL441368  18.910  15.430  46.120
 1724BOLB   C1C41369  18.880  16.130  46.130
 1724BOLB   C2C41370  19.070  16.260  45.870
 1724BOLB   C3C41371  19.320  16.360  45.500
 1724BOLB   C4C41372  19.360  16.620  45.180
 1724BOLB   C1D41373  19.000  15.730  45.850
 1724BOLB   C2D41374  18.820  16.050  45.530
 1724BOLB   C3D41375  18.750  16.450  45.410
 1724BOLB   C4D41376  18.490  16.810  45.250
 1725BOLB   NC141377  16.750  24.020  36.860
 1725BOLB   PO141378  16.300  23.840  36.810
 1725BOLB   GL141379  16.090  23.970  36.550
 1725BOLB   GL241380  16.160  24.230  36.290
 1725BOLB   C1A41381  15.850  24.360  36.650
 1725BOLB   C2A41382  15.670  24.830  36.690
 1725BOLB   C3A41383  15.500  25.280  36.900
 1725BOLB   C4A41384  15.320  25.570  37.080
 1725BOLB   C1B41385  16.040  24.520  36.150
 1725BOLB   C2B41386  15.910  25.040  36.270
 1725BOLB   C3B41387  15.590  25.300  36.410
 1725BOLB   C4B41388  15.270  25.600  36.450
 1725BOLB   NC241389  14.540   0.150  39.470
 1725BOLB   PO241390  14.460   0.060  39.020
 1725BOLB   GL341391  14.350  26.190  38.720
 1725BOLB   GL441392  14.020  25.980  38.600
 1725BOLB   C1C41393  14.520  26.020  38.380
 1725BOLB   C2C41394  14.630  25.640  38.170
 1725BOLB   C3C41395  14.850  25.600  37.830
 1725BOLB   C4C41396  15.090  25.670  37.500
 1725BOLB   C1D41397  14.190  25.590  38.360
 1725BOLB   C2D41398  14.430  25.200  38.390
 1725BOLB   C3D41399  14.580  24.840  38.450
 1725BOLB   C4D41400  14.610  24.460  38.280
 1726BOLB   NC141401  17.140   1.740  37.620
 1726BOLB   PO141402  17.520   1.890  37.950
 1726BOLB   GL141403  17.610   1.490  37.700
 1726BOLB   GL241404  17.350   1.240  37.710
 1726BOLB   C1A41405  17.870   1.100  37.530
 1726BOLB   C2A41406  18.020   0.790  37.280
 1726BOLB   C3A41407  18.100   0.400  37.010
 1726BOLB   C4A41408  17.980   0.280  36.640
 1726BOLB   C1B41409  17.420   1.070  37.320
 1726BOLB   C2B41410  17.460   0.670  37.120
 1726BOLB   C3B41411  17.560   0.250  36.990
 1726BOLB   C4B41412  17.430  26.260  37.010
 1726BOLB   NC241413  17.530   2.010  36.980
 1726BOLB   PO241414  17.250   1.950  36.650
 1726BOLB   GL341415  17.500   1.540  36.720
 1726BOLB   GL441416  17.830   1.630  36.750
 1726BOLB   C1C41417  17.670   1.330  36.370
 1726BOLB   C2C41418  17.950   1.010  36.230
 1726BOLB   C3C41419  18.140   0.650  36.090
 1726BOLB   C4C41420  18.170   0.220  36.270
 1726BOLB   C1D41421  18.120   1.340  36.620
 1726BOLB   C2D41422  18.500   1.400  36.410
 1726BOLB   C3D41423  18.710   1.450  35.980
 1726BOLB   C4D41424  18.960   1.670  35.850
 1727BOLB   NC141425  26.010   9.430  25.680
 1727BOLB   PO141426  26.130   9.830  25.420
 1727BOLB   GL141427  26.455   9.830  25.120
 1727BOLB   GL241428  26.410   9.520  25.030
 1727BOLB   C1A41429  26.915   9.730  25.130
 1727BOLB   C2A41430  27.135   9.290  25.010
 1727BOLB   C3A41431  27.455   9.170  24.770
 1727BOLB   C4A41432  27.545   8.800  24.570
 1727BOLB   C1B41433  26.695   9.250  25.270
 1727BOLB   C2B41434  26.665   8.850  25.400
 1727BOLB   C3B41435  27.005   8.600  25.460
 1727BOLB   C4B41436  27.405   8.520  25.430
 1727BOLB   NC241437  28.735   6.110  23.740
 1727BOLB   PO241438  28.795   6.580  23.870
 1727BOLB   GL341439  28.695   6.880  24.170
 1727BOLB   GL441440  28.505   6.860  24.460
 1727BOLB   C1C41441  28.465   7.320  24.350
 1727BOLB   C2C41442  28.415   7.790  24.150
 1727BOLB   C3C41443  28.095   8.160  24.330
 1727BOLB   C4C41444  27.775   8.460  24.510
 1727BOLB   C1D41445  28.205   7.190  24.740
 1727BOLB   C2D41446  28.135   7.460  25.010
 1727BOLB   C3D41447  27.695   7.710  25.010
 1727BOLB   C4D41448  27.585   8.040  24.950
 1728BOLB   NC141449  31.985   7.200  36.230
 1728BOLB   PO141450  31.815   6.830  36.110
 1728BOLB   GL141451  31.545   7.210  35.960
 1728BOLB   GL241452  31.565   7.230  35.600
 1728BOLB   C1A41453  31.265   7.470  35.980
 1728BOLB   C2A41454  31.055   7.800  36.320
 1728BOLB   C3A41455  30.855   7.860  36.710
 1728BOLB   C4A41456  30.395   7.820  36.930
 1728BOLB   C1B41457  31.435   7.600  35.340
 1728BOLB   C2B41458  31.075   7.780  35.230
 1728BOLB   C3B41459  30.825   8.020  35.210
 1728BOLB   C4B41460  30.685   8.420  35.100
 1728BOLB   NC241461  29.875   6.080  38.100
 1728BOLB   PO241462  30.225   6.120  37.870
 1728BOLB   GL341463  30.075   6.610  37.770
 1728BOLB   GL441464  29.755   6.510  37.860
 1728BOLB   C1C41465  29.755   6.870  37.520
 1728BOLB   C2C41466  29.715   7.200  37.280
 1728BOLB   C3C41467  29.655   7.540  37.100
 1728BOLB   C4C41468  29.955   7.910  37.030
 1728BOLB   C1D41469  29.455   6.660  37.890
 1728BOLB   C2D41470  29.295   7.070  37.720
 1728BOLB   C3D41471  29.215   7.290  37.340
 1728BOLB   C4D41472  29.175   7.200  37.010
 1729BOLB   NC141473  28.935  21.410  32.580
 1729BOLB   PO141474  28.725  21.060  32.280
 1729BOLB   GL141475  28.615  20.970  32.760
 1729BOLB   GL241476  28.795  20.750  33.010
 1729BOLB   C1A41477  28.185  21.100  32.830
 1729BOLB   C2A41478  27.765  21.100  32.520
 1729BOLB   C3A41479  27.345  20.920  32.620
 1729BOLB   C4A41480  26.995  20.870  32.850
 1729BOLB   C1B41481  28.425  20.460  33.200
 1729BOLB   C2B41482  28.235  20.130  33.300
 1729BOLB   C3B41483  27.955  19.890  33.410
 1729BOLB   C4B41484  27.685  19.550  33.380
 1729BOLB   NC241485  28.505  22.700  32.580
 1729BOLB   PO241486  28.345  22.350  32.760
 1729BOLB   GL341487  27.895  22.220  32.940
 1729BOLB   GL441488  27.945  22.150  33.300
 1729BOLB   C1C41489  27.555  21.850  33.040
 1729BOLB   C2C41490  27.455  21.560  33.360
 1729BOLB   C3C41491  27.395  21.130  33.440
 1729BOLB   C4C41492  27.005  20.880  33.300
 1729BOLB   C1D41493  27.945  21.720  33.310
 1729BOLB   C2D41494  27.875  21.320  33.200
 1729BOLB   C3D41495  27.655  20.900  33.020
 1729BOLB   C4D41496  27.325  20.550  33.100
 1730BOLB   NC141497  21.230   9.950  36.740
 1730BOLB   PO141498  21.020   9.630  37.070
 1730BOLB   GL141499  20.890   9.280  37.130
 1730BOLB   GL241500  20.800   9.050  36.930
 1730BOLB   C1A41501  20.730   8.990  37.430
 1730BOLB   C2A41502  20.440   8.720  37.530
 1730BOLB   C3A41503  20.170   8.340  37.770
 1730BOLB   C4A41504  19.790   8.030  37.840
 1730BOLB   C1B41505  20.450   8.870  36.990
 1730BOLB   C2B41506  20.110   8.620  37.080
 1730BOLB   C3B41507  19.900   8.350  36.920
 1730BOLB   C4B41508  19.740   7.990  37.260
 1730BOLB   NC241509  18.030   6.460  39.720
 1730BOLB   PO241510  18.360   6.630  39.430
 1730BOLB   GL341511  18.580   6.890  39.070
 1730BOLB   GL441512  18.910   6.950  39.180
 1730BOLB   C1C41513  18.890   6.890  38.670
 1730BOLB   C2C41514  18.950   7.240  38.400
 1730BOLB   C3C41515  19.200   7.520  38.120
 1730BOLB   C4C41516  19.520   7.730  37.920
 1730BOLB   C1D41517  18.650   7.320  38.860
 1730BOLB   C2D41518  18.720   7.630  38.700
 1730BOLB   C3D41519  18.940   8.040  38.890
 1730BOLB   C4D41520  19.100   8.420  38.790
 1731BOLB   NC141521  27.315  17.220  40.290
 1731BOLB   PO141522  26.855  17.450  40.270
 1731BOLB   GL141523  27.005  17.670  40.500
 1731BOLB   GL241524  27.085  18.030  40.430
 1731BOLB   C1A41525  27.305  17.650  40.760
 1731BOLB   C2A41526  27.675  17.530  40.930
 1731BOLB   C3A41527  27.945  17.560  41.210
 1731BOLB   C4A41528  28.165  17.810  41.520
 1731BOLB   C1B41529  27.235  18.140  40.770
 1731BOLB   C2B41530  27.555  17.990  41.040
 1731BOLB   C3B41531  27.825  18.260  41.270
 1731BOLB   C4B41532  28.155  18.500  41.250
 1731BOLB   NC241533  30.895  17.870  42.150
 1731BOLB   PO241534  30.535  17.960  41.980
 1731BOLB   GL341535  30.155  17.860  41.700
 1731BOLB   GL441536  29.985  17.660  41.940
 1731BOLB   C1C41537  29.785  17.740  41.450
 1731BOLB   C2C41538  29.485  17.750  41.380
 1731BOLB   C3C41539  29.075  17.860  41.320
 1731BOLB   C4C41540  28.585  17.860  41.510
 1731BOLB   C1D41541  29.505  17.690  41.910
 1731BOLB   C2D41542  29.115  17.690  41.820
 1731BOLB   C3D41543  28.775  17.850  41.950
 1731BOLB   C4D41544  28.435  17.610  41.960
 1732BOLB   NC141545  18.930  12.830  39.770
 1732BOLB   PO141546  18.670  12.870  39.440
 1732BOLB   GL141547  18.400  12.830  39.790
 1732BOLB   GL241548  18.370  13.040  40.110
 1732BOLB   C1A41549  18.130  12.580  40.150
 1732BOLB   C2A41550  18.000  12.540  40.460
 1732BOLB   C3A41551  17.720  12.320  40.660
 1732BOLB   C4A41552  17.560  12.330  41.070
 1732BOLB   C1B41553  18.430  12.810  40.530
 1732BOLB   C2B41554  18.260  12.720  40.950
 1732BOLB   C3B41555  18.030  12.510  41.130
 1732BOLB   C4B41556  17.910  12.300  41.480
 1732BOLB   NC241557  16.880  10.530  42.220
 1732BOLB   PO241558  16.820  10.690  42.640
 1732BOLB   GL341559  16.740  11.040  42.270
 1732BOLB   GL441560  17.030  11.070  42.160
 1732BOLB   C1C41561  16.690  11.340  41.880
 1732BOLB   C2C41562  16.860  11.720  41.800
 1732BOLB   C3C41563  16.920  12.060  41.510
 1732BOLB   C4C41564  17.260  12.210  41.320
 1732BOLB   C1D41565  17.240  11.430  41.930
 1732BOLB   C2D41566  17.360  11.750  41.740
 1732BOLB   C3D41567  17.550  11.800  41.290
 1732BOLB   C4D41568  17.930  11.980  40.960
 1733BOLB   NC141569  24.870  13.310  47.190
 1733BOLB   PO141570  24.420  13.440  46.960
 1733BOLB   GL141571  24.420  13.400  46.540
 1733BOLB   GL241572  24.280  13.090  46.390
 1733BOLB   C1A41573  24.280  13.670  46.160
 1733BOLB   C2A41574  24.460  13.730  45.720
 1733BOLB   C3A41575  24.530  13.710  45.240
 1733BOLB   C4A41576  24.660  13.510  44.870
 1733BOLB   C1B41577  24.190  13.180  45.950
 1733BOLB   C2B41578  24.200  13.360  45.450
 1733BOLB   C3B41579  24.140  13.500  44.970
 1733BOLB   C4B41580  24.200  13.930  44.710
 1733BOLB   NC241581  25.760  12.100  46.610
 1733BOLB   PO241582  25.250  12.220  46.470
 1733BOLB   GL341583  25.170  12.330  46.080
 1733BOLB   GL441584  25.390  12.380  45.790
 1733BOLB   C1C41585  24.930  12.400  45.700
 1733BOLB   C2C41586  24.920  12.580  45.260
 1733BOLB   C3C41587  24.940  12.710  44.830
 1733BOLB   C4C41588  24.900  13.090  44.750
 1733BOLB   C1D41589  25.560  12.750  45.890
 1733BOLB   C2D41590  25.640  13.120  45.680
 1733BOLB   C3D41591  25.750  13.080  45.400
 1733BOLB   C4D41592  25.950  12.810  45.110
 1734BOLB   NC141593  25.110   9.070  25.470
 1734BOLB   PO141594  25.230   8.770  25.850
 1734BOLB   GL141595  25.340   8.530  25.570
 1734BOLB   GL241596  25.210   8.650  25.280
 1734BOLB   C1A41597  25.230   8.130  25.580
 1734BOLB   C2A41598  25.110   7.730  25.330
 1734BOLB   C3A41599  24.870   7.400  25.110
 1734BOLB   C4A41600  24.880   6.860  25.040
 1734BOLB   C1B41601  25.410   8.340  25.140
 1734BOLB   C2B41602  25.620   7.940  25.070
 1734BOLB   C3B41603  25.640   7.980  24.700
 1734BOLB   C4B41604  25.650   7.740  24.270
 1734BOLB   NC241605  26.060   4.560  24.330
 1734BOLB   PO241606  25.910   4.910  24.800
 1734BOLB   GL341607  25.770   5.260  24.800
 1734BOLB   GL441608  25.790   5.470  24.500
 1734BOLB   C1C41609  25.340   5.510  24.970
 1734BOLB   C2C41610  25.010   5.580  25.200
 1734BOLB   C3C41611  24.690   5.960  25.010
 1734BOLB   C4C41612  24.850   6.310  24.950
 1734BOLB   C1D41613  25.580   5.760  24.620
 1734BOLB   C2D41614  25.390   6.170  24.510
 1734BOLB   C3D41615  25.400   6.550  24.180
 1734BOLB   C4D41616  25.260   6.910  24.230
 1735BOLB   NC141617  20.180  11.980  23.800
 1735BOLB   PO141618  20.380  11.570  23.670
 1735BOLB   GL141619  20.450  11.510  23.200
 1735BOLB   GL241620  20.820  11.560  22.930
 1735BOLB   C1A41621  20.380  11.360  22.780
 1735BOLB   C2A41622  20.090  11.080  22.620
 1735BOLB   C3A41623  19.870  10.760  22.810
 1735BOLB   C4A41624  19.750  10.530  22.450
 1735BOLB   C1B41625  20.740  11.600  22.470
 1735BOLB   C2B41626  20.900  11.460  22.130
 1735BOLB   C3B41627  20.970  10.970  21.880
 1735BOLB   C4B41628  21.070  10.640  21.520
 1735BOLB   NC241629  19.200   9.030  21.000
 1735BOLB   PO241630  19.200   8.820  21.410
 1735BOLB   GL341631  19.420   8.750  21.790
 1735BOLB   GL441632  19.660   8.550  21.680
 1735BOLB   C1C41633  19.680   9.010  21.950
 1735BOLB   C2C41634  19.670   9.350  22.100
 1735BOLB   C3C41635  19.650   9.760  22.260
 1735BOLB   C4C41636  19.430  10.190  22.360
 1735BOLB   C1D41637  19.980   8.550  21.930
 1735BOLB   C2D41638  20.470   8.630  21.820
 1735BOLB   C3D41639  20.850   8.550  22.030
 1735BOLB   C4D41640  21.330   8.550  22.190
 1736BOLB   NC141641  16.070  19.400  23.020
 1736BOLB   PO141642  16.030  18.960  22.740
 1736BOLB   GL141643  15.810  19.170  22.440
 1736BOLB   GL241644  15.850  19.390  22.120
 1736BOLB   C1A41645  15.420  18.920  22.320
 1736BOLB   C2A41646  15.140  18.660  22.460
 1736BOLB   C3A41647  14.860  18.610  22.100
 1736BOLB   C4A41648  14.470  18.420  21.900
 1736BOLB   C1B41649  15.800  19.420  21.640
 1736BOLB   C2B41650  15.630  19.130  21.420
 1736BOLB   C3B41651  15.550  18.740  21.320
 1736BOLB   C4B41652  15.400  18.360  21.290
 1736BOLB   NC241653  12.690  17.220  20.790
 1736BOLB   PO241654  12.620  17.230  21.230
 1736BOLB   GL341655  12.700  17.630  21.080
 1736BOLB   GL441656  12.430  17.800  20.950
 1736BOLB   C1C41657  13.040  17.850  21.140
 1736BOLB   C2C41658  13.530  17.870  21.370
 1736BOLB   C3C41659  13.890  17.850  21.480
 1736BOLB   C4C41660  14.100  18.160  21.760
 1736BOLB   C1D41661  12.620  18.160  21.240
 1736BOLB   C2D41662  12.970  18.310  21.380
 1736BOLB   C3D41663  13.310  18.350  21.580
 1736BOLB   C4D41664  13.600  18.190  21.790
 1737BOLB   NC141665  27.655  11.010  25.970
 1737BOLB   PO141666  27.335  10.840  25.530
 1737BOLB   GL141667  27.685  10.530  25.550
 1737BOLB   GL241668  27.605  10.200  25.800
 1737BOLB   C1A41669  28.065  10.300  25.580
 1737BOLB   C2A41670  28.415  10.160  25.410
 1737BOLB   C3A41671  28.825  10.130  25.430
 1737BOLB   C4A41672  29.155   9.920  25.310
 1737BOLB   C1B41673  27.775   9.820  25.600
 1737BOLB   C2B41674  27.795  10.080  25.200
 1737BOLB   C3B41675  27.775  10.110  24.820
 1737BOLB   C4B41676  27.805   9.900  24.480
 1737BOLB   NC241677  30.435  10.060  23.620
 1737BOLB   PO241678  30.455   9.690  23.910
 1737BOLB   GL341679  30.085   9.840  23.930
 1737BOLB   GL441680  29.875   9.660  23.890
 1737BOLB   C1C41681  29.775   9.660  24.340
 1737BOLB   C2C41682  29.715   9.380  24.510
 1737BOLB   C3C41683  29.455   9.250  24.700
 1737BOLB   C4C41684  29.405   9.550  25.040
 1737BOLB   C1D41685  29.445   9.750  23.760
 1737BOLB   C2D41686  28.975   9.620  23.920
 1737BOLB   C3D41687  28.505   9.560  23.980
 1737BOLB   C4D41688  28.075   9.470  23.720
 1738BOLB   NC141689  20.550  23.980  31.750
 1738BOLB   PO141690  20.490  24.360  31.380
 1738BOLB   GL141691  20.850  24.630  31.710
 1738BOLB   GL241692  21.260  24.520  31.710
 1738BOLB   C1A41693  21.060  24.950  31.800
 1738BOLB   C2A41694  20.960  25.320  31.970
 1738BOLB   C3A41695  20.880  25.770  31.960
 1738BOLB   C4A41696  20.830  26.130  32.280
 1738BOLB   C1B41697  21.520  24.760  31.700
 1738BOLB   C2B41698  21.940  24.810  31.710
 1738BOLB   C3B41699  22.110  25.170  31.800
 1738BOLB   C4B41700  22.430  25.270  32.080
 1738BOLB   NC241701  21.700   2.090  31.800
 1738BOLB   PO241702  21.980   1.760  31.800
 1738BOLB   GL341703  21.760   1.390  31.860
 1738BOLB   GL441704  21.980   1.120  31.770
 1738BOLB   C1C41705  21.610   1.130  32.150
 1738BOLB   C2C41706  21.220   0.840  32.240
 1738BOLB   C3C41707  20.910   0.450  32.390
 1738BOLB   C4C41708  20.720   0.190  32.240
 1738BOLB   C1D41709  22.060   0.680  31.930
 1738BOLB   C2D41710  21.820   0.290  31.780
 1738BOLB   C3D41711  21.580   0.040  31.990
 1738BOLB   C4D41712  21.220   0.050  32.230
 1739BOLB   NC141713  15.640  16.430  25.900
 1739BOLB   PO141714  15.500  16.160  25.510
 1739BOLB   GL141715  15.210  15.940  25.350
 1739BOLB   GL241716  14.830  16.030  25.470
 1739BOLB   C1A41717  14.980  15.790  25.050
 1739BOLB   C2A41718  14.780  15.310  24.950
 1739BOLB   C3A41719  14.560  14.950  24.910
 1739BOLB   C4A41720  14.440  14.590  24.820
 1739BOLB   C1B41721  14.490  15.810  25.170
 1739BOLB   C2B41722  14.240  15.550  25.120
 1739BOLB   C3B41723  13.870  15.560  25.320
 1739BOLB   C4B41724  13.670  15.260  25.620
 1739BOLB   NC241725  12.750  13.890  22.830
 1739BOLB   PO241726  12.560  14.340  23.000
 1739BOLB   GL341727  12.920  14.130  23.250
 1739BOLB   GL441728  12.810  14.150  23.500
 1739BOLB   C1C41729  13.320  14.000  23.470
 1739BOLB   C2C41730  13.640  14.130  23.830
 1739BOLB   C3C41731  13.960  14.270  24.140
 1739BOLB   C4C41732  14.220  14.330  24.510
 1739BOLB   C1D41733  13.180  14.500  23.630
 1739BOLB   C2D41734  13.690  14.620  23.530
 1739BOLB   C3D41735  13.810  14.820  23.930
 1739BOLB   C4D41736  14.010  14.950  24.170
 1740BOLB   NC141737  16.110  13.160  35.910
 1740BOLB   PO141738  15.710  13.250  35.610
 1740BOLB   GL141739  15.300  13.110  35.920
 1740BOLB   GL241740  15.270  13.090  36.140
 1740BOLB   C1A41741  14.880  13.250  35.960
 1740BOLB   C2A41742  14.410  13.080  36.060
 1740BOLB   C3A41743  14.060  12.860  36.000
 1740BOLB   C4A41744  13.670  12.810  35.710
 1740BOLB   C1B41745  14.890  12.910  36.280
 1740BOLB   C2B41746  14.490  12.680  36.340
 1740BOLB   C3B41747  14.060  12.420  36.460
 1740BOLB   C4B41748  13.920  12.220  36.880
 1740BOLB   NC241749  11.890  11.460  37.140
 1740BOLB   PO241750  12.020  11.450  36.800
 1740BOLB   GL341751  12.180  11.630  36.460
 1740BOLB   GL441752  12.180  11.970  36.520
 1740BOLB   C1C41753  12.410  11.830  36.110
 1740BOLB   C2C41754  12.840  11.930  35.900
 1740BOLB   C3C41755  12.940  12.340  35.730
 1740BOLB   C4C41756  13.310  12.580  35.760
 1740BOLB   C1D41757  12.550  12.040  36.570
 1740BOLB   C2D41758  13.000  12.260  36.400
 1740BOLB   C3D41759  13.340  12.570  36.280
 1740BOLB   C4D41760  13.650  12.750  36.180
 1741BOLB   NC141761  11.100  15.290  24.220
 1741BOLB   PO141762  11.330  15.460  24.510
 1741BOLB   GL141763  11.520  15.750  24.740
 1741BOLB   GL241764  11.560  16.110  24.600
 1741BOLB   C1A41765  11.680  15.790  25.200
 1741BOLB   C2A41766  12.000  15.940  25.540
 1741BOLB   C3A41767  12.400  15.940  25.800
 1741BOLB   C4A41768  12.440  16.090  26.200
 1741BOLB   C1B41769  11.840  16.250  24.920
 1741BOLB   C2B41770  12.180  16.520  25.140
 1741BOLB   C3B41771  12.530  16.550  25.170
 1741BOLB   C4B41772  12.750  16.970  25.450
 1741BOLB   NC241773  11.040  15.430  25.680
 1741BOLB   PO241774  10.690  15.120  25.910
 1741BOLB   GL341775  10.880  15.460  26.270
 1741BOLB   GL441776  10.990  15.750  26.060
 1741BOLB   C1C41777  11.140  15.720  26.490
 1741BOLB   C2C41778  11.400  16.010  26.590
 1741BOLB   C3C41779  11.740  16.100  26.480
 1741BOLB   C4C41780  12.180  16.070  26.430
 1741BOLB   C1D41781  11.460  15.920  26.100
 1741BOLB   C2D41782  11.950  15.860  26.050
 1741BOLB   C3D41783  12.200  15.510  25.750
 1741BOLB   C4D41784  12.110  15.110  25.560
 1742BOLB   NC141785  11.620  26.380  30.580
 1742BOLB   PO141786  11.680  26.130  30.150
 1742BOLB   GL141787  11.800  25.810  30.040
 1742BOLB   GL241788  11.870  25.720  29.620
 1742BOLB   C1A41789  12.120  25.440  29.950
 1742BOLB   C2A41790  12.410  25.010  30.170
 1742BOLB   C3A41791  12.300  24.590  30.190
 1742BOLB   C4A41792  12.050  24.220  30.350
 1742BOLB   C1B41793  11.830  25.210  29.680
 1742BOLB   C2B41794  12.140  25.000  29.570
 1742BOLB   C3B41795  12.190  24.570  29.440
 1742BOLB   C4B41796  12.450  24.270  29.720
 1742BOLB   NC241797   9.360  23.550  30.310
 1742BOLB   PO241798   9.740  23.330  30.280
 1742BOLB   GL341799  10.060  23.040  30.410
 1742BOLB   GL441800  10.180  22.790  30.210
 1742BOLB   C1C41801  10.530  23.110  30.640
 1742BOLB   C2C41802  10.840  23.450  30.550
 1742BOLB   C3C41803  11.310  23.690  30.430
 1742BOLB   C4C41804  11.730  23.960  30.400
 1742BOLB   C1D41805  10.600  22.660  30.500
 1742BOLB   C2D41806  10.980  22.830  30.780
 1742BOLB   C3D41807  11.220  22.540  31.070
 1742BOLB   C4D41808  11.070  22.140  31.130
 1743BOLB   NC141809  26.925  10.530  39.500
 1743BOLB   PO141810  26.875  10.160  39.150
 1743BOLB   GL141811  27.265  10.050  39.370
 1743BOLB   GL241812  27.515   9.980  39.180
 1743BOLB   C1A41813  27.355   9.700  39.610
 1743BOLB   C2A41814  27.195   9.330  39.770
 1743BOLB   C3A41815  27.075   9.230  40.170
 1743BOLB   C4A41816  27.085   8.880  40.450
 1743BOLB   C1B41817  27.765   9.790  39.390
 1743BOLB   C2B41818  27.645   9.370  39.580
 1743BOLB   C3B41819  27.515   8.920  39.650
 1743BOLB   C4B41820  27.345   8.630  39.930
 1743BOLB   NC241821  28.635   7.670  41.780
 1743BOLB   PO241822  28.155   7.520  41.940
 1743BOLB   GL341823  28.215   7.730  41.570
 1743BOLB   GL441824  28.475   7.970  41.440
 1743BOLB   C1C41825  27.835   7.850  41.280
 1743BOLB   C2C41826  27.605   8.170  41.090
 1743BOLB   C3C41827  27.205   8.260  40.880
 1743BOLB   C4C41828  27.035   8.590  40.730
 1743BOLB   C1D41829  28.125   8.310  41.450
 1743BOLB   C2D41830  27.785   8.520  41.420
 1743BOLB   C3D41831  27.625   8.910  41.540
 1743BOLB   C4D41832  27.635   9.250  41.470
 1744BOLB   NC141833  16.210  13.520  31.710
 1744BOLB   PO141834  16.100  13.290  32.000
 1744BOLB   GL141835  15.720  13.160  31.950
 1744BOLB   GL241836  15.400  13.200  32.240
 1744BOLB   C1A41837  15.510  12.680  31.990
 1744BOLB   C2A41838  15.210  12.320  31.820
 1744BOLB   C3A41839  14.760  12.110  31.820
 1744BOLB   C4A41840  14.280  12.080  31.740
 1744BOLB   C1B41841  15.130  12.810  32.270
 1744BOLB   C2B41842  15.060  12.410  32.320
 1744BOLB   C3B41843  14.810  12.090  32.510
 1744BOLB   C4B41844  14.820  11.650  32.500
 1744BOLB   NC241845  12.060  10.940  32.220
 1744BOLB   PO241846  12.120  11.300  32.340
 1744BOLB   GL341847  12.520  11.430  32.350
 1744BOLB   GL441848  12.630  11.710  32.470
 1744BOLB   C1C41849  13.000  11.450  32.280
 1744BOLB   C2C41850  13.450  11.600  32.170
 1744BOLB   C3C41851  13.880  11.780  32.070
 1744BOLB   C4C41852  14.070  11.880  31.730
 1744BOLB   C1D41853  12.910  11.810  32.620
 1744BOLB   C2D41854  13.350  11.940  32.670
 1744BOLB   C3D41855  13.820  11.910  32.660
 1744BOLB   C4D41856  14.220  12.210  32.520
 1745BOLB   NC141857  15.230  15.190  28.850
 1745BOLB   PO141858  15.110  15.470  28.580
 1745BOLB   GL141859  14.740  15.360  28.790
 1745BOLB   GL241860  14.680  15.060  28.760
 1745BOLB   C1A41861  14.300  15.430  28.670
 1745BOLB   C2A41862  13.900  15.290  28.440
 1745BOLB   C3A41863  13.540  15.030  28.310
 1745BOLB   C4A41864  13.150  14.950  28.160
 1745BOLB   C1B41865  14.450  14.670  28.780
 1745BOLB   C2B41866  14.090  14.410  28.970
 1745BOLB   C3B41867  13.680  14.240  29.150
 1745BOLB   C4B41868  13.370  14.420  29.440
 1745BOLB   NC241869  10.460  14.450  26.950
 1745BOLB   PO241870  10.700  14.490  27.270
 1745BOLB   GL341871  11.190  14.630  27.470
 1745BOLB   GL441872  11.240  14.970  27.450
 1745BOLB   C1C41873  11.660  14.660  27.640
 1745BOLB   C2C41874  11.990  14.780  27.930
 1745BOLB   C3C41875  12.420  14.570  27.900
 1745BOLB   C4C41876  12.840  14.570  28.030
 1745BOLB   C1D41877  11.510  15.120  27.660
 1745BOLB   C2D41878  11.650  15.190  28.020
 1745BOLB   C3D41879  12.040  15.340  28.130
 1745BOLB   C4D41880  12.330  15.530  28.180
 1746BOLB   NC141881  18.000  16.210  41.750
 1746BOLB   PO141882  17.760  16.610  41.540
 1746BOLB   GL141883  17.670  16.540  42.060
 1746BOLB   GL241884  17.600  16.140  42.050
 1746BOLB   C1A41885  17.590  16.540  42.410
 1746BOLB   C2A41886  17.660  16.410  42.670
 1746BOLB   C3A41887  17.630  16.340  43.180
 1746BOLB   C4A41888  17.390  16.350  43.540
 1746BOLB   C1B41889  17.050  15.970  41.980
 1746BOLB   C2B41890  16.560  15.810  41.960
 1746BOLB   C3B41891  16.210  15.790  41.850
 1746BOLB   C4B41892  16.020  15.900  41.440
 1746BOLB   NC241893  16.240  15.470  45.040
 1746BOLB   PO241894  16.030  15.810  45.000
 1746BOLB   GL341895  16.310  16.220  44.960
 1746BOLB   GL441896  16.660  16.300  45.120
 1746BOLB   C1C41897  16.410  16.470  44.620
 1746BOLB   C2C41898  16.700  16.660  44.400
 1746BOLB   C3C41899  17.030  16.570  44.150
 1746BOLB   C4C41900  17.300  16.640  43.880
 1746BOLB   C1D41901  16.890  16.160  44.760
 1746BOLB   C2D41902  17.140  16.110  44.360
 1746BOLB   C3D41903  17.500  16.390  44.310
 1746BOLB   C4D41904  17.830  16.690  44.000
 1747BOLB   NC141905  26.515   7.990  28.730
 1747BOLB   PO141906  26.370   7.850  29.190
 1747BOLB   GL141907  26.565   7.450  29.210
 1747BOLB   GL241908  26.260   7.280  29.160
 1747BOLB   C1A41909  26.855   7.240  28.920
 1747BOLB   C2A41910  27.155   7.270  28.650
 1747BOLB   C3A41911  27.355   6.930  28.410
 1747BOLB   C4A41912  27.645   6.630  28.250
 1747BOLB   C1B41913  26.190   6.920  29.160
 1747BOLB   C2B41914  26.100   6.500  29.110
 1747BOLB   C3B41915  26.100   6.090  29.240
 1747BOLB   C4B41916  26.110   5.750  29.600
 1747BOLB   NC241917  27.955   5.100  27.160
 1747BOLB   PO241918  28.085   4.790  27.520
 1747BOLB   GL341919  28.005   5.230  27.680
 1747BOLB   GL441920  27.965   5.520  27.570
 1747BOLB   C1C41921  28.145   5.540  28.080
 1747BOLB   C2C41922  28.355   5.880  28.250
 1747BOLB   C3C41923  28.365   6.310  28.260
 1747BOLB   C4C41924  28.035   6.500  28.460
 1747BOLB   C1D41925  27.565   5.730  27.250
 1747BOLB   C2D41926  27.295   5.990  27.290
 1747BOLB   C3D41927  27.065   6.350  27.450
 1747BOLB   C4D41928  26.715   6.450  27.230
 1748BOLB   NC141929  26.475  19.370  38.510
 1748BOLB   PO141930  26.555  19.750  38.380
 1748BOLB   GL141931  26.805  19.990  38.530
 1748BOLB   GL241932  26.765  20.190  38.230
 1748BOLB   C1A41933  26.995  20.060  38.880
 1748BOLB   C2A41934  27.295  20.320  39.110
 1748BOLB   C3A41935  27.515  20.700  39.010
 1748BOLB   C4A41936  27.885  20.810  38.770
 1748BOLB   C1B41937  27.115  20.430  38.210
 1748BOLB   C2B41938  27.475  20.540  38.440
 1748BOLB   C3B41939  27.915  20.460  38.380
 1748BOLB   C4B41940  28.265  20.760  38.460
 1748BOLB   NC241941  28.955  22.710  37.500
 1748BOLB   PO241942  28.885  22.650  37.890
 1748BOLB   GL341943  28.715  22.340  37.850
 1748BOLB   GL441944  28.585  22.220  37.580
 1748BOLB   C1C41945  28.545  22.050  38.120
 1748BOLB   C2C41946  28.205  21.760  38.120
 1748BOLB   C3C41947  28.025  21.420  38.330
 1748BOLB   C4C41948  28.065  21.190  38.630
 1748BOLB   C1D41949  28.655  21.750  37.760
 1748BOLB   C2D41950  28.405  21.470  37.790
 1748BOLB   C3D41951  27.915  21.530  37.800
 1748BOLB   C4D41952  27.525  21.400  37.960
 1749BOLB   NC141953  27.575   8.130  33.390
 1749BOLB   PO141954  27.915   8.120  33.110
 1749BOLB   GL141955  28.235   7.800  33.230
 1749BOLB   GL241956  28.495   7.890  33.440
 1749BOLB   C1A41957  28.485   7.430  33.410
 1749BOLB   C2A41958  28.585   7.020  33.700
 1749BOLB   C3A41959  28.855   6.870  33.970
 1749BOLB   C4A41960  29.035   6.490  33.900
 1749BOLB   C1B41961  28.895   7.690  33.560
 1749BOLB   C2B41962  29.175   7.410  33.510
 1749BOLB   C3B41963  29.185   6.900  33.600
 1749BOLB   C4B41964  29.585   6.800  33.430
 1749BOLB   NC241965  31.255   5.420  33.440
 1749BOLB   PO241966  30.945   5.020  33.600
 1749BOLB   GL341967  30.745   5.390  33.580
 1749BOLB   GL441968  30.595   5.340  33.850
 1749BOLB   C1C41969  30.545   5.740  33.370
 1749BOLB   C2C41970  30.045   5.730  33.310
 1749BOLB   C3C41971  29.715   5.900  33.660
 1749BOLB   C4C41972  29.355   6.130  33.840
 1749BOLB   C1D41973  30.735   5.820  33.860
 1749BOLB   C2D41974  30.745   6.250  33.910
 1749BOLB   C3D41975  30.535   6.610  33.960
 1749BOLB   C4D41976  30.205   6.890  33.800
 1750BOLB   NC141977  30.775  20.120  35.280
 1750BOLB   PO141978  30.665  20.440  35.170
 1750BOLB   GL141979  30.265  20.370  35.450
 1750BOLB   GL241980  29.995  20.520  35.480
 1750BOLB   C1A41981  29.835  20.060  35.530
 1750BOLB   C2A41982  29.425  19.900  35.460
 1750BOLB   C3A41983  29.075  19.680  35.360
 1750BOLB   C4A41984  28.895  19.430  34.990
 1750BOLB   C1B41985  29.595  20.680  35.400
 1750BOLB   C2B41986  29.255  20.410  35.340
 1750BOLB   C3B41987  28.965  20.180  35.520
 1750BOLB   C4B41988  28.675  19.890  35.570
 1750BOLB   NC241989  30.085  20.610  34.090
 1750BOLB   PO241990  30.025  20.870  34.540
 1750BOLB   GL341991  29.735  20.520  34.480
 1750BOLB   GL441992  29.535  20.420  34.190
 1750BOLB   C1C41993  29.755  20.030  34.470
 1750BOLB   C2C41994  29.745  19.570  34.300
 1750BOLB   C3C41995  29.345  19.420  34.280
 1750BOLB   C4C41996  28.985  19.410  34.590
 1750BOLB   C1D41997  29.125  20.260  33.970
 1750BOLB   C2D41998  28.715  20.040  33.900
 1750BOLB   C3D41999  28.275  20.000  33.840
 1750BOLB   C4D42000  27.805  19.970  33.850
 1751BOLB   NC142001  33.545   9.400  34.820
 1751BOLB   PO142002  33.315   9.630  34.520
 1751BOLB   GL142003  32.875   9.840  34.430
 1751BOLB   GL242004  32.705   9.760  34.110
 1751BOLB   C1A42005  32.465   9.770  34.560
 1751BOLB   C2A42006  32.065   9.840  34.520
 1751BOLB   C3A42007  31.745   9.840  34.830
 1751BOLB   C4A42008  31.865   9.620  35.260
 1751BOLB   C1B42009  32.215   9.770  34.080
 1751BOLB   C2B42010  31.765   9.650  34.100
 1751BOLB   C3B42011  31.525   9.500  33.790
 1751BOLB   C4B42012  31.225   9.250  33.640
 1751BOLB   NC242013  33.975  10.300  36.410
 1751BOLB   PO242014  33.585  10.230  36.560
 1751BOLB   GL342015  33.135  10.100  36.760
 1751BOLB   GL442016  33.155  10.500  36.730
 1751BOLB   C1C42017  32.715  10.010  36.650
 1751BOLB   C2C42018  32.405   9.610  36.460
 1751BOLB   C3C42019  32.115   9.530  36.070
 1751BOLB   C4C42020  31.835   9.480  35.740
 1751BOLB   C1D42021  32.815  10.430  36.460
 1751BOLB   C2D42022  32.435  10.540  36.250
 1751BOLB   C3D42023  32.195  10.820  35.790
 1751BOLB   C4D42024  31.945  10.810  35.510
 1752BOLB   NC142025  25.580   9.680  38.470
 1752BOLB   PO142026  25.390   9.740  38.870
 1752BOLB   GL142027  25.360   9.520  39.310
 1752BOLB   GL242028  25.180   9.370  39.630
 1752BOLB   C1A42029  25.470   9.100  39.290
 1752BOLB   C2A42030  25.620   8.700  39.570
 1752BOLB   C3A42031  25.750   8.490  39.950
 1752BOLB   C4A42032  25.690   8.610  40.360
 1752BOLB   C1B42033  25.420   9.450  40.020
 1752BOLB   C2B42034  25.430   9.150  40.350
 1752BOLB   C3B42035  25.180   8.780  40.440
 1752BOLB   C4B42036  24.960   8.600  40.160
 1752BOLB   NC242037  25.640   6.330  41.040
 1752BOLB   PO242038  25.410   6.280  41.390
 1752BOLB   GL342039  25.240   6.750  41.220
 1752BOLB   GL442040  24.880   6.890  41.180
 1752BOLB   C1C42041  25.270   7.180  41.290
 1752BOLB   C2C42042  25.250   7.500  40.930
 1752BOLB   C3C42043  25.320   7.960  40.760
 1752BOLB   C4C42044  25.500   8.400  40.610
 1752BOLB   C1D42045  24.830   7.410  41.200
 1752BOLB   C2D42046  24.580   7.740  41.060
 1752BOLB   C3D42047  24.450   8.070  40.860
 1752BOLB   C4D42048  24.160   8.470  40.830
 1753BOLB   NC142049  15.360  23.830  32.490
 1753BOLB   PO142050  15.580  23.830  32.820
 1753BOLB   GL142051  15.290  24.280  32.690
 1753BOLB   GL242052  15.070  24.460  33.040
 1753BOLB   C1A42053  15.270  24.710  32.680
 1753BOLB   C2A42054  15.070  25.080  32.740
 1753BOLB   C3A42055  14.780  25.490  32.870
 1753BOLB   C4A42056  14.540  25.760  33.090
 1753BOLB   C1B42057  14.830  24.860  33.160
 1753BOLB   C2B42058  14.550  25.090  33.170
 1753BOLB   C3B42059  14.210  25.340  32.900
 1753BOLB   C4B42060  13.990  25.420  32.620
 1753BOLB   NC242061  12.810   0.300  33.670
 1753BOLB   PO242062  12.660   0.210  34.210
 1753BOLB   GL342063  12.970  26.360  34.240
 1753BOLB   GL442064  13.090  26.310  33.870
 1753BOLB   C1C42065  13.410  26.260  34.300
 1753BOLB   C2C42066  13.600  25.950  33.970
 1753BOLB   C3C42067  13.990  25.770  33.830
 1753BOLB   C4C42068  14.350  25.690  33.640
 1753BOLB   C1D42069  13.310  26.200  33.560
 1753BOLB   C2D42070  13.700  26.050  33.440
 1753BOLB   C3D42071  14.120  25.980  33.150
 1753BOLB   C4D42072  14.290  26.150  32.830
 1754BOLB   NC142073  23.130  16.360  47.430
 1754BOLB   PO142074  23.040  16.840  47.440
 1754BOLB   GL142075  22.960  16.680  47.010
 1754BOLB   GL242076  22.680  16.870  46.980
 1754BOLB   C1A42077  22.860  16.740  46.540
 1754BOLB   C2A42078  23.080  16.550  46.250
 1754BOLB   C3A42079  23.230  16.460  46.020
 1754BOLB   C4A42080  23.610  16.380  45.910
 1754BOLB   C1B42081  22.740  17.280  46.620
 1754BOLB   C2B42082  23.010  17.140  46.290
 1754BOLB   C3B42083  23.090  16.920  45.920
 1754BOLB   C4B42084  23.040  16.900  45.460
 1754BOLB   NC242085  26.200  16.800  47.320
 1754BOLB   PO242086  26.000  16.800  46.850
 1754BOLB   GL342087  25.750  16.660  46.490
 1754BOLB   GL442088  25.910  16.530  46.240
 1754BOLB   C1C42089  25.300  16.750  46.480
 1754BOLB   C2C42090  24.860  16.670  46.380
 1754BOLB   C3C42091  24.440  16.570  46.190
 1754BOLB   C4C42092  24.100  16.370  45.890
 1754BOLB   C1D42093  25.840  16.310  45.910
 1754BOLB   C2D42094  25.610  16.130  45.790
 1754BOLB   C3D42095  25.320  16.170  45.520
 1754BOLB   C4D42096  25.220  16.150  45.110
 1755BOLB   NC142097  16.840  23.890  37.620
 1755BOLB   PO142098  16.450  23.850  37.350
 1755BOLB   GL142099  16.370  24.220  37.470
 1755BOLB   GL242100  16.480  24.180  37.750
 1755BOLB   C1A42101  16.250  24.620  37.540
 1755BOLB   C2A42102  16.060  25.080  37.600
 1755BOLB   C3A42103  16.030  25.570  37.720
 1755BOLB   C4A42104  16.120  25.940  37.860
 1755BOLB   C1B42105  16.200  24.310  38.010
 1755BOLB   C2B42106  15.840  24.440  38.190
 1755BOLB   C3B42107  15.760  24.780  38.430
 1755BOLB   C4B42108  15.680  25.120  38.650
 1755BOLB   NC242109  17.140   1.430  39.260
 1755BOLB   PO242110  17.260   1.010  39.200
 1755BOLB   GL342111  17.170   0.870  38.750
 1755BOLB   GL442112  17.380   1.010  38.580
 1755BOLB   C1C42113  16.930   0.490  38.610
 1755BOLB   C2C42114  16.660   0.160  38.430
 1755BOLB   C3C42115  16.210   0.090  38.290
 1755BOLB   C4C42116  16.050  26.340  37.970
 1755BOLB   C1D42117  17.390   0.560  38.320
 1755BOLB   C2D42118  17.520   0.310  37.940
 1755BOLB   C3D42119  17.740  26.420  37.880
 1755BOLB   C4D42120  17.660  25.960  37.970
 1756BOLB   NC142121  28.175  15.880  38.610
 1756BOLB   PO142122  28.205  16.330  38.560
 1756BOLB   GL142123  28.685  16.400  38.530
 1756BOLB   GL242124  28.865  16.270  38.230
 1756BOLB   C1A42125  29.155  16.510  38.600
 1756BOLB   C2A42126  29.625  16.390  38.860
 1756BOLB   C3A42127  29.835  16.600  39.220
 1756BOLB   C4A42128  29.955  16.540  39.550
 1756BOLB   C1B42129  29.355  16.140  38.340
 1756BOLB   C2B42130  29.765  16.240  38.380
 1756BOLB   C3B42131  30.215  16.440  38.330
 1756BOLB   C4B42132  30.495  16.550  38.590
 1756BOLB   NC242133  31.285  18.210  40.650
 1756BOLB   PO242134  31.425  17.920  40.960
 1756BOLB   GL342135  30.985  17.820  40.760
 1756BOLB   GL442136  30.885  17.890  40.410
 1756BOLB   C1C42137  30.555  17.630  40.750
 1756BOLB   C2C42138  30.235  17.450  40.520
 1756BOLB   C3C42139  30.045  17.210  40.210
 1756BOLB   C4C42140  29.945  16.780  39.930
 1756BOLB   C1D42141  30.555  17.620  40.190
 1756BOLB   C2D42142  30.175  17.760  40.100
 1756BOLB   C3D42143  29.785  17.710  40.040
 1756BOLB   C4D42144  29.525  17.740  39.640
 1757BOLB   NC142145  19.830  12.960  40.910
 1757BOLB   PO142146  19.620  13.290  41.240
 1757BOLB   GL142147  19.260  13.170  41.410
 1757BOLB   GL242148  19.330  13.050  41.600
 1757BOLB   C1A42149  18.870  13.270  41.560
 1757BOLB   C2A42150  18.640  13.030  41.760
 1757BOLB   C3A42151  18.240  12.750  41.920
 1757BOLB   C4A42152  17.810  12.710  41.880
 1757BOLB   C1B42153  19.060  12.980  42.000
 1757BOLB   C2B42154  19.100  12.620  42.290
 1757BOLB   C3B42155  19.080  12.400  42.650
 1757BOLB   C4B42156  18.700  12.280  42.870
 1757BOLB   NC242157  15.730  10.860  42.420
 1757BOLB   PO242158  15.780  11.210  42.620
 1757BOLB   GL342159  16.210  11.420  42.600
 1757BOLB   GL442160  16.190  11.720  42.680
 1757BOLB   C1C42161  16.650  11.520  42.440
 1757BOLB   C2C42162  17.040  11.850  42.260
 1757BOLB   C3C42163  17.190  12.240  42.070
 1757BOLB   C4C42164  17.490  12.610  41.990
 1757BOLB   C1D42165  16.370  11.950  42.300
 1757BOLB   C2D42166  16.560  12.150  41.970
 1757BOLB   C3D42167  16.480  12.380  41.560
 1757BOLB   C4D42168  16.610  12.370  41.120
 1758BOLB   NC142169  29.025  13.430  36.230
 1758BOLB   PO142170  29.485  13.210  36.410
 1758BOLB   GL142171  29.875  13.250  36.410
 1758BOLB   GL242172  29.975  13.430  36.660
 1758BOLB   C1A42173  30.255  13.060  36.350
 1758BOLB   C2A42174  30.815  12.990  36.400
 1758BOLB   C3A42175  31.195  12.880  36.550
 1758BOLB   C4A42176  31.595  12.810  36.800
 1758BOLB   C1B42177  30.265  13.580  36.960
 1758BOLB   C2B42178  30.585  13.560  37.090
 1758BOLB   C3B42179  30.885  13.390  37.310
 1758BOLB   C4B42180  31.265  13.560  37.340
 1758BOLB   NC242181  33.595  12.490  37.630
 1758BOLB   PO242182  33.445  13.020  37.710
 1758BOLB   GL342183  33.125  13.120  37.400
 1758BOLB   GL442184  32.845  12.880  37.600
 1758BOLB   C1C42185  33.005  12.820  37.080
 1758BOLB   C2C42186  32.775  12.750  36.670
 1758BOLB   C3C42187  32.345  12.550  36.680
 1758BOLB   C4C42188  31.935  12.640  36.580
 1758BOLB   C1D42189  32.615  13.110  37.310
 1758BOLB   C2D42190  32.415  12.970  36.970
 1758BOLB   C3D42191  32.025  13.100  36.870
 1758BOLB   C4D42192  31.715  13.370  36.920
 1759BOLB   NC142193  21.970  23.320  34.440
 1759BOLB   PO142194  22.100  23.340  34.020
 1759BOLB   GL142195  22.360  23.630  34.160
 1759BOLB   GL242196  22.130  23.800  34.340
 1759BOLB   C1A42197  22.600  23.930  33.870
 1759BOLB   C2A42198  22.890  24.260  33.890
 1759BOLB   C3A42199  23.160  24.510  33.690
 1759BOLB   C4A42200  23.520  24.780  33.930
 1759BOLB   C1B42201  22.330  24.170  34.260
 1759BOLB   C2B42202  22.420  24.620  34.460
 1759BOLB   C3B42203  22.760  24.930  34.410
 1759BOLB   C4B42204  22.920  25.170  34.750
 1759BOLB   NC242205  23.950   0.430  33.500
 1759BOLB   PO242206  24.040   0.270  33.150
 1759BOLB   GL342207  24.090  26.380  33.280
 1759BOLB   GL442208  23.920  26.370  33.590
 1759BOLB   C1C42209  24.150  25.940  33.410
 1759BOLB   C2C42210  24.460  25.630  33.560
 1759BOLB   C3C42211  24.340  25.220  33.750
 1759BOLB   C4C42212  24.010  24.970  33.890
 1759BOLB   C1D42213  23.690  26.010  33.550
 1759BOLB   C2D42214  23.340  25.680  33.560
 1759BOLB   C3D42215  22.900  25.560  33.590
 1759BOLB   C4D42216  22.690  25.350  33.910
 1760BOLB   NC142217  19.240  14.200  41.610
 1760BOLB   PO142218  18.950  14.540  41.290
 1760BOLB   GL142219  18.750  14.280  41.580
 1760BOLB   GL242220  18.730  14.340  42.050
 1760BOLB   C1A42221  18.420  14.130  41.780
 1760BOLB   C2A42222  18.250  13.770  42.010
 1760BOLB   C3A42223  18.020  13.650  42.500
 1760BOLB   C4A42224  17.670  13.820  42.700
 1760BOLB   C1B42225  18.460  14.030  42.350
 1760BOLB   C2B42226  18.370  13.930  42.720
 1760BOLB   C3B42227  18.300  13.550  42.940
 1760BOLB   C4B42228  18.390  13.230  43.280
 1760BOLB   NC242229  16.390  12.610  44.750
 1760BOLB   PO242230  16.540  12.460  44.350
 1760BOLB   GL342231  16.620  12.870  44.050
 1760BOLB   GL442232  16.860  13.150  44.230
 1760BOLB   C1C42233  16.710  13.280  43.840
 1760BOLB   C2C42234  17.030  13.430  43.530
 1760BOLB   C3C42235  17.390  13.430  43.280
 1760BOLB   C4C42236  17.510  13.760  43.070
 1760BOLB   C1D42237  17.250  13.160  44.190
 1760BOLB   C2D42238  17.640  13.430  44.190
 1760BOLB   C3D42239  17.620  13.780  44.250
 1760BOLB   C4D42240  17.680  14.120  44.560
 1761BOLB   NC142241  23.640   7.750  32.830
 1761BOLB   PO142242  23.530   7.800  33.230
 1761BOLB   GL142243  23.390   7.400  33.160
 1761BOLB   GL242244  23.320   7.250  33.350
 1761BOLB   C1A42245  23.430   6.900  33.010
 1761BOLB   C2A42246  23.550   6.510  33.020
 1761BOLB   C3A42247  23.730   6.120  33.120
 1761BOLB   C4A42248  23.710   5.690  33.280
 1761BOLB   C1B42249  22.960   6.970  33.420
 1761BOLB   C2B42250  23.040   6.510  33.230
 1761BOLB   C3B42251  22.950   6.090  33.080
 1761BOLB   C4B42252  22.870   5.690  32.890
 1761BOLB   NC242253  23.460   3.540  33.860
 1761BOLB   PO242254  23.160   3.660  33.580
 1761BOLB   GL342255  23.430   4.060  33.670
 1761BOLB   GL442256  23.180   4.360  33.740
 1761BOLB   C1C42257  23.740   4.340  33.720
 1761BOLB   C2C42258  23.790   4.780  33.540
 1761BOLB   C3C42259  23.930   5.100  33.470
 1761BOLB   C4C42260  23.670   5.470  33.400
 1761BOLB   C1D42261  22.850   4.500  33.940
 1761BOLB   C2D42262  22.750   4.950  34.190
 1761BOLB   C3D42263  22.460   5.160  34.270
 1761BOLB   C4D42264  22.090   5.150  34.170
 1762BOLB   NC142265  17.900  11.390  32.770
 1762BOLB   PO142266  17.640  11.190  32.700
 1762BOLB   GL142267  17.620  10.820  32.750
 1762BOLB   GL242268  17.260  10.950  32.880
 1762BOLB   C1A42269  17.760  10.410  32.760
 1762BOLB   C2A42270  18.030  10.080  32.930
 1762BOLB   C3A42271  18.110   9.660  33.100
 1762BOLB   C4A42272  17.920   9.320  33.060
 1762BOLB   C1B42273  16.890  10.750  32.750
 1762BOLB   C2B42274  16.430  10.670  32.810
 1762BOLB   C3B42275  15.980  10.450  33.030
 1762BOLB   C4B42276  15.820  10.300  33.360
 1762BOLB   NC242277  16.180   7.250  33.270
 1762BOLB   PO242278  16.040   7.650  33.150
 1762BOLB   GL342279  16.430   7.900  32.970
 1762BOLB   GL442280  16.610   7.690  32.890
 1762BOLB   C1C42281  16.690   8.230  32.860
 1762BOLB   C2C42282  17.090   8.540  32.870
 1762BOLB   C3C42283  17.300   8.890  32.820
 1762BOLB   C4C42284  17.560   9.190  32.780
 1762BOLB   C1D42285  16.780   7.890  32.480
 1762BOLB   C2D42286  17.180   7.800  32.410
 1762BOLB   C3D42287  17.430   8.010  32.410
 1762BOLB   C4D42288  17.820   7.950  32.240
 1763BOLB   NC142289  28.995   4.860  28.780
 1763BOLB   PO142290  29.055   5.100  28.440
 1763BOLB   GL142291  28.945   5.390  28.820
 1763BOLB   GL242292  29.155   5.500  29.080
 1763BOLB   C1A42293  28.625   5.440  29.060
 1763BOLB   C2A42294  28.395   5.670  29.130
 1763BOLB   C3A42295  28.125   5.950  29.350
 1763BOLB   C4A42296  27.755   6.120  29.660
 1763BOLB   C1B42297  28.845   5.820  29.260
 1763BOLB   C2B42298  28.585   6.120  29.340
 1763BOLB   C3B42299  28.275   6.330  29.610
 1763BOLB   C4B42300  28.045   6.640  29.550
 1763BOLB   NC242301  27.905   4.090  30.660
 1763BOLB   PO242302  27.495   4.070  30.440
 1763BOLB   GL342303  27.475   4.510  30.660
 1763BOLB   GL442304  27.145   4.600  30.870
 1763BOLB   C1C42305  27.655   4.880  30.540
 1763BOLB   C2C42306  27.575   5.340  30.510
 1763BOLB   C3C42307  27.655   5.610  30.430
 1763BOLB   C4C42308  27.705   5.870  30.040
 1763BOLB   C1D42309  26.805   4.770  30.610
 1763BOLB   C2D42310  26.655   4.860  30.300
 1763BOLB   C3D42311  26.240   5.110  30.030
 1763BOLB   C4D42312  25.800   5.340  30.000
 1764BOLB   NC142313  18.990  20.520  41.300
 1764BOLB   PO142314  19.300  20.330  41.540
 1764BOLB   GL142315  19.030  20.600  41.810
 1764BOLB   GL242316  18.860  20.800  41.750
 1764BOLB   C1A42317  18.890  20.760  42.290
 1764BOLB   C2A42318  19.100  20.750  42.760
 1764BOLB   C3A42319  18.900  20.970  43.050
 1764BOLB   C4A42320  18.740  21.210  43.490
 1764BOLB   C1B42321  18.520  21.060  42.060
 1764BOLB   C2B42322  18.210  21.290  42.070
 1764BOLB   C3B42323  18.000  21.510  42.400
 1764BOLB   C4B42324  17.700  21.770  42.630
 1764BOLB   NC242325  18.190  22.390  45.070
 1764BOLB   PO242326  17.800  22.280  45.350
 1764BOLB   GL342327  17.850  21.980  45.040
 1764BOLB   GL442328  18.140  21.860  45.260
 1764BOLB   C1C42329  17.950  21.680  44.760
 1764BOLB   C2C42330  18.250  21.380  44.590
 1764BOLB   C3C42331  18.500  21.150  44.140
 1764BOLB   C4C42332  18.730  20.960  43.910
 1764BOLB   C1D42333  18.170  21.450  45.190
 1764BOLB   C2D42334  17.980  21.090  45.060
 1764BOLB   C3D42335  17.800  20.960  44.690
 1764BOLB   C4D42336  17.530  20.810  44.380
 1765BOLB   NC142337  22.110  13.870  21.120
 1765BOLB   PO142338  21.740  13.920  21.320
 1765BOLB   GL142339  21.430  13.700  21.050
 1765BOLB   GL242340  21.330  13.380  21.180
 1765BOLB   C1A42341  21.570  13.710  20.560
 1765BOLB   C2A42342  21.630  13.490  20.220
 1765BOLB   C3A42343  21.810  13.180  20.010
 1765BOLB   C4A42344  21.770  12.750  20.040
 1765BOLB   C1B42345  21.590  13.310  20.810
 1765BOLB   C2B42346  21.910  13.340  20.700
 1765BOLB   C3B42347  22.110  13.770  20.520
 1765BOLB   C4B42348  22.330  14.150  20.300
 1765BOLB   NC242349  21.010  12.530  17.590
 1765BOLB   PO242350  20.620  12.310  17.940
 1765BOLB   GL342351  21.020  12.480  18.150
 1765BOLB   GL442352  20.990  12.870  18.060
 1765BOLB   C1C42353  21.170  12.520  18.620
 1765BOLB   C2C42354  21.340  12.430  18.970
 1765BOLB   C3C42355  21.540  12.500  19.320
 1765BOLB   C4C42356  21.530  12.480  19.760
 1765BOLB   C1D42357  21.040  13.070  18.350
 1765BOLB   C2D42358  21.120  13.340  18.640
 1765BOLB   C3D42359  20.980  13.710  18.940
 1765BOLB   C4D42360  21.090  14.080  19.250
 1766BOLB   NC142361  22.730  21.710  33.920
 1766BOLB   PO142362  23.050  21.940  34.030
 1766BOLB   GL142363  23.570  22.120  34.020
 1766BOLB   GL242364  23.720  22.210  34.280
 1766BOLB   C1A42365  23.980  22.300  33.920
 1766BOLB   C2A42366  24.420  22.560  33.680
 1766BOLB   C3A42367  24.590  22.970  33.740
 1766BOLB   C4A42368  24.840  23.160  33.430
 1766BOLB   C1B42369  24.040  22.540  34.390
 1766BOLB   C2B42370  24.470  22.840  34.380
 1766BOLB   C3B42371  24.890  22.870  34.120
 1766BOLB   C4B42372  25.220  23.090  34.110
 1766BOLB   NC242373  26.140  24.900  32.400
 1766BOLB   PO242374  26.300  25.010  32.820
 1766BOLB   GL342375  26.090  24.730  33.080
 1766BOLB   GL442376  26.240  24.470  32.880
 1766BOLB   C1C42377  25.790  24.270  33.120
 1766BOLB   C2C42378  25.710  23.860  32.940
 1766BOLB   C3C42379  25.340  23.580  32.820
 1766BOLB   C4C42380  25.040  23.410  33.060
 1766BOLB   C1D42381  26.270  24.180  33.120
 1766BOLB   C2D42382  26.170  23.850  33.140
 1766BOLB   C3D42383  26.440  23.510  33.120
 1766BOLB   C4D42384  26.575  23.120  33.240
 1767BOLB   NC142385  22.200  11.720  40.710
 1767BOLB   PO142386  22.370  11.810  41.170
 1767BOLB   GL142387  22.470  11.420  41.480
 1767BOLB   GL242388  22.170  11.510  41.640
 1767BOLB   C1A42389  22.400  11.050  41.690
 1767BOLB   C2A42390  22.280  10.720  41.870
 1767BOLB   C3A42391  22.020  10.470  42.110
 1767BOLB   C4A42392  21.770  10.100  42.080
 1767BOLB   C1B42393  22.000  11.210  41.950
 1767BOLB   C2B42394  21.730  10.990  42.250
 1767BOLB   C3B42395  21.670  11.200  42.730
 1767BOLB   C4B42396  21.400  11.020  43.050
 1767BOLB   NC242397  20.950   8.820  44.030
 1767BOLB   PO242398  20.720   8.740  43.700
 1767BOLB   GL342399  20.960   9.090  43.430
 1767BOLB   GL442400  21.160   8.920  43.210
 1767BOLB   C1C42401  21.070   9.370  43.150
 1767BOLB   C2C42402  21.060   9.670  42.860
 1767BOLB   C3C42403  21.290   9.530  42.500
 1767BOLB   C4C42404  21.610   9.670  42.200
 1767BOLB   C1D42405  21.160   9.110  42.710
 1767BOLB   C2D42406  21.110   9.100  42.210
 1767BOLB   C3D42407  21.180   9.570  41.970
 1767BOLB   C4D42408  20.860   9.740  41.560
 1768BOLB   NC142409  20.650  13.300  42.000
 1768BOLB   PO142410  20.860  12.890  42.150
 1768BOLB   GL142411  20.510  12.800  42.190
 1768BOLB   GL242412  20.390  13.110  42.340
 1768BOLB   C1A42413  20.390  12.480  42.310
 1768BOLB   C2A42414  20.120  12.310  42.570
 1768BOLB   C3A42415  20.150  11.860  42.720
 1768BOLB   C4A42416  20.100  11.670  43.190
 1768BOLB   C1B42417  20.190  12.990  42.630
 1768BOLB   C2B42418  20.100  12.740  42.960
 1768BOLB   C3B42419  19.860  12.560  43.350
 1768BOLB   C4B42420  19.830  12.170  43.450
 1768BOLB   NC242421  19.210  12.010  45.520
 1768BOLB   PO242422  19.000  11.660  45.420
 1768BOLB   GL342423  19.200  11.770  45.020
 1768BOLB   GL442424  19.340  12.120  45.010
 1768BOLB   C1C42425  19.510  11.600  44.730
 1768BOLB   C2C42426  19.810  11.690  44.370
 1768BOLB   C3C42427  19.780  11.710  43.850
 1768BOLB   C4C42428  19.840  11.670  43.490
 1768BOLB   C1D42429  19.540  12.150  44.570
 1768BOLB   C2D42430  19.770  12.540  44.510
 1768BOLB   C3D42431  19.750  12.910  44.250
 1768BOLB   C4D42432  19.940  13.280  44.080
 1769BOLB   NC142433  21.390  14.360  43.020
 1769BOLB   PO142434  21.820  14.170  43.000
 1769BOLB   GL142435  21.790  14.060  43.320
 1769BOLB   GL242436  21.730  14.190  43.570
 1769BOLB   C1A42437  21.680  13.700  43.650
 1769BOLB   C2A42438  21.730  13.790  44.020
 1769BOLB   C3A42439  21.870  13.770  44.430
 1769BOLB   C4A42440  21.920  13.710  44.820
 1769BOLB   C1B42441  21.500  14.180  43.890
 1769BOLB   C2B42442  21.370  14.010  44.260
 1769BOLB   C3B42443  21.030  14.060  44.590
 1769BOLB   C4B42444  21.050  13.750  44.880
 1769BOLB   NC242445  21.790  12.480  46.800
 1769BOLB   PO242446  22.190  12.400  46.600
 1769BOLB   GL342447  21.960  12.820  46.480
 1769BOLB   GL442448  21.550  12.790  46.410
 1769BOLB   C1C42449  21.910  13.100  46.220
 1769BOLB   C2C42450  21.870  13.460  45.970
 1769BOLB   C3C42451  22.100  13.720  45.610
 1769BOLB   C4C42452  22.210  13.640  45.240
 1769BOLB   C1D42453  21.600  12.810  45.970
 1769BOLB   C2D42454  21.220  12.790  45.770
 1769BOLB   C3D42455  20.820  13.030  45.710
 1769BOLB   C4D42456  20.390  12.920  45.610
 1770BOLB   NC142457  28.025  16.930  35.270
 1770BOLB   PO142458  28.455  16.880  35.340
 1770BOLB   GL142459  28.865  16.920  35.380
 1770BOLB   GL242460  28.965  16.840  35.620
 1770BOLB   C1A42461  29.035  17.220  35.110
 1770BOLB   C2A42462  29.275  17.420  34.760
 1770BOLB   C3A42463  29.565  17.690  34.460
 1770BOLB   C4A42464  29.675  18.040  34.220
 1770BOLB   C1B42465  29.355  16.790  35.580
 1770BOLB   C2B42466  29.805  17.050  35.510
 1770BOLB   C3B42467  30.195  17.370  35.630
 1770BOLB   C4B42468  30.585  17.570  35.810
 1770BOLB   NC242469  30.595  19.570  32.700
 1770BOLB   PO242470  30.775  19.690  33.100
 1770BOLB   GL342471  30.655  19.200  33.070
 1770BOLB   GL442472  30.405  19.170  33.300
 1770BOLB   C1C42473  30.485  18.710  33.090
 1770BOLB   C2C42474  30.155  18.550  33.270
 1770BOLB   C3C42475  29.935  18.290  33.380
 1770BOLB   C4C42476  29.695  18.140  33.750
 1770BOLB   C1D42477  29.985  18.980  33.540
 1770BOLB   C2D42478  29.805  18.640  33.800
 1770BOLB   C3D42479  29.335  18.640  33.690
 1770BOLB   C4D42480  29.095  18.650  33.400
 1771BOLB   NC142481  33.365  14.550  34.730
 1771BOLB   PO142482  33.435  14.470  35.130
 1771BOLB   GL142483  33.055  14.520  35.090
 1771BOLB   GL242484  32.885  14.390  35.260
 1771BOLB   C1A42485  32.735  14.600  34.700
 1771BOLB   C2A42486  32.295  14.700  34.830
 1771BOLB   C3A42487  32.015  14.860  34.570
 1771BOLB   C4A42488  31.755  14.800  34.240
 1771BOLB   C1B42489  32.865  13.990  35.260
 1771BOLB   C2B42490  32.765  13.590  35.390
 1771BOLB   C3B42491  32.805  13.430  35.790
 1771BOLB   C4B42492  32.445  13.280  35.900
 1771BOLB   NC242493  33.335  15.030  33.270
 1771BOLB   PO242494  33.525  15.230  32.890
 1771BOLB   GL342495  33.145  14.980  32.770
 1771BOLB   GL442496  33.065  14.660  32.760
 1771BOLB   C1C42497  32.645  15.020  32.940
 1771BOLB   C2C42498  32.225  15.000  33.140
 1771BOLB   C3C42499  32.025  14.940  33.440
 1771BOLB   C4C42500  31.695  14.920  33.850
 1771BOLB   C1D42501  32.765  14.250  32.830
 1771BOLB   C2D42502  32.695  13.940  32.620
 1771BOLB   C3D42503  32.345  13.770  32.370
 1771BOLB   C4D42504  31.965  13.830  32.080
 1772BOLB   NC142505  20.280   9.290  27.860
 1772BOLB   PO142506  20.760   9.210  27.710
 1772BOLB   GL142507  20.690   8.930  27.330
 1772BOLB   GL242508  20.660   9.110  27.080
 1772BOLB   C1A42509  20.390   8.520  27.310
 1772BOLB   C2A42510  20.020   8.260  27.260
 1772BOLB   C3A42511  19.920   7.930  27.110
 1772BOLB   C4A42512  19.550   7.630  26.840
 1772BOLB   C1B42513  20.350   8.950  26.890
 1772BOLB   C2B42514  20.040   8.640  26.900
 1772BOLB   C3B42515  19.800   8.320  26.780
 1772BOLB   C4B42516  19.430   8.110  26.700
 1772BOLB   NC242517  18.300   6.160  25.390
 1772BOLB   PO242518  18.710   6.220  25.460
 1772BOLB   GL342519  18.930   6.470  25.560
 1772BOLB   GL442520  18.820   6.840  25.410
 1772BOLB   C1C42521  19.240   6.540  25.800
 1772BOLB   C2C42522  19.410   6.810  26.050
 1772BOLB   C3C42523  19.560   7.110  26.320
 1772BOLB   C4C42524  19.610   7.410  26.630
 1772BOLB   C1D42525  18.860   7.020  25.810
 1772BOLB   C2D42526  19.230   7.310  25.840
 1772BOLB   C3D42527  19.620   7.550  25.710
 1772BOLB   C4D42528  19.980   7.760  25.720
 1773BOLB   NC142529  14.870  21.360  25.260
 1773BOLB   PO142530  14.670  21.790  25.250
 1773BOLB   GL142531  14.350  22.020  25.160
 1773BOLB   GL242532  14.210  21.890  24.840
 1773BOLB   C1A42533  13.930  22.200  25.120
 1773BOLB   C2A42534  13.450  22.110  25.060
 1773BOLB   C3A42535  13.340  22.300  24.720
 1773BOLB   C4A42536  13.410  22.660  24.480
 1773BOLB   C1B42537  14.350  22.360  24.640
 1773BOLB   C2B42538  14.250  22.730  24.620
 1773BOLB   C3B42539  14.020  23.090  24.860
 1773BOLB   C4B42540  13.660  23.380  24.860
 1773BOLB   NC242541  11.370  23.490  24.400
 1773BOLB   PO242542  11.370  23.910  24.190
 1773BOLB   GL342543  11.720  23.850  24.360
 1773BOLB   GL442544  11.890  24.060  24.540
 1773BOLB   C1C42545  12.100  23.600  24.530
 1773BOLB   C2C42546  12.550  23.460  24.630
 1773BOLB   C3C42547  12.850  23.320  24.410
 1773BOLB   C4C42548  13.160  23.020  24.430
 1773BOLB   C1D42549  12.090  23.920  24.900
 1773BOLB   C2D42550  12.510  23.970  24.920
 1773BOLB   C3D42551  12.860  23.800  25.090
 1773BOLB   C4D42552  12.970  23.560  25.490
 1774BOLB   NC142553  19.230  20.700  40.580
 1774BOLB   PO142554  18.820  20.850  40.890
 1774BOLB   GL142555  18.720  20.990  41.340
 1774BOLB   GL242556  18.820  21.180  41.420
 1774BOLB   C1A42557  18.350  21.140  41.590
 1774BOLB   C2A42558  17.980  21.360  41.610
 1774BOLB   C3A42559  17.760  21.490  41.870
 1774BOLB   C4A42560  17.430  21.650  42.230
 1774BOLB   C1B42561  18.880  21.320  41.750
 1774BOLB   C2B42562  18.680  21.530  42.050
 1774BOLB   C3B42563  18.480  21.650  42.380
 1774BOLB   C4B42564  18.220  21.830  42.770
 1774BOLB   NC242565  16.140  22.450  44.320
 1774BOLB   PO242566  15.800  22.690  44.020
 1774BOLB   GL342567  15.950  22.420  43.650
 1774BOLB   GL442568  15.830  22.510  43.430
 1774BOLB   C1C42569  16.230  22.110  43.430
 1774BOLB   C2C42570  16.530  21.890  43.120
 1774BOLB   C3C42571  16.860  21.590  42.920
 1774BOLB   C4C42572  17.200  21.530  42.590
 1774BOLB   C1D42573  15.860  22.370  43.050
 1774BOLB   C2D42574  16.080  22.110  42.840
 1774BOLB   C3D42575  16.200  21.710  42.710
 1774BOLB   C4D42576  16.560  21.400  42.520
 1775BOLB   NC142577  21.670  20.500  22.680
 1775BOLB   PO142578  21.990  20.480  23.030
 1775BOLB   GL142579  22.140  20.730  22.710
 1775BOLB   GL242580  22.430  20.580  22.470
 1775BOLB   C1A42581  22.290  21.030  22.590
 1775BOLB   C2A42582  22.550  21.290  22.450
 1775BOLB   C3A42583  22.620  21.680  22.260
 1775BOLB   C4A42584  22.840  21.810  21.940
 1775BOLB   C1B42585  22.550  20.830  22.090
 1775BOLB   C2B42586  22.510  20.950  21.650
 1775BOLB   C3B42587  22.310  21.210  21.410
 1775BOLB   C4B42588  21.910  21.540  21.450
 1775BOLB   NC242589  24.790  23.100  21.660
 1775BOLB   PO242590  24.430  23.400  21.470
 1775BOLB   GL342591  24.330  22.980  21.480
 1775BOLB   GL442592  24.340  22.920  21.840
 1775BOLB   C1C42593  24.160  22.550  21.630
 1775BOLB   C2C42594  23.880  22.370  21.730
 1775BOLB   C3C42595  23.480  22.320  21.620
 1775BOLB   C4C42596  23.220  22.030  21.740
 1775BOLB   C1D42597  24.280  22.930  22.190
 1775BOLB   C2D42598  24.130  22.850  22.580
 1775BOLB   C3D42599  23.710  22.740  22.680
 1775BOLB   C4D42600  23.210  22.660  22.800
 1776BOLB   NC142601  26.585   7.880  33.050
 1776BOLB   PO142602  26.675   7.910  33.530
 1776BOLB   GL142603  26.755   7.550  33.510
 1776BOLB   GL242604  26.535   7.410  33.360
 1776BOLB   C1A42605  26.945   7.130  33.410
 1776BOLB   C2A42606  27.165   6.680  33.310
 1776BOLB   C3A42607  27.375   6.370  33.550
 1776BOLB   C4A42608  27.505   5.950  33.560
 1776BOLB   C1B42609  26.655   7.140  32.980
 1776BOLB   C2B42610  26.895   6.830  32.930
 1776BOLB   C3B42611  26.935   6.450  32.940
 1776BOLB   C4B42612  27.225   6.160  33.080
 1776BOLB   NC242613  28.375   4.320  32.150
 1776BOLB   PO242614  28.285   3.980  32.510
 1776BOLB   GL342615  28.095   4.360  32.590
 1776BOLB   GL442616  28.225   4.590  32.550
 1776BOLB   C1C42617  27.735   4.550  32.850
 1776BOLB   C2C42618  27.615   4.940  32.960
 1776BOLB   C3C42619  27.715   5.280  33.210
 1776BOLB   C4C42620  27.735   5.580  33.540
 1776BOLB   C1D42621  28.235   4.960  32.850
 1776BOLB   C2D42622  28.415   5.400  32.680
 1776BOLB   C3D42623  28.455   5.860  32.610
 1776BOLB   C4D42624  28.825   5.940  32.820
 1777BOLB   NC142625  25.120  21.120  36.770
 1777BOLB   PO142626  25.320  21.480  37.170
 1777BOLB   GL142627  25.620  21.720  37.120
 1777BOLB   GL242628  25.710  21.470  36.800
 1777BOLB   C1A42629  26.120  21.750  37.110
 1777BOLB   C2A42630  26.350  22.040  37.000
 1777BOLB   C3A42631  26.855  22.090  37.020
 1777BOLB   C4A42632  27.245  22.310  37.300
 1777BOLB   C1B42633  26.020  21.790  36.590
 1777BOLB   C2B42634  26.240  22.090  36.500
 1777BOLB   C3B42635  26.645  22.000  36.540
 1777BOLB   C4B42636  27.015  21.760  36.610
 1777BOLB   NC242637  28.345  23.620  38.550
 1777BOLB   PO242638  28.695  23.240  38.490
 1777BOLB   GL342639  28.385  23.140  38.530
 1777BOLB   GL442640  28.275  22.820  38.710
 1777BOLB   C1C42641  27.945  23.030  38.280
 1777BOLB   C2C42642  27.915  23.080  37.800
 1777BOLB   C3C42643  27.635  22.870  37.500
 1777BOLB   C4C42644  27.355  22.750  37.280
 1777BOLB   C1D42645  28.145  22.560  38.330
 1777BOLB   C2D42646  27.935  22.200  38.230
 1777BOLB   C3D42647  27.685  21.840  38.280
 1777BOLB   C4D42648  27.535  21.570  38.540
 1778BOLB   NC142649  29.035  14.210  29.840
 1778BOLB   PO142650  29.315  13.970  30.190
 1778BOLB   GL142651  29.565  14.270  30.010
 1778BOLB   GL242652  29.835  14.230  29.870
 1778BOLB   C1A42653  29.735  14.690  30.110
 1778BOLB   C2A42654  30.095  15.000  29.990
 1778BOLB   C3A42655  30.565  15.090  29.890
 1778BOLB   C4A42656  30.795  15.530  29.830
 1778BOLB   C1B42657  30.245  14.360  29.900
 1778BOLB   C2B42658  30.685  14.390  29.980
 1778BOLB   C3B42659  31.095  14.310  29.890
 1778BOLB   C4B42660  31.495  14.540  29.890
 1778BOLB   NC242661  32.795  16.950  29.350
 1778BOLB   PO242662  32.345  16.750  29.310
 1778BOLB   GL342663  32.005  16.530  29.130
 1778BOLB   GL442664  32.025  16.520  28.780
 1778BOLB   C1C42665  31.605  16.450  29.430
 1778BOLB   C2C42666  31.255  16.520  29.560
 1778BOLB   C3C42667  30.895  16.290  29.650
 1778BOLB   C4C42668  30.705  15.990  29.740
 1778BOLB   C1D42669  31.685  16.360  28.450
 1778BOLB   C2D42670  31.235  16.420  28.460
 1778BOLB   C3D42671  30.915  16.270  28.680
 1778BOLB   C4D42672  30.755  15.840  28.840
 1779BOLB   NC142673  23.950  21.780  39.740
 1779BOLB   PO142674  24.090  21.510  39.360
 1779BOLB   GL142675  23.950  21.930  39.110
 1779BOLB   GL242676  23.840  22.140  39.380
 1779BOLB   C1A42677  24.210  22.250  38.920
 1779BOLB   C2A42678  24.330  22.670  39.140
 1779BOLB   C3A42679  24.420  23.170  39.240
 1779BOLB   C4A42680  24.720  23.380  39.400
 1779BOLB   C1B42681  24.030  22.530  39.470
 1779BOLB   C2B42682  24.400  22.630  39.650
 1779BOLB   C3B42683  24.650  23.070  39.770
 1779BOLB   C4B42684  24.850  23.190  40.130
 1779BOLB   NC242685  26.280  24.980  38.870
 1779BOLB   PO242686  25.830  25.170  38.940
 1779BOLB   GL342687  25.740  24.720  38.990
 1779BOLB   GL442688  25.690  24.730  38.720
 1779BOLB   C1C42689  25.690  24.370  39.320
 1779BOLB   C2C42690  25.620  24.030  39.300
 1779BOLB   C3C42691  25.440  23.700  39.510
 1779BOLB   C4C42692  25.160  23.390  39.440
 1779BOLB   C1D42693  25.660  24.490  38.430
 1779BOLB   C2D42694  25.650  24.100  38.310
 1779BOLB   C3D42695  25.590  23.680  38.160
 1779BOLB   C4D42696  25.720  23.190  38.060
 1780BOLB   NC142697  15.520  23.570  34.740
 1780BOLB   PO142698  15.500  23.250  35.140
 1780BOLB   GL142699  15.410  23.680  35.220
 1780BOLB   GL242700  15.560  23.680  35.600
 1780BOLB   C1A42701  15.200  24.040  35.320
 1780BOLB   C2A42702  14.930  24.420  35.450
 1780BOLB   C3A42703  14.820  24.800  35.600
 1780BOLB   C4A42704  14.440  24.880  35.900
 1780BOLB   C1B42705  15.360  24.010  35.760
 1780BOLB   C2B42706  15.120  24.280  35.860
 1780BOLB   C3B42707  14.830  24.540  36.080
 1780BOLB   C4B42708  14.800  24.840  36.400
 1780BOLB   NC242709  13.140   0.020  36.280
 1780BOLB   PO242710  12.740  26.140  36.310
 1780BOLB   GL342711  12.790  25.770  36.150
 1780BOLB   GL442712  12.640  25.500  36.230
 1780BOLB   C1C42713  13.090  25.580  36.080
 1780BOLB   C2C42714  13.280  25.330  35.820
 1780BOLB   C3C42715  13.630  24.960  35.820
 1780BOLB   C4C42716  14.080  24.890  35.880
 1780BOLB   C1D42717  12.870  25.120  36.150
 1780BOLB   C2D42718  13.130  24.850  36.020
 1780BOLB   C3D42719  13.330  24.570  35.950
 1780BOLB   C4D42720  13.490  24.210  35.890
 1781BOLB   NC142721  29.095  11.770  30.180
 1781BOLB   PO142722  29.525  11.850  30.100
 1781BOLB   GL142723  29.835  11.760  30.070
 1781BOLB   GL242724  29.925  11.640  30.430
 1781BOLB   C1A42725  30.185  11.540  29.910
 1781BOLB   C2A42726  30.515  11.240  29.770
 1781BOLB   C3A42727  30.815  11.080  30.030
 1781BOLB   C4A42728  30.845  10.980  30.490
 1781BOLB   C1B42729  30.415  11.370  30.330
 1781BOLB   C2B42730  30.805  11.500  30.480
 1781BOLB   C3B42731  31.155  11.350  30.320
 1781BOLB   C4B42732  31.615  11.080  30.150
 1781BOLB   NC242733  33.685  10.910  30.310
 1781BOLB   PO242734  33.265  10.960  30.120
 1781BOLB   GL342735  32.865  10.970  30.230
 1781BOLB   GL442736  32.685  11.060  29.980
 1781BOLB   C1C42737  32.495  10.950  30.510
 1781BOLB   C2C42738  32.045  11.000  30.480
 1781BOLB   C3C42739  31.615  10.960  30.650
 1781BOLB   C4C42740  31.235  11.020  30.720
 1781BOLB   C1D42741  32.225  11.090  29.880
 1781BOLB   C2D42742  31.865  11.190  29.680
 1781BOLB   C3D42743  31.475  11.190  29.510
 1781BOLB   C4D42744  31.255  11.450  29.240
 1782BOLB   NC142745  15.940  14.360  32.000
 1782BOLB   PO142746  15.870  13.930  31.940
 1782BOLB   GL142747  15.650  13.720  31.710
 1782BOLB   GL242748  15.450  13.840  31.480
 1782BOLB   C1A42749  15.290  13.400  31.770
 1782BOLB   C2A42750  15.130  13.060  31.830
 1782BOLB   C3A42751  14.800  12.690  31.810
 1782BOLB   C4A42752  14.520  12.460  31.460
 1782BOLB   C1B42753  15.150  13.650  31.350
 1782BOLB   C2B42754  14.840  13.350  31.490
 1782BOLB   C3B42755  14.490  12.960  31.540
 1782BOLB   C4B42756  14.210  12.640  31.850
 1782BOLB   NC242757  12.490  10.690  32.040
 1782BOLB   PO242758  12.430  11.130  31.960
 1782BOLB   GL342759  12.680  11.440  31.740
 1782BOLB   GL442760  12.650  11.750  31.560
 1782BOLB   C1C42761  13.120  11.690  31.780
 1782BOLB   C2C42762  13.520  11.890  31.750
 1782BOLB   C3C42763  13.730  12.190  31.520
 1782BOLB   C4C42764  14.000  12.410  31.410
 1782BOLB   C1D42765  12.730  11.950  31.990
 1782BOLB   C2D42766  13.080  12.010  32.190
 1782BOLB   C3D42767  13.490  12.100  32.230
 1782BOLB   C4D42768  13.840  12.310  32.080
 1783BOLB   NC142769  17.270   1.630  27.460
 1783BOLB   PO142770  16.820   1.880  27.550
 1783BOLB   GL142771  16.990   1.400  27.750
 1783BOLB   GL242772  17.060   1.360  28.000
 1783BOLB   C1A42773  16.920   0.930  27.720
 1783BOLB   C2A42774  16.810   0.500  27.620
 1783BOLB   C3A42775  16.970   0.240  27.490
 1783BOLB   C4A42776  16.910  26.340  27.370
 1783BOLB   C1B42777  17.380   0.950  27.950
 1783BOLB   C2B42778  17.250   0.550  28.060
 1783BOLB   C3B42779  17.170   0.110  27.950
 1783BOLB   C4B42780  17.260  26.060  27.770
 1783BOLB   NC242781  15.860   1.020  25.540
 1783BOLB   PO242782  15.840   1.070  25.990
 1783BOLB   GL342783  16.030   0.850  26.280
 1783BOLB   GL442784  16.230   0.850  26.570
 1783BOLB   C1C42785  15.780   0.390  26.250
 1783BOLB   C2C42786  15.900  26.390  26.500
 1783BOLB   C3C42787  16.190  26.390  26.870
 1783BOLB   C4C42788  16.390  26.290  27.230
 1783BOLB   C1D42789  16.000   0.410  26.680
 1783BOLB   C2D42790  15.690   0.080  26.960
 1783BOLB   C3D42791  15.280   0.080  27.130
 1783BOLB   C4D42792  14.990   0.290  27.370
 1784BOLB   NC142793  28.015  17.890  20.470
 1784BOLB   PO142794  28.405  17.690  20.630
 1784BOLB   GL142795  28.075  17.610  20.940
 1784BOLB   GL242796  28.185  17.270  21.030
 1784BOLB   C1A42797  27.705  17.660  21.040
 1784BOLB   C2A42798  27.415  17.360  20.880
 1784BOLB   C3A42799  27.055  17.340  21.100
 1784BOLB   C4A42800  26.955  17.190  21.540
 1784BOLB   C1B42801  27.835  17.350  21.390
 1784BOLB   C2B42802  27.375  17.460  21.470
 1784BOLB   C3B42803  27.085  17.650  21.680
 1784BOLB   C4B42804  27.035  17.920  21.990
 1784BOLB   NC242805  28.725  18.480  22.040
 1784BOLB   PO242806  28.745  18.220  21.760
 1784BOLB   GL342807  28.515  18.020  22.050
 1784BOLB   GL442808  28.765  17.780  22.030
 1784BOLB   C1C42809  28.185  17.650  22.070
 1784BOLB   C2C42810  27.965  17.380  22.150
 1784BOLB   C3C42811  27.605  17.170  21.820
 1784BOLB   C4C42812  27.215  17.090  21.830
 1784BOLB   C1D42813  28.545  17.340  21.960
 1784BOLB   C2D42814  28.225  17.010  21.970
 1784BOLB   C3D42815  27.845  16.680  21.950
 1784BOLB   C4D42816  27.425  16.530  22.000
 1785BOLB   NC142817  29.765  12.250  35.310
 1785BOLB   PO142818  29.665  11.790  35.270
 1785BOLB   GL142819  29.975  11.840  35.590
 1785BOLB   GL242820  29.955  11.880  35.890
 1785BOLB   C1A42821  30.375  11.780  35.650
 1785BOLB   C2A42822  30.735  11.580  35.890
 1785BOLB   C3A42823  31.005  11.950  35.930
 1785BOLB   C4A42824  31.325  11.960  36.270
 1785BOLB   C1B42825  30.305  12.160  36.100
 1785BOLB   C2B42826  30.665  12.260  36.160
 1785BOLB   C3B42827  31.135  12.460  36.220
 1785BOLB   C4B42828  31.505  12.660  36.220
 1785BOLB   NC242829  33.625  11.670  35.820
 1785BOLB   PO242830  33.735  11.590  36.110
 1785BOLB   GL342831  33.295  11.560  36.260
 1785BOLB   GL442832  33.225  11.560  36.610
 1785BOLB   C1C42833  32.875  11.360  36.330
 1785BOLB   C2C42834  32.455  11.480  36.430
 1785BOLB   C3C42835  32.065  11.590  36.580
 1785BOLB   C4C42836  31.665  11.680  36.420
 1785BOLB   C1D42837  32.835  11.770  36.620
 1785BOLB   C2D42838  32.635  12.120  36.490
 1785BOLB   C3D42839  32.335  12.310  36.210
 1785BOLB   C4D42840  31.925  12.350  35.980
 1786BOLB   NC142841  25.050  13.440  22.070
 1786BOLB   PO142842  25.400  13.640  22.140
 1786BOLB   GL142843  25.540  13.630  21.850
 1786BOLB   GL242844  25.540  13.950  21.780
 1786BOLB   C1A42845  25.560  13.440  21.480
 1786BOLB   C2A42846  25.710  13.020  21.190
 1786BOLB   C3A42847  25.930  12.880  20.900
 1786BOLB   C4A42848  26.270  12.810  20.770
 1786BOLB   C1B42849  25.820  14.070  21.470
 1786BOLB   C2B42850  25.930  13.750  21.140
 1786BOLB   C3B42851  25.840  13.460  20.820
 1786BOLB   C4B42852  25.590  13.570  20.440
 1786BOLB   NC242853  27.655  12.270  18.530
 1786BOLB   PO242854  27.235  12.320  18.740
 1786BOLB   GL342855  27.205  12.260  19.220
 1786BOLB   GL442856  26.865  12.290  19.380
 1786BOLB   C1C42857  27.265  12.650  19.520
 1786BOLB   C2C42858  26.975  12.970  19.760
 1786BOLB   C3C42859  26.715  13.030  20.140
 1786BOLB   C4C42860  26.430  12.970  20.370
 1786BOLB   C1D42861  26.675  12.560  19.700
 1786BOLB   C2D42862  26.715  12.550  20.130
 1786BOLB   C3D42863  26.575  12.420  20.490
 1786BOLB   C4D42864  26.210  12.270  20.880
 1787BOLB   NC142865  28.425  16.630  38.160
 1787BOLB   PO142866  28.325  17.050  38.100
 1787BOLB   GL142867  28.675  17.120  38.380
 1787BOLB   GL242868  28.935  16.810  38.240
 1787BOLB   C1A42869  29.075  17.390  38.320
 1787BOLB   C2A42870  29.445  17.380  38.250
 1787BOLB   C3A42871  29.875  17.450  38.280
 1787BOLB   C4A42872  30.345  17.490  38.230
 1787BOLB   C1B42873  29.335  16.570  38.110
 1787BOLB   C2B42874  29.525  16.210  37.830
 1787BOLB   C3B42875  29.685  15.820  38.110
 1787BOLB   C4B42876  29.865  15.500  38.190
 1787BOLB   NC242877  32.425  17.160  38.350
 1787BOLB   PO242878  32.465  16.770  38.520
 1787BOLB   GL342879  32.145  16.500  38.410
 1787BOLB   GL442880  32.295  16.430  38.130
 1787BOLB   C1C42881  31.735  16.590  38.440
 1787BOLB   C2C42882  31.245  16.790  38.390
 1787BOLB   C3C42883  30.975  17.020  38.460
 1787BOLB   C4C42884  30.685  17.280  38.350
 1787BOLB   C1D42885  31.895  16.570  37.980
 1787BOLB   C2D42886  31.575  16.390  37.820
 1787BOLB   C3D42887  31.225  16.520  37.920
 1787BOLB   C4D42888  31.085  16.840  37.760
 1788BOLB   NC142889  19.210  24.350  34.550
 1788BOLB   PO142890  19.490  24.350  34.160
 1788BOLB   GL142891  19.740  24.720  34.060
 1788BOLB   GL242892  19.670  24.890  33.690
 1788BOLB   C1A42893  19.920  25.150  34.040
 1788BOLB   C2A42894  19.960  25.610  34.230
 1788BOLB   C3A42895  19.970  25.940  34.480
 1788BOLB   C4A42896  20.230  26.220  34.360
 1788BOLB   C1B42897  19.470  25.200  33.850
 1788BOLB   C2B42898  19.500  25.550  34.120
 1788BOLB   C3B42899  19.480  26.010  34.160
 1788BOLB   C4B42900  19.670   0.080  34.350
 1788BOLB   NC242901  20.690   2.550  34.350
 1788BOLB   PO242902  20.530   2.320  34.670
 1788BOLB   GL342903  20.450   1.920  34.800
 1788BOLB   GL442904  20.540   1.830  35.080
 1788BOLB   C1C42905  20.180   1.580  34.760
 1788BOLB   C2C42906  20.230   1.180  34.720
 1788BOLB   C3C42907  20.260   0.670  34.440
 1788BOLB   C4C42908  20.260   0.260  34.270
 1788BOLB   C1D42909  20.390   1.340  35.160
 1788BOLB   C2D42910  20.210   0.940  35.240
 1788BOLB   C3D42911  19.890   0.730  35.260
 1788BOLB   C4D42912  19.480   0.630  35.140
 1789BOLB   NC142913  28.495  16.590  35.930
 1789BOLB   PO142914  28.045  16.810  35.780
 1789BOLB   GL142915  28.325  17.130  35.800
 1789BOLB   GL242916  28.175  17.360  35.530
 1789BOLB   C1A42917  28.645  17.400  35.750
 1789BOLB   C2A42918  29.045  17.330  35.630
 1789BOLB   C3A42919  29.435  17.390  35.470
 1789BOLB   C4A42920  29.825  17.410  35.200
 1789BOLB   C1B42921  28.375  17.740  35.600
 1789BOLB   C2B42922  28.695  18.070  35.540
 1789BOLB   C3B42923  28.985  18.390  35.430
 1789BOLB   C4B42924  28.945  18.710  35.080
 1789BOLB   NC242925  31.995  18.960  33.990
 1789BOLB   PO242926  31.925  18.570  34.250
 1789BOLB   GL342927  31.685  18.490  34.600
 1789BOLB   GL442928  31.405  18.440  34.380
 1789BOLB   C1C42929  31.245  18.340  34.830
 1789BOLB   C2C42930  30.845  18.190  35.050
 1789BOLB   C3C42931  30.515  17.820  35.000
 1789BOLB   C4C42932  30.165  17.620  35.090
 1789BOLB   C1D42933  31.405  18.070  34.220
 1789BOLB   C2D42934  31.105  17.640  34.220
 1789BOLB   C3D42935  30.845  17.270  34.350
 1789BOLB   C4D42936  30.675  16.930  34.480
 1790BOLB   NC142937  17.360  19.880  40.820
 1790BOLB   PO142938  17.740  20.180  40.730
 1790BOLB   GL142939  17.660  20.630  40.920
 1790BOLB   GL242940  17.860  20.600  41.080
 1790BOLB   C1A42941  17.340  20.840  41.150
 1790BOLB   C2A42942  17.070  20.990  41.480
 1790BOLB   C3A42943  16.860  21.360  41.520
 1790BOLB   C4A42944  16.460  21.490  41.680
 1790BOLB   C1B42945  17.600  20.530  41.490
 1790BOLB   C2B42946  17.180  20.590  41.740
 1790BOLB   C3B42947  16.960  20.420  42.110
 1790BOLB   C4B42948  16.730  20.410  42.580
 1790BOLB   NC242949  15.550  23.180  43.740
 1790BOLB   PO242950  15.750  23.040  43.340
 1790BOLB   GL342951  16.040  22.850  43.000
 1790BOLB   GL442952  15.730  22.940  42.820
 1790BOLB   C1C42953  16.040  22.640  42.560
 1790BOLB   C2C42954  15.990  22.440  42.110
 1790BOLB   C3C42955  16.140  22.070  41.890
 1790BOLB   C4C42956  16.390  21.750  42.010
 1790BOLB   C1D42957  15.590  22.590  42.660
 1790BOLB   C2D42958  15.760  22.210  42.520
 1790BOLB   C3D42959  16.270  22.090  42.420
 1790BOLB   C4D42960  16.650  21.900  42.600
 1791BOLB   NC142961  21.590  22.940  45.420
 1791BOLB   PO142962  21.560  23.200  45.050
 1791BOLB   GL142963  21.740  22.890  44.860
 1791BOLB   GL242964  21.870  22.990  44.590
 1791BOLB   C1A42965  21.770  22.510  44.870
 1791BOLB   C2A42966  21.480  22.260  44.860
 1791BOLB   C3A42967  21.420  21.960  45.130
 1791BOLB   C4A42968  21.490  21.510  45.100
 1791BOLB   C1B42969  21.730  23.090  44.190
 1791BOLB   C2B42970  21.380  22.870  43.800
 1791BOLB   C3B42971  20.910  22.960  43.650
 1791BOLB   C4B42972  20.680  22.880  43.290
 1791BOLB   NC242973  23.150  21.190  47.080
 1791BOLB   PO242974  22.960  21.070  46.550
 1791BOLB   GL342975  22.850  20.830  46.220
 1791BOLB   GL442976  23.030  20.660  46.160
 1791BOLB   C1C42977  22.770  20.530  45.810
 1791BOLB   C2C42978  22.410  20.580  45.620
 1791BOLB   C3C42979  22.130  20.900  45.560
 1791BOLB   C4C42980  21.820  21.200  45.320
 1791BOLB   C1D42981  22.850  20.230  46.170
 1791BOLB   C2D42982  22.770  19.990  45.740
 1791BOLB   C3D42983  22.390  19.800  45.570
 1791BOLB   C4D42984  22.210  19.740  45.250
 1792BOLB   NC142985  21.710  10.400  24.510
 1792BOLB   PO142986  21.410  10.450  24.130
 1792BOLB   GL142987  21.050  10.030  24.170
 1792BOLB   GL242988  20.940   9.710  24.290
 1792BOLB   C1A42989  20.660  10.000  23.890
 1792BOLB   C2A42990  20.350   9.730  23.850
 1792BOLB   C3A42991  20.130   9.500  23.660
 1792BOLB   C4A42992  19.990   9.120  23.650
 1792BOLB   C1B42993  20.990   9.220  24.400
 1792BOLB   C2B42994  21.010   8.800  24.450
 1792BOLB   C3B42995  20.810   8.390  24.460
 1792BOLB   C4B42996  20.980   8.020  24.270
 1792BOLB   NC242997  19.160   7.290  22.650
 1792BOLB   PO242998  19.250   7.220  23.050
 1792BOLB   GL342999  19.510   7.330  23.400
 1792BOLB   GL443000  19.610   7.170  23.620
 1792BOLB   C1C43001  19.430   7.580  23.840
 1792BOLB   C2C43002  19.680   7.970  23.840
 1792BOLB   C3C43003  19.770   8.310  23.660
 1792BOLB   C4C43004  19.900   8.730  23.570
 1792BOLB   C1D43005  19.860   7.380  23.770
 1792BOLB   C2D43006  19.870   7.640  24.130
 1792BOLB   C3D43007  20.060   7.940  24.270
 1792BOLB   C4D43008  20.450   8.240  24.240
 1793BOLB   NC143009  16.960  19.510  21.900
 1793BOLB   PO143010  17.250  19.300  21.610
 1793BOLB   GL143011  17.510  19.140  21.250
 1793BOLB   GL243012  17.580  18.820  21.180
 1793BOLB   C1A43013  17.460  19.230  20.720
 1793BOLB   C2A43014  17.380  19.190  20.330
 1793BOLB   C3A43015  17.460  19.380  19.860
 1793BOLB   C4A43016  17.490  19.830  19.760
 1793BOLB   C1B43017  17.350  18.730  20.930
 1793BOLB   C2B43018  17.000  18.600  20.680
 1793BOLB   C3B43019  16.760  18.320  20.410
 1793BOLB   C4B43020  16.740  18.270  19.970
 1793BOLB   NC243021  17.140  21.670  17.810
 1793BOLB   PO243022  16.830  21.510  18.140
 1793BOLB   GL343023  16.880  21.280  18.520
 1793BOLB   GL443024  16.630  21.220  18.710
 1793BOLB   C1C43025  17.060  21.000  18.640
 1793BOLB   C2C43026  17.350  20.720  18.790
 1793BOLB   C3C43027  17.330  20.460  19.150
 1793BOLB   C4C43028  17.540  20.180  19.430
 1793BOLB   C1D43029  16.870  21.300  19.040
 1793BOLB   C2D43030  16.980  21.450  19.380
 1793BOLB   C3D43031  17.130  21.210  19.720
 1793BOLB   C4D43032  17.280  20.930  19.980
 1794BOLB   NC143033  25.220  17.550  42.310
 1794BOLB   PO143034  25.620  17.690  42.050
 1794BOLB   GL143035  25.760  17.410  42.350
 1794BOLB   GL243036  25.580  17.410  42.610
 1794BOLB   C1A43037  26.150  17.360  42.600
 1794BOLB   C2A43038  26.535  17.330  42.640
 1794BOLB   C3A43039  26.985  17.500  42.690
 1794BOLB   C4A43040  27.345  17.730  42.960
 1794BOLB   C1B43041  25.770  17.400  43.040
 1794BOLB   C2B43042  25.930  17.510  43.410
 1794BOLB   C3B43043  26.220  17.490  43.740
 1794BOLB   C4B43044  26.300  17.740  44.120
 1794BOLB   NC243045  28.735  19.230  44.650
 1794BOLB   PO243046  28.945  19.050  44.330
 1794BOLB   GL343047  28.815  18.840  43.940
 1794BOLB   GL443048  28.385  18.810  44.020
 1794BOLB   C1C43049  28.605  18.630  43.590
 1794BOLB   C2C43050  28.145  18.310  43.420
 1794BOLB   C3C43051  28.025  17.920  43.290
 1794BOLB   C4C43052  27.665  17.640  43.210
 1794BOLB   C1D43053  28.335  19.000  43.640
 1794BOLB   C2D43054  28.185  18.840  43.210
 1794BOLB   C3D43055  27.905  18.700  43.030
 1794BOLB   C4D43056  27.745  18.240  42.990
 1795BOLB   NC143057  18.620  14.920  41.070
 1795BOLB   PO143058  18.700  14.990  41.540
 1795BOLB   GL143059  18.530  14.770  41.860
 1795BOLB   GL243060  18.730  14.810  42.120
 1795BOLB   C1A43061  18.330  14.510  42.140
 1795BOLB   C2A43062  18.040  14.280  42.230
 1795BOLB   C3A43063  17.590  14.170  42.380
 1795BOLB   C4A43064  17.190  13.900  42.340
 1795BOLB   C1B43065  18.520  14.760  42.520
 1795BOLB   C2B43066  18.330  14.440  42.690
 1795BOLB   C3B43067  17.990  14.270  42.750
 1795BOLB   C4B43068  18.020  13.980  43.100
 1795BOLB   NC243069  15.230  12.430  42.640
 1795BOLB   PO243070  15.170  12.760  42.880
 1795BOLB   GL343071  15.470  12.950  42.570
 1795BOLB   GL443072  15.500  12.790  42.380
 1795BOLB   C1C43073  15.730  13.340  42.480
 1795BOLB   C2C43074  16.100  13.620  42.550
 1795BOLB   C3C43075  16.380  13.860  42.710
 1795BOLB   C4C43076  16.810  13.980  42.540
 1795BOLB   C1D43077  15.870  12.870  42.170
 1795BOLB   C2D43078  16.120  13.160  41.980
 1795BOLB   C3D43079  16.320  13.180  41.560
 1795BOLB   C4D43080  16.160  13.190  41.140
 1796BOLB   NC143081  29.225  19.640  22.520
 1796BOLB   PO143082  28.875  19.440  22.880
 1796BOLB   GL143083  28.655  19.400  23.210
 1796BOLB   GL243084  28.645  19.210  23.400
 1796BOLB   C1A43085  28.445  19.640  23.570
 1796BOLB   C2A43086  28.085  19.360  23.690
 1796BOLB   C3A43087  27.725  19.280  23.890
 1796BOLB   C4A43088  27.465  19.320  24.080
 1796BOLB   C1B43089  28.495  19.000  23.850
 1796BOLB   C2B43090  28.105  18.840  23.850
 1796BOLB   C3B43091  27.745  18.800  23.780
 1796BOLB   C4B43092  27.465  18.820  24.090
 1796BOLB   NC243093  28.405  20.620  23.540
 1796BOLB   PO243094  28.235  20.910  23.170
 1796BOLB   GL343095  27.975  20.830  23.360
 1796BOLB   GL443096  27.985  20.780  23.700
 1796BOLB   C1C43097  27.545  20.590  23.420
 1796BOLB   C2C43098  27.485  20.250  23.660
 1796BOLB   C3C43099  27.435  19.790  23.560
 1796BOLB   C4C43100  27.175  19.480  23.780
 1796BOLB   C1D43101  27.905  20.490  23.960
 1796BOLB   C2D43102  27.645  20.140  24.310
 1796BOLB   C3D43103  27.615  20.150  24.750
 1796BOLB   C4D43104  27.335  20.360  24.980
 1797BOLB   NC143105  27.295  11.250  25.240
 1797BOLB   PO143106  27.415  11.690  25.220
 1797BOLB   GL143107  27.755  11.410  25.130
 1797BOLB   GL243108  27.715  11.230  24.840
 1797BOLB   C1A43109  28.175  11.220  24.950
 1797BOLB   C2A43110  28.445  10.830  24.940
 1797BOLB   C3A43111  28.715  10.580  25.040
 1797BOLB   C4A43112  29.045  10.380  25.000
 1797BOLB   C1B43113  28.045  11.350  24.510
 1797BOLB   C2B43114  28.465  11.150  24.500
 1797BOLB   C3B43115  28.815  11.060  24.250
 1797BOLB   C4B43116  29.145  11.130  24.010
 1797BOLB   NC243117  30.015   9.460  22.990
 1797BOLB   PO243118  29.895   9.010  23.050
 1797BOLB   GL343119  29.735   9.230  23.400
 1797BOLB   GL443120  29.665   9.510  23.390
 1797BOLB   C1C43121  29.595   9.310  23.900
 1797BOLB   C2C43122  29.345   9.420  24.180
 1797BOLB   C3C43123  29.335   9.730  24.480
 1797BOLB   C4C43124  29.135   9.990  24.770
 1797BOLB   C1D43125  29.255   9.310  23.510
 1797BOLB   C2D43126  29.115   9.110  23.860
 1797BOLB   C3D43127  28.845   9.250  24.180
 1797BOLB   C4D43128  28.855   9.480  24.370
 1798BOLB   NC143129  16.650  24.350  31.560
 1798BOLB   PO143130  16.920  24.630  31.290
 1798BOLB   GL143131  16.720  25.000  31.110
 1798BOLB   GL243132  16.560  25.100  31.360
 1798BOLB   C1A43133  16.470  25.370  30.920
 1798BOLB   C2A43134  16.280  25.750  30.750
 1798BOLB   C3A43135  16.530  26.080  30.610
 1798BOLB   C4A43136  16.700   0.020  30.850
 1798BOLB   C1B43137  16.530  25.600  31.340
 1798BOLB   C2B43138  16.270  25.920  31.230
 1798BOLB   C3B43139  15.890  26.140  31.000
 1798BOLB   C4B43140  15.660  26.250  30.560
 1798BOLB   NC243141  16.960   2.390  31.760
 1798BOLB   PO243142  17.120   2.090  32.110
 1798BOLB   GL343143  17.190   1.740  32.150
 1798BOLB   GL443144  17.390   1.690  32.480
 1798BOLB   C1C43145  17.240   1.350  32.060
 1798BOLB   C2C43146  17.200   0.910  31.730
 1798BOLB   C3C43147  17.150   0.650  31.380
 1798BOLB   C4C43148  17.020   0.250  31.040
 1798BOLB   C1D43149  17.280   1.620  32.890
 1798BOLB   C2D43150  17.460   1.370  33.240
 1798BOLB   C3D43151  17.410   1.080  33.540
 1798BOLB   C4D43152  17.270   0.910  33.980
 1799BOLB   NC143153  27.305  10.290  38.900
 1799BOLB   PO143154  27.795  10.310  38.890
 1799BOLB   GL143155  28.055  10.230  39.100
 1799BOLB   GL243156  28.195  10.060  39.040
 1799BOLB   C1A43157  28.355  10.260  39.430
 1799BOLB   C2A43158  28.535  10.130  39.780
 1799BOLB   C3A43159  28.195   9.950  40.010
 1799BOLB   C4A43160  28.295   9.550  40.280
 1799BOLB   C1B43161  28.335   9.780  39.490
 1799BOLB   C2B43162  28.195   9.460  39.730
 1799BOLB   C3B43163  28.015   9.090  40.010
 1799BOLB   C4B43164  27.855   8.710  39.930
 1799BOLB   NC243165  28.595   7.170  41.010
 1799BOLB   PO243166  28.835   7.420  41.290
 1799BOLB   GL343167  28.735   7.870  41.060
 1799BOLB   GL443168  28.845   8.140  41.050
 1799BOLB   C1C43169  28.595   7.990  40.680
 1799BOLB   C2C43170  28.415   8.290  40.360
 1799BOLB   C3C43171  28.255   8.710  40.210
 1799BOLB   C4C43172  28.475   9.130  40.260
 1799BOLB   C1D43173  28.755   8.440  41.430
 1799BOLB   C2D43174  28.465   8.550  41.710
 1799BOLB   C3D43175  28.095   8.560  41.900
 1799BOLB   C4D43176  27.705   8.700  42.030
 1800BOLB   NC143177  14.850  15.980  36.150
 1800BOLB   PO143178  14.490  16.010  36.540
 1800BOLB   GL143179  14.170  15.700  36.480
 1800BOLB   GL243180  14.110  15.620  36.120
 1800BOLB   C1A43181  13.740  15.580  36.560
 1800BOLB   C2A43182  13.400  15.320  36.530
 1800BOLB   C3A43183  13.040  15.210  36.300
 1800BOLB   C4A43184  12.680  14.970  36.030
 1800BOLB   C1B43185  13.690  15.540  36.020
 1800BOLB   C2B43186  13.240  15.530  35.850
 1800BOLB   C3B43187  12.810  15.460  35.950
 1800BOLB   C4B43188  12.500  15.450  36.160
 1800BOLB   NC243189  10.940  15.330  37.620
 1800BOLB   PO243190  10.700  15.050  37.330
 1800BOLB   GL343191  10.930  15.010  37.000
 1800BOLB   GL443192  11.190  15.090  37.090
 1800BOLB   C1C43193  11.190  14.750  36.560
 1800BOLB   C2C43194  11.520  14.830  36.370
 1800BOLB   C3C43195  11.830  14.800  36.080
 1800BOLB   C4C43196  12.260  14.810  36.030
 1800BOLB   C1D43197  11.530  14.940  36.860
 1800BOLB   C2D43198  11.940  14.820  36.950
 1800BOLB   C3D43199  12.140  14.880  37.290
 1800BOLB   C4D43200  12.120  14.550  37.530
 1801BOLB   NC143201  23.410   0.480  37.510
 1801BOLB   PO143202  23.770   0.550  37.210
 1801BOLB   GL143203  23.490   0.300  37.090
 1801BOLB   GL243204  23.090   0.300  37.180
 1801BOLB   C1A43205  23.340  26.280  37.230
 1801BOLB   C2A43206  23.230  25.830  37.070
 1801BOLB   C3A43207  23.340  25.480  36.720
 1801BOLB   C4A43208  23.250  25.520  36.270
 1801BOLB   C1B43209  22.790  26.320  37.090
 1801BOLB   C2B43210  22.440  26.210  37.370
 1801BOLB   C3B43211  22.170  25.920  37.170
 1801BOLB   C4B43212  22.040  25.560  36.860
 1801BOLB   NC243213  25.350  26.330  35.560
 1801BOLB   PO243214  25.110   0.060  35.960
 1801BOLB   GL343215  24.850  26.200  35.800
 1801BOLB   GL443216  24.910  26.010  35.960
 1801BOLB   C1C43217  24.580  26.000  35.600
 1801BOLB   C2C43218  24.150  25.820  35.780
 1801BOLB   C3C43219  23.920  25.530  35.880
 1801BOLB   C4C43220  23.520  25.420  35.970
 1801BOLB   C1D43221  24.780  25.790  36.420
 1801BOLB   C2D43222  24.500  25.680  36.780
 1801BOLB   C3D43223  24.210  25.800  37.120
 1801BOLB   C4D43224  24.370  26.000  37.470
 1802BOLB   NC143225  21.380  15.540  43.400
 1802BOLB   PO143226  20.940  15.590  43.350
 1802BOLB   GL143227  20.750  15.790  43.710
 1802BOLB   GL243228  20.420  15.950  43.710
 1802BOLB   C1A43229  20.650  15.920  44.170
 1802BOLB   C2A43230  20.330  15.960  44.560
 1802BOLB   C3A43231  20.060  15.880  44.950
 1802BOLB   C4A43232  20.030  16.140  45.360
 1802BOLB   C1B43233  20.140  15.950  44.050
 1802BOLB   C2B43234  19.890  15.940  44.320
 1802BOLB   C3B43235  19.580  15.920  44.670
 1802BOLB   C4B43236  19.440  15.740  44.950
 1802BOLB   NC243237  20.610  16.750  47.880
 1802BOLB   PO243238  20.700  16.400  47.570
 1802BOLB   GL343239  20.740  16.220  47.180
 1802BOLB   GL443240  21.120  16.070  47.090
 1802BOLB   C1C43241  20.620  16.390  46.830
 1802BOLB   C2C43242  20.410  16.530  46.470
 1802BOLB   C3C43243  20.240  16.580  46.020
 1802BOLB   C4C43244  20.280  16.400  45.590
 1802BOLB   C1D43245  21.090  16.550  46.890
 1802BOLB   C2D43246  21.220  16.840  46.640
 1802BOLB   C3D43247  21.480  17.160  46.890
 1802BOLB   C4D43248  21.770  17.470  47.100
 1803BOLB   NC143249  21.850  21.730  41.270
 1803BOLB   PO143250  21.900  21.470  41.700
 1803BOLB   GL143251  22.150  21.720  41.840
 1803BOLB   GL243252  22.170  21.550  42.170
 1803BOLB   C1A43253  22.180  22.140  41.850
 1803BOLB   C2A43254  22.110  22.430  42.270
 1803BOLB   C3A43255  22.130  22.870  42.310
 1803BOLB   C4A43256  22.430  23.130  42.060
 1803BOLB   C1B43257  21.870  21.850  42.240
 1803BOLB   C2B43258  21.470  21.970  42.460
 1803BOLB   C3B43259  21.390  22.330  42.640
 1803BOLB   C4B43260  21.180  22.710  42.650
 1803BOLB   NC243261  23.710  24.730  42.920
 1803BOLB   PO243262  23.690  25.040  42.520
 1803BOLB   GL343263  23.580  24.670  42.450
 1803BOLB   GL443264  23.830  24.430  42.540
 1803BOLB   C1C43265  23.260  24.280  42.590
 1803BOLB   C2C43266  23.120  24.050  42.300
 1803BOLB   C3C43267  22.950  23.690  42.240
 1803BOLB   C4C43268  22.680  23.360  42.010
 1803BOLB   C1D43269  23.780  24.180  42.270
 1803BOLB   C2D43270  24.020  23.860  42.000
 1803BOLB   C3D43271  24.290  23.470  41.940
 1803BOLB   C4D43272  24.520  23.200  41.600
 1804BOLB   NC143273  25.450  18.100  41.700
 1804BOLB   PO143274  25.210  18.400  41.820
 1804BOLB   GL143275  25.530  18.460  42.150
 1804BOLB   GL243276  25.810  18.590  42.070
 1804BOLB   C1A43277  25.780  18.410  42.560
 1804BOLB   C2A43278  25.900  18.600  42.980
 1804BOLB   C3A43279  25.880  18.490  43.400
 1804BOLB   C4A43280  26.170  18.720  43.630
 1804BOLB   C1B43281  26.050  18.770  42.380
 1804BOLB   C2B43282  26.240  18.870  42.730
 1804BOLB   C3B43283  26.420  18.720  43.140
 1804BOLB   C4B43284  26.575  18.390  43.360
 1804BOLB   NC243285  27.205  18.690  46.060
 1804BOLB   PO243286  26.815  18.810  45.910
 1804BOLB   GL343287  26.735  18.800  45.460
 1804BOLB   GL443288  26.905  18.570  45.300
 1804BOLB   C1C43289  26.545  18.750  44.980
 1804BOLB   C2C43290  26.360  19.000  44.690
 1804BOLB   C3C43291  26.330  19.150  44.250
 1804BOLB   C4C43292  26.160  19.080  43.830
 1804BOLB   C1D43293  26.875  18.240  45.230
 1804BOLB   C2D43294  26.685  17.830  45.090
 1804BOLB   C3D43295  26.280  17.500  44.990
 1804BOLB   C4D43296  26.190  17.190  45.280
 1805BOLB   NC143297  16.330  19.630  17.810
 1805BOLB   PO143298  16.700  19.430  17.850
 1805BOLB   GL143299  16.850  19.440  18.210
 1805BOLB   GL243300  17.030  19.670  18.140
 1805BOLB   C1A43301  16.850  19.340  18.730
 1805BOLB   C2A43302  16.610  19.360  19.110
 1805BOLB   C3A43303  16.710  19.510  19.480
 1805BOLB   C4A43304  16.910  19.850  19.670
 1805BOLB   C1B43305  16.930  19.790  18.560
 1805BOLB   C2B43306  16.720  20.110  18.700
 1805BOLB   C3B43307  16.700  20.330  19.110
 1805BOLB   C4B43308  16.380  20.530  19.360
 1805BOLB   NC243309  15.820  20.820  18.180
 1805BOLB   PO243310  15.790  21.020  18.580
 1805BOLB   GL343311  16.050  21.240  18.820
 1805BOLB   GL443312  15.810  21.520  19.010
 1805BOLB   C1C43313  16.380  21.190  19.170
 1805BOLB   C2C43314  16.670  21.010  19.400
 1805BOLB   C3C43315  16.820  20.740  19.520
 1805BOLB   C4C43316  17.040  20.280  19.570
 1805BOLB   C1D43317  15.970  21.430  19.360
 1805BOLB   C2D43318  15.940  21.360  19.810
 1805BOLB   C3D43319  15.870  21.190  20.260
 1805BOLB   C4D43320  16.060  21.050  20.650
 1806BOLB   NC143321  24.060  14.620  43.150
 1806BOLB   PO143322  23.910  14.200  43.060
 1806BOLB   GL143323  23.960  13.930  43.440
 1806BOLB   GL243324  24.320  13.790  43.410
 1806BOLB   C1A43325  23.960  13.670  43.840
 1806BOLB   C2A43326  23.830  13.480  44.180
 1806BOLB   C3A43327  23.770  13.580  44.630
 1806BOLB   C4A43328  23.650  13.560  45.050
 1806BOLB   C1B43329  24.670  13.710  43.770
 1806BOLB   C2B43330  25.000  13.480  43.890
 1806BOLB   C3B43331  25.220  13.220  43.910
 1806BOLB   C4B43332  25.510  12.860  43.930
 1806BOLB   NC243333  24.560  12.500  47.430
 1806BOLB   PO243334  24.450  12.440  47.020
 1806BOLB   GL343335  24.370  12.520  46.590
 1806BOLB   GL443336  24.570  12.720  46.520
 1806BOLB   C1C43337  24.060  12.660  46.210
 1806BOLB   C2C43338  23.850  12.790  45.980
 1806BOLB   C3C43339  23.750  13.300  45.800
 1806BOLB   C4C43340  23.690  13.460  45.540
 1806BOLB   C1D43341  24.680  12.840  46.020
 1806BOLB   C2D43342  24.450  12.750  45.670
 1806BOLB   C3D43343  24.410  12.740  45.180
 1806BOLB   C4D43344  24.440  13.030  44.890
 1807BOLB   NC143345  22.100  21.740  25.040
 1807BOLB   PO143346  21.880  21.460  24.690
 1807BOLB   GL143347  22.060  21.720  24.470
 1807BOLB   GL243348  22.300  21.900  24.610
 1807BOLB   C1A43349  22.020  21.830  24.000
 1807BOLB   C2A43350  22.230  21.910  23.660
 1807BOLB   C3A43351  22.770  21.980  23.500
 1807BOLB   C4A43352  23.030  22.330  23.520
 1807BOLB   C1B43353  22.360  22.210  24.360
 1807BOLB   C2B43354  22.680  22.560  24.350
 1807BOLB   C3B43355  22.870  22.910  24.420
 1807BOLB   C4B43356  23.040  23.290  24.290
 1807BOLB   NC243357  24.460  24.060  23.360
 1807BOLB   PO243358  24.240  24.500  23.470
 1807BOLB   GL343359  23.980  24.050  23.490
 1807BOLB   GL443360  24.050  23.830  23.400
 1807BOLB   C1C43361  23.570  23.970  23.200
 1807BOLB   C2C43362  23.240  23.560  23.220
 1807BOLB   C3C43363  23.320  23.130  23.360
 1807BOLB   C4C43364  23.270  22.720  23.560
 1807BOLB   C1D43365  23.820  23.470  23.310
 1807BOLB   C2D43366  23.680  23.070  23.020
 1807BOLB   C3D43367  23.380  23.120  22.790
 1807BOLB   C4D43368  23.210  23.500  22.460
 1808BOLB   NC143369  24.050  20.770  46.860
 1808BOLB   PO143370  24.270  20.290  46.750
 1808BOLB   GL143371  24.210  20.440  46.330
 1808BOLB   GL243372  24.470  20.650  46.290
 1808BOLB   C1A43373  24.000  20.280  46.010
 1808BOLB   C2A43374  24.110  20.240  45.570
 1808BOLB   C3A43375  24.130  20.360  45.230
 1808BOLB   C4A43376  24.480  20.570  44.970
 1808BOLB   C1B43377  24.470  20.350  45.920
 1808BOLB   C2B43378  24.880  20.130  45.860
 1808BOLB   C3B43379  24.910  19.700  46.010
 1808BOLB   C4B43380  24.580  19.370  46.090
 1808BOLB   NC243381  25.660  22.160  45.130
 1808BOLB   PO243382  25.780  22.520  44.850
 1808BOLB   GL343383  25.690  22.300  44.600
 1808BOLB   GL443384  25.580  22.400  44.280
 1808BOLB   C1C43385  25.470  21.850  44.540
 1808BOLB   C2C43386  25.260  21.500  44.610
 1808BOLB   C3C43387  24.990  21.180  44.780
 1808BOLB   C4C43388  24.790  20.850  44.870
 1808BOLB   C1D43389  25.620  22.100  44.020
 1808BOLB   C2D43390  25.410  21.780  43.730
 1808BOLB   C3D43391  25.180  21.690  43.450
 1808BOLB   C4D43392  25.210  21.330  43.120
 1809DPPC   NC343393  16.720  14.890  18.770
 1809DPPC   PO443394  16.870  15.290  18.750
 1809DPPC   GL143395  17.090  15.210  19.090
 1809DPPC   GL243396  17.340  15.290  18.990
 1809DPPC   C1A43397  17.160  15.260  19.570
 1809DPPC   C2A43398  17.390  15.610  19.760
 1809DPPC   C3A43399  17.640  15.400  20.210
 1809DPPC   C4A43400  17.710  15.580  20.670
 1809DPPC   C1B43401  17.340  15.660  19.250
 1809DPPC   C2B43402  17.200  16.000  19.500
 1809DPPC   C3B43403  17.370  16.290  19.810
 1809DPPC   C4B43404  17.460  16.740  19.910
 1810DPPC   NC343405  17.990   7.750  22.980
 1810DPPC   PO443406  18.040   8.030  22.560
 1810DPPC   GL143407  18.330   8.130  22.870
 1810DPPC   GL243408  18.460   8.360  22.710
 1810DPPC   C1A43409  18.430   8.330  23.230
 1810DPPC   C2A43410  18.230   8.470  23.580
 1810DPPC   C3A43411  18.060   8.620  24.010
 1810DPPC   C4A43412  17.870   8.950  24.290
 1810DPPC   C1B43413  18.410   8.790  22.820
 1810DPPC   C2B43414  18.370   9.270  22.670
 1810DPPC   C3B43415  18.420   9.500  22.330
 1810DPPC   C4B43416  18.750   9.440  22.080
 1811DPPC   NC343417  12.960  10.340  31.180
 1811DPPC   PO443418  13.060  10.360  30.640
 1811DPPC   GL143419  13.200  10.840  30.690
 1811DPPC   GL243420  13.270  10.700  30.990
 1811DPPC   C1A43421  13.440  11.230  30.500
 1811DPPC   C2A43422  13.750  11.330  30.170
 1811DPPC   C3A43423  13.900  11.720  30.140
 1811DPPC   C4A43424  14.260  11.930  30.390
 1811DPPC   C1B43425  13.660  11.090  31.000
 1811DPPC   C2B43426  13.810  11.490  30.860
 1811DPPC   C3B43427  13.850  11.800  30.650
 1811DPPC   C4B43428  13.970  12.140  30.830
 1812DPPC   NC343429  19.420  17.430  17.610
 1812DPPC   PO443430  19.470  17.120  17.360
 1812DPPC   GL143431  19.810  16.930  17.630
 1812DPPC   GL243432  19.660  16.630  17.640
 1812DPPC   C1A43433  20.110  16.880  17.930
 1812DPPC   C2A43434  19.990  16.630  18.250
 1812DPPC   C3A43435  19.840  16.730  18.610
 1812DPPC   C4A43436  19.570  17.050  18.790
 1812DPPC   C1B43437  19.410  16.560  18.020
 1812DPPC   C2B43438  19.600  16.330  18.330
 1812DPPC   C3B43439  19.510  16.420  18.810
 1812DPPC   C4B43440  19.440  16.680  19.180
 1813DPPC   NC343441  14.790   8.270  28.650
 1813DPPC   PO443442  15.130   8.080  28.440
 1813DPPC   GL143443  15.320   8.420  28.660
 1813DPPC   GL243444  15.570   8.330  28.800
 1813DPPC   C1A43445  15.400   8.760  28.870
 1813DPPC   C2A43446  15.740   8.880  29.090
 1813DPPC   C3A43447  16.090   9.190  29.220
 1813DPPC   C4A43448  16.540   9.270  29.300
 1813DPPC   C1B43449  15.870   8.700  28.640
 1813DPPC   C2B43450  16.020   9.110  28.690
 1813DPPC   C3B43451  16.320   9.480  28.880
 1813DPPC   C4B43452  16.500   9.810  29.060
 1814DPPC   NC343453  15.890  14.540  28.770
 1814DPPC   PO443454  15.670  14.400  28.500
 1814DPPC   GL143455  15.390  14.240  28.320
 1814DPPC   GL243456  15.370  14.150  27.870
 1814DPPC   C1A43457  15.090  14.040  28.550
 1814DPPC   C2A43458  14.790  13.750  28.670
 1814DPPC   C3A43459  14.340  13.450  28.620
 1814DPPC   C4A43460  14.030  13.090  28.640
 1814DPPC   C1B43461  15.110  13.850  27.940
 1814DPPC   C2B43462  14.770  13.690  28.150
 1814DPPC   C3B43463  14.340  13.770  28.230
 1814DPPC   C4B43464  14.040  13.730  28.040
 1815DPPC   NC343465  33.515  11.700  36.980
 1815DPPC   PO443466  33.575  11.550  37.370
 1815DPPC   GL143467  33.325  11.340  37.300
 1815DPPC   GL243468  33.105  11.410  37.100
 1815DPPC   C1A43469  32.965  11.040  37.350
 1815DPPC   C2A43470  32.545  10.900  37.360
 1815DPPC   C3A43471  32.245  10.760  37.050
 1815DPPC   C4A43472  31.885  10.680  36.980
 1815DPPC   C1B43473  32.705  11.310  36.880
 1815DPPC   C2B43474  32.335  11.280  37.060
 1815DPPC   C3B43475  31.935  11.200  37.260
 1815DPPC   C4B43476  31.525  11.170  37.240
 1816DPPC   NC343477  15.330  23.700  34.030
 1816DPPC   PO443478  15.470  24.020  33.910
 1816DPPC   GL143479  15.330  24.400  33.980
 1816DPPC   GL243480  14.990  24.510  33.820
 1816DPPC   C1A43481  15.350  24.850  34.120
 1816DPPC   C2A43482  15.120  25.270  34.070
 1816DPPC   C3A43483  14.840  25.270  34.370
 1816DPPC   C4A43484  14.750  25.390  34.840
 1816DPPC   C1B43485  14.850  24.640  34.210
 1816DPPC   C2B43486  14.450  24.890  34.180
 1816DPPC   C3B43487  14.590  25.280  33.960
 1816DPPC   C4B43488  14.810  25.650  34.020
 1817DPPC   NC343489  28.985  11.640  28.000
 1817DPPC   PO443490  29.035  12.050  27.800
 1817DPPC   GL143491  29.395  11.840  27.790
 1817DPPC   GL243492  29.555  11.850  28.070
 1817DPPC   C1A43493  29.705  11.650  27.520
 1817DPPC   C2A43494  30.075  11.470  27.500
 1817DPPC   C3A43495  30.485  11.460  27.590
 1817DPPC   C4A43496  30.905  11.570  27.390
 1817DPPC   C1B43497  30.045  11.880  28.060
 1817DPPC   C2B43498  30.255  11.470  28.280
 1817DPPC   C3B43499  30.335  10.980  28.450
 1817DPPC   C4B43500  30.335  10.660  28.770
 1818DPPC   NC343501  33.335  17.900  36.770
 1818DPPC   PO443502  32.995  17.730  36.760
 1818DPPC   GL143503  32.665  17.360  36.610
 1818DPPC   GL243504  32.795  17.060  36.530
 1818DPPC   C1A43505  32.335  17.080  36.670
 1818DPPC   C2A43506  32.125  16.710  36.580
 1818DPPC   C3A43507  31.935  16.350  36.670
 1818DPPC   C4A43508  31.465  16.190  36.570
 1818DPPC   C1B43509  32.465  16.860  36.130
 1818DPPC   C2B43510  32.355  16.520  35.890
 1818DPPC   C3B43511  32.475  16.080  35.690
 1818DPPC   C4B43512  32.425  15.630  35.690
 1819DPPC   NC343513  26.180  15.390  17.990
 1819DPPC   PO443514  25.840  15.430  18.330
 1819DPPC   GL143515  25.510  15.040  18.510
 1819DPPC   GL243516  25.760  14.750  18.400
 1819DPPC   C1A43517  25.370  15.060  18.890
 1819DPPC   C2A43518  25.130  15.360  19.100
 1819DPPC   C3A43519  25.390  15.660  19.280
 1819DPPC   C4A43520  25.450  15.880  19.630
 1819DPPC   C1B43521  25.990  14.850  18.740
 1819DPPC   C2B43522  26.160  14.700  19.100
 1819DPPC   C3B43523  26.160  14.780  19.460
 1819DPPC   C4B43524  26.140  15.170  19.660
 1820DPPC   NC343525  31.985  18.390  33.300
 1820DPPC   PO443526  31.775  18.700  33.650
 1820DPPC   GL143527  31.465  18.460  33.740
 1820DPPC   GL243528  31.255  18.720  33.920
 1820DPPC   C1A43529  31.315  18.190  33.780
 1820DPPC   C2A43530  30.835  17.990  33.830
 1820DPPC   C3A43531  30.615  17.680  34.090
 1820DPPC   C4A43532  30.375  17.290  34.080
 1820DPPC   C1B43533  31.015  18.530  34.040
 1820DPPC   C2B43534  30.595  18.330  34.150
 1820DPPC   C3B43535  30.255  18.060  34.170
 1820DPPC   C4B43536  30.085  17.670  34.250
 1821DPPC   NC343537  20.160   1.640  29.850
 1821DPPC   PO443538  20.080   1.730  29.440
 1821DPPC   GL143539  19.990   1.320  29.530
 1821DPPC   GL243540  19.790   1.170  29.290
 1821DPPC   C1A43541  20.100   1.000  29.840
 1821DPPC   C2A43542  20.130   0.910  30.200
 1821DPPC   C3A43543  19.800   0.950  30.530
 1821DPPC   C4A43544  19.350   1.040  30.710
 1821DPPC   C1B43545  19.740   0.700  29.520
 1821DPPC   C2B43546  19.690   0.400  29.800
 1821DPPC   C3B43547  19.960  26.430  29.790
 1821DPPC   C4B43548  20.270  26.290  29.900
 1822DPPC   NC343549  12.770  20.150  20.850
 1822DPPC   PO443550  12.740  19.710  20.950
 1822DPPC   GL143551  12.960  19.510  21.310
 1822DPPC   GL243552  13.280  19.730  21.300
 1822DPPC   C1A43553  12.920  19.370  21.730
 1822DPPC   C2A43554  12.870  19.380  22.150
 1822DPPC   C3A43555  13.060  19.400  22.560
 1822DPPC   C4A43556  13.150  19.600  22.950
 1822DPPC   C1B43557  13.630  19.670  21.100
 1822DPPC   C2B43558  14.000  19.670  20.950
 1822DPPC   C3B43559  14.300  19.910  21.000
 1822DPPC   C4B43560  14.530  20.170  21.140
 1823DPPC   NC343561  33.885  12.920  32.430
 1823DPPC   PO443562  33.575  12.880  32.010
 1823DPPC   GL143563  33.425  12.610  32.190
 1823DPPC   GL243564  33.455  12.290  32.150
 1823DPPC   C1A43565  33.005  12.780  32.300
 1823DPPC   C2A43566  32.525  12.860  32.320
 1823DPPC   C3A43567  32.325  13.250  32.300
 1823DPPC   C4A43568  31.935  13.400  32.360
 1823DPPC   C1B43569  33.015  12.310  32.300
 1823DPPC   C2B43570  32.755  11.900  32.330
 1823DPPC   C3B43571  32.625  11.470  32.330
 1823DPPC   C4B43572  32.665  11.130  32.060
 1824DPPC   NC343573  14.500  21.100  26.020
 1824DPPC   PO443574  14.150  20.660  25.980
 1824DPPC   GL143575  13.780  20.740  25.950
 1824DPPC   GL243576  13.430  20.750  26.200
 1824DPPC   C1A43577  13.480  20.780  25.720
 1824DPPC   C2A43578  13.130  21.100  25.660
 1824DPPC   C3A43579  12.750  21.290  25.600
 1824DPPC   C4A43580  12.330  21.230  25.660
 1824DPPC   C1B43581  13.080  20.850  26.110
 1824DPPC   C2B43582  12.660  20.850  25.840
 1824DPPC   C3B43583  12.390  20.730  25.440
 1824DPPC   C4B43584  12.060  20.770  25.110
 1825DPPC   NC343585  22.370   1.880  29.470
 1825DPPC   PO443586  22.480   1.470  29.470
 1825DPPC   GL143587  22.450   0.980  29.350
 1825DPPC   GL243588  22.010   0.940  29.350
 1825DPPC   C1A43589  22.630   0.580  29.300
 1825DPPC   C2A43590  22.760   0.160  29.110
 1825DPPC   C3A43591  22.610  26.310  28.910
 1825DPPC   C4A43592  22.260  26.220  28.810
 1825DPPC   C1B43593  21.770   0.550  29.340
 1825DPPC   C2B43594  21.510   0.190  29.380
 1825DPPC   C3B43595  21.350  26.190  29.200
 1825DPPC   C4B43596  21.300  25.780  29.130
 1826DPPC   NC343597  17.760  14.120  23.850
 1826DPPC   PO443598  18.140  13.900  23.820
 1826DPPC   GL143599  17.970  13.590  23.900
 1826DPPC   GL243600  18.110  13.230  23.960
 1826DPPC   C1A43601  17.470  13.510  23.920
 1826DPPC   C2A43602  17.120  13.370  23.920
 1826DPPC   C3A43603  17.030  12.930  23.890
 1826DPPC   C4A43604  17.010  12.660  23.600
 1826DPPC   C1B43605  17.740  13.160  23.710
 1826DPPC   C2B43606  17.410  13.070  23.440
 1826DPPC   C3B43607  17.080  12.960  23.120
 1826DPPC   C4B43608  16.700  12.820  22.880
 1827DPPC   NC343609  15.430  22.630  27.170
 1827DPPC   PO443610  15.110  22.780  27.250
 1827DPPC   GL143611  14.850  23.080  27.080
 1827DPPC   GL243612  14.840  23.390  27.190
 1827DPPC   C1A43613  14.390  23.250  27.040
 1827DPPC   C2A43614  13.950  23.290  27.110
 1827DPPC   C3A43615  13.580  23.420  27.140
 1827DPPC   C4A43616  13.310  23.730  27.240
 1827DPPC   C1B43617  14.730  23.780  27.040
 1827DPPC   C2B43618  14.540  24.180  26.930
 1827DPPC   C3B43619  14.360  24.480  26.670
 1827DPPC   C4B43620  14.600  24.870  26.430
 1828DPPC   NC343621  33.125   9.400  36.560
 1828DPPC   PO443622  33.315   9.780  36.390
 1828DPPC   GL143623  32.975   9.760  36.160
 1828DPPC   GL243624  32.825   9.470  35.940
 1828DPPC   C1A43625  32.505   9.880  36.130
 1828DPPC   C2A43626  32.175  10.080  36.170
 1828DPPC   C3A43627  31.785  10.190  36.280
 1828DPPC   C4A43628  31.395  10.260  36.050
 1828DPPC   C1B43629  32.615   9.720  35.710
 1828DPPC   C2B43630  32.235   9.840  35.660
 1828DPPC   C3B43631  31.735   9.990  35.750
 1828DPPC   C4B43632  31.395   9.800  35.570
 1829DPPC   NC343633  23.970  19.880  28.200
 1829DPPC   PO443634  23.770  20.170  28.390
 1829DPPC   GL143635  24.160  20.420  28.620
 1829DPPC   GL243636  24.110  20.380  28.990
 1829DPPC   C1A43637  24.580  20.690  28.700
 1829DPPC   C2A43638  24.780  21.010  29.020
 1829DPPC   C3A43639  25.160  21.210  29.130
 1829DPPC   C4A43640  25.430  21.190  29.570
 1829DPPC   C1B43641  24.530  20.560  29.150
 1829DPPC   C2B43642  24.870  20.480  29.380
 1829DPPC   C3B43643  25.140  20.460  29.740
 1829DPPC   C4B43644  25.220  20.370  30.180
 1830DPPC   NC343645   9.480  17.230  30.750
 1830DPPC   PO443646   9.310  17.750  30.830
 1830DPPC   GL143647   9.580  18.140  30.580
 1830DPPC   GL243648   9.560  18.210  30.910
 1830DPPC   C1A43649   9.890  18.340  30.480
 1830DPPC   C2A43650  10.190  18.570  30.590
 1830DPPC   C3A43651  10.580  18.630  30.590
 1830DPPC   C4A43652  10.900  18.800  30.510
 1830DPPC   C1B43653   9.950  18.130  30.960
 1830DPPC   C2B43654  10.350  17.900  31.100
 1830DPPC   C3B43655  10.770  17.740  31.110
 1830DPPC   C4B43656  11.170  17.750  31.450
 1831DPPC   NC343657  19.100  23.760  37.170
 1831DPPC   PO443658  18.880  23.960  36.870
 1831DPPC   GL143659  19.000  24.360  37.060
 1831DPPC   GL243660  19.260  24.530  37.050
 1831DPPC   C1A43661  18.860  24.910  37.120
 1831DPPC   C2A43662  18.760  25.260  37.250
 1831DPPC   C3A43663  18.570  25.590  37.190
 1831DPPC   C4A43664  18.360  25.820  36.900
 1831DPPC   C1B43665  19.380  24.880  37.240
 1831DPPC   C2B43666  19.340  25.240  37.440
 1831DPPC   C3B43667  19.100  25.680  37.550
 1831DPPC   C4B43668  18.740  25.870  37.600
 1832DPPC   NC343669  25.420  17.260  47.670
 1832DPPC   PO443670  25.230  17.180  47.250
 1832DPPC   GL143671  25.100  17.180  46.850
 1832DPPC   GL243672  24.770  17.130  46.840
 1832DPPC   C1A43673  25.010  17.170  46.420
 1832DPPC   C2A43674  25.170  17.240  45.990
 1832DPPC   C3A43675  25.260  17.230  45.510
 1832DPPC   C4A43676  25.350  17.550  45.130
 1832DPPC   C1B43677  24.510  17.090  46.480
 1832DPPC   C2B43678  24.660  17.010  46.080
 1832DPPC   C3B43679  24.760  17.050  45.620
 1832DPPC   C4B43680  24.710  16.880  45.250
 1833DPPC   NC343681  24.220   7.500  29.430
 1833DPPC   PO443682  23.920   7.530  29.090
 1833DPPC   GL143683  23.640   7.290  28.860
 1833DPPC   GL243684  23.460   7.320  28.550
 1833DPPC   C1A43685  23.620   6.840  28.680
 1833DPPC   C2A43686  23.790   6.460  28.520
 1833DPPC   C3A43687  24.020   6.220  28.200
 1833DPPC   C4A43688  23.940   6.110  27.810
 1833DPPC   C1B43689  23.540   7.080  28.170
 1833DPPC   C2B43690  23.790   6.820  28.190
 1833DPPC   C3B43691  24.120   6.600  27.930
 1833DPPC   C4B43692  24.460   6.210  27.930
 1834DPPC   NC343693  16.540  23.440  27.090
 1834DPPC   PO443694  16.160  23.600  27.290
 1834DPPC   GL143695  15.950  24.030  27.170
 1834DPPC   GL243696  15.630  24.170  27.210
 1834DPPC   C1A43697  15.930  24.570  27.070
 1834DPPC   C2A43698  15.650  25.000  27.050
 1834DPPC   C3A43699  15.490  25.480  27.050
 1834DPPC   C4A43700  15.420  25.960  26.890
 1834DPPC   C1B43701  15.450  24.580  27.190
 1834DPPC   C2B43702  15.170  24.930  27.070
 1834DPPC   C3B43703  14.990  25.260  27.120
 1834DPPC   C4B43704  15.040  25.620  27.010
 1835DPPC   NC343705  18.410  14.320  23.920
 1835DPPC   PO443706  18.070  14.440  23.690
 1835DPPC   GL143707  17.930  14.090  23.370
 1835DPPC   GL243708  17.970  13.770  23.350
 1835DPPC   C1A43709  17.670  13.940  22.990
 1835DPPC   C2A43710  17.470  13.780  22.700
 1835DPPC   C3A43711  17.390  13.760  22.380
 1835DPPC   C4A43712  17.320  13.470  22.110
 1835DPPC   C1B43713  17.640  13.450  23.170
 1835DPPC   C2B43714  17.290  13.370  22.890
 1835DPPC   C3B43715  17.160  13.210  22.510
 1835DPPC   C4B43716  17.110  12.900  22.220
 1836DPPC   NC343717  27.785  19.280  21.270
 1836DPPC   PO443718  28.025  18.960  21.100
 1836DPPC   GL143719  27.915  18.860  21.580
 1836DPPC   GL243720  27.655  19.070  21.750
 1836DPPC   C1A43721  27.805  18.610  22.020
 1836DPPC   C2A43722  27.465  18.380  22.060
 1836DPPC   C3A43723  27.115  18.440  22.370
 1836DPPC   C4A43724  26.715  18.380  22.600
 1836DPPC   C1B43725  27.415  18.930  22.070
 1836DPPC   C2B43726  27.145  18.930  22.490
 1836DPPC   C3B43727  26.775  18.870  22.790
 1836DPPC   C4B43728  26.400  18.620  22.860
 1837DPPC   NC343729  26.420  22.820  30.200
 1837DPPC   PO443730  26.130  23.070  30.360
 1837DPPC   GL143731  25.800  22.840  30.530
 1837DPPC   GL243732  25.810  22.890  30.900
 1837DPPC   C1A43733  25.320  22.790  30.310
 1837DPPC   C2A43734  24.940  22.650  30.130
 1837DPPC   C3A43735  24.520  22.590  30.160
 1837DPPC   C4A43736  24.080  22.440  30.230
 1837DPPC   C1B43737  25.480  22.550  30.790
 1837DPPC   C2B43738  25.210  22.550  30.750
 1837DPPC   C3B43739  24.880  22.420  30.760
 1837DPPC   C4B43740  24.480  22.490  30.860
 1838DPPC   NC343741  25.800  25.630  36.980
 1838DPPC   PO443742  25.880  25.930  37.330
 1838DPPC   GL143743  25.550  25.640  37.520
 1838DPPC   GL243744  25.310  25.570  37.170
 1838DPPC   C1A43745  25.510  25.150  37.410
 1838DPPC   C2A43746  25.360  24.940  37.090
 1838DPPC   C3A43747  25.130  24.500  37.140
 1838DPPC   C4A43748  24.670  24.340  37.200
 1838DPPC   C1B43749  24.980  25.230  37.130
 1838DPPC   C2B43750  24.660  25.250  36.990
 1838DPPC   C3B43751  24.320  25.300  37.060
 1838DPPC   C4B43752  24.000  25.080  36.820
 1839DPPC   NC343753  24.540  17.290  32.800
 1839DPPC   PO443754  24.440  17.590  33.160
 1839DPPC   GL143755  24.270  17.810  32.760
 1839DPPC   GL243756  23.970  17.780  32.590
 1839DPPC   C1A43757  24.520  18.040  32.380
 1839DPPC   C2A43758  24.860  18.210  32.120
 1839DPPC   C3A43759  24.930  18.260  31.760
 1839DPPC   C4A43760  24.730  18.380  31.390
 1839DPPC   C1B43761  24.250  17.550  32.210
 1839DPPC   C2B43762  24.120  17.190  31.930
 1839DPPC   C3B43763  24.030  16.740  31.740
 1839DPPC   C4B43764  23.740  16.480  31.460
 1840DPPC   NC343765  30.725   5.700  35.020
 1840DPPC   PO443766  30.745   6.140  35.290
 1840DPPC   GL143767  30.285   6.270  35.280
 1840DPPC   GL243768  29.995   6.010  35.170
 1840DPPC   C1A43769  30.125   6.530  35.000
 1840DPPC   C2A43770  29.865   6.840  34.770
 1840DPPC   C3A43771  29.875   7.250  34.810
 1840DPPC   C4A43772  30.035   7.600  34.880
 1840DPPC   C1B43773  29.905   5.850  34.800
 1840DPPC   C2B43774  29.565   5.780  34.700
 1840DPPC   C3B43775  29.365   5.570  34.340
 1840DPPC   C4B43776  28.975   5.250  34.210
 1841DPPC   NC343777  10.330  17.240  25.720
 1841DPPC   PO443778  10.370  17.050  26.170
 1841DPPC   GL143779  10.530  17.410  26.330
 1841DPPC   GL243780  10.590  17.430  26.740
 1841DPPC   C1A43781  10.990  17.410  26.320
 1841DPPC   C2A43782  11.420  17.530  26.440
 1841DPPC   C3A43783  11.500  17.890  26.570
 1841DPPC   C4A43784  11.720  18.120  26.720
 1841DPPC   C1B43785  11.020  17.660  26.930
 1841DPPC   C2B43786  11.280  17.870  27.230
 1841DPPC   C3B43787  11.690  18.050  27.290
 1841DPPC   C4B43788  11.960  18.340  27.440
 1842DPPC   NC343789  22.870  26.250  24.870
 1842DPPC   PO443790  23.100  25.990  25.240
 1842DPPC   GL143791  22.720  25.770  25.250
 1842DPPC   GL243792  22.480  25.590  24.980
 1842DPPC   C1A43793  22.480  25.490  25.490
 1842DPPC   C2A43794  22.370  25.140  25.780
 1842DPPC   C3A43795  22.010  24.930  26.040
 1842DPPC   C4A43796  21.810  24.520  26.180
 1842DPPC   C1B43797  22.450  25.490  24.620
 1842DPPC   C2B43798  22.200  25.180  24.450
 1842DPPC   C3B43799  21.930  25.190  24.210
 1842DPPC   C4B43800  21.570  25.150  23.950
 1843DPPC   NC343801   9.260  22.060  31.120
 1843DPPC   PO443802   9.450  22.500  31.090
 1843DPPC   GL143803   9.720  22.130  31.050
 1843DPPC   GL243804   9.770  21.910  30.820
 1843DPPC   C1A43805  10.210  22.010  31.120
 1843DPPC   C2A43806  10.600  22.020  31.300
 1843DPPC   C3A43807  10.860  22.340  31.630
 1843DPPC   C4A43808  10.980  22.670  31.450
 1843DPPC   C1B43809  10.160  21.810  30.560
 1843DPPC   C2B43810  10.560  21.770  30.420
 1843DPPC   C3B43811  11.020  21.700  30.620
 1843DPPC   C4B43812  11.470  21.810  30.480
 1844DPPC   NC343813  29.285  11.640  22.110
 1844DPPC   PO443814  29.195  11.600  21.660
 1844DPPC   GL143815  28.785  11.430  21.760
 1844DPPC   GL243816  28.555  11.530  21.500
 1844DPPC   C1A43817  28.655  11.420  22.110
 1844DPPC   C2A43818  28.715  11.430  22.530
 1844DPPC   C3A43819  28.785  11.590  23.020
 1844DPPC   C4A43820  28.945  11.430  23.370
 1844DPPC   C1B43821  28.235  11.720  21.890
 1844DPPC   C2B43822  28.155  11.800  22.270
 1844DPPC   C3B43823  28.265  12.240  22.460
 1844DPPC   C4B43824  28.265  12.730  22.380
 1845DPPC   NC343825  22.650  15.300  43.320
 1845DPPC   PO443826  22.930  15.010  43.190
 1845DPPC   GL143827  23.000  14.980  43.610
 1845DPPC   GL243828  23.290  14.940  43.750
 1845DPPC   C1A43829  22.750  15.010  44.020
 1845DPPC   C2A43830  22.560  14.740  44.400
 1845DPPC   C3A43831  22.570  14.510  44.790
 1845DPPC   C4A43832  22.690  14.500  45.200
 1845DPPC   C1B43833  23.510  14.540  43.990
 1845DPPC   C2B43834  23.460  14.360  44.400
 1845DPPC   C3B43835  23.730  14.120  44.670
 1845DPPC   C4B43836  23.840  14.010  45.020
 1846DPPC   NC343837  21.600   9.150  28.120
 1846DPPC   PO443838  21.280   9.170  28.400
 1846DPPC   GL143839  21.190   8.800  28.540
 1846DPPC   GL243840  21.440   8.670  28.240
 1846DPPC   C1A43841  21.010   8.470  28.580
 1846DPPC   C2A43842  21.030   8.020  28.530
 1846DPPC   C3A43843  20.750   7.820  28.270
 1846DPPC   C4A43844  20.600   7.710  27.920
 1846DPPC   C1B43845  21.320   8.230  28.170
 1846DPPC   C2B43846  21.120   7.800  27.930
 1846DPPC   C3B43847  20.980   7.440  27.770
 1846DPPC   C4B43848  20.830   7.270  27.390
 1847DPPC   NC343849  20.380  10.780  25.020
 1847DPPC   PO443850  20.390  10.740  25.420
 1847DPPC   GL143851  20.270  10.320  25.340
 1847DPPC   GL243852  20.000  10.490  25.080
 1847DPPC   C1A43853  20.120  10.040  25.010
 1847DPPC   C2A43854  19.840   9.740  25.040
 1847DPPC   C3A43855  19.680   9.380  25.070
 1847DPPC   C4A43856  19.640   8.990  24.990
 1847DPPC   C1B43857  19.600  10.150  24.940
 1847DPPC   C2B43858  19.370   9.710  24.750
 1847DPPC   C3B43859  19.280   9.740  24.350
 1847DPPC   C4B43860  18.870   9.890  24.090
 1848DPPC   NC343861  16.710  18.170  17.700
 1848DPPC   PO443862  16.850  18.490  17.860
 1848DPPC   GL143863  17.000  18.510  18.250
 1848DPPC   GL243864  17.340  18.370  18.190
 1848DPPC   C1A43865  17.160  18.760  18.630
 1848DPPC   C2A43866  17.190  18.970  18.880
 1848DPPC   C3A43867  17.120  19.330  19.140
 1848DPPC   C4A43868  17.330  19.630  19.370
 1848DPPC   C1B43869  17.290  18.290  18.640
 1848DPPC   C2B43870  17.490  18.450  18.920
 1848DPPC   C3B43871  17.760  18.520  19.240
 1848DPPC   C4B43872  17.820  18.830  19.490
 1849DPPC   NC343873  18.160   5.860  34.260
 1849DPPC   PO443874  18.270   5.680  34.670
 1849DPPC   GL143875  18.290   6.120  34.740
 1849DPPC   GL243876  18.190   6.310  34.450
 1849DPPC   C1A43877  18.340   6.530  34.890
 1849DPPC   C2A43878  18.310   6.940  35.110
 1849DPPC   C3A43879  18.420   7.280  35.410
 1849DPPC   C4A43880  18.730   7.630  35.450
 1849DPPC   C1B43881  18.430   6.600  34.380
 1849DPPC   C2B43882  18.570   6.940  34.550
 1849DPPC   C3B43883  18.730   7.240  34.850
 1849DPPC   C4B43884  18.590   7.640  34.930
 1850DPPC   NC343885  21.890  23.050  32.470
 1850DPPC   PO443886  21.810  23.450  32.590
 1850DPPC   GL143887  22.140  23.700  32.500
 1850DPPC   GL243888  22.120  24.010  32.560
 1850DPPC   C1A43889  22.530  23.790  32.670
 1850DPPC   C2A43890  22.890  24.130  32.630
 1850DPPC   C3A43891  23.190  24.250  32.540
 1850DPPC   C4A43892  23.540  24.220  32.150
 1850DPPC   C1B43893  22.470  24.280  32.410
 1850DPPC   C2B43894  22.880  24.500  32.250
 1850DPPC   C3B43895  23.010  24.760  31.910
 1850DPPC   C4B43896  23.420  24.870  31.690
 1851DPPC   NC343897  20.000  16.510  43.000
 1851DPPC   PO443898  20.030  16.770  43.070
 1851DPPC   GL143899  19.670  16.660  43.350
 1851DPPC   GL243900  19.550  16.960  43.260
 1851DPPC   C1A43901  19.320  16.330  43.570
 1851DPPC   C2A43902  18.980  16.440  43.870
 1851DPPC   C3A43903  18.800  16.650  44.190
 1851DPPC   C4A43904  18.580  16.860  44.500
 1851DPPC   C1B43905  19.450  17.160  43.750
 1851DPPC   C2B43906  19.450  16.920  44.190
 1851DPPC   C3B43907  19.100  16.880  44.500
 1851DPPC   C4B43908  18.920  16.610  44.790
 1852DPPC   NC343909  13.360   9.310  33.160
 1852DPPC   PO443910  13.120   9.790  33.250
 1852DPPC   GL143911  13.670   9.990  33.310
 1852DPPC   GL243912  13.570  10.210  33.100
 1852DPPC   C1A43913  13.810  10.270  33.660
 1852DPPC   C2A43914  13.940  10.690  33.440
 1852DPPC   C3A43915  14.280  10.840  33.410
 1852DPPC   C4A43916  14.610  11.010  33.250
 1852DPPC   C1B43917  13.410  10.460  33.500
 1852DPPC   C2B43918  13.600  10.800  33.720
 1852DPPC   C3B43919  13.530  11.180  33.650
 1852DPPC   C4B43920  13.760  11.520  33.580
 1853DPPC   NC343921  26.445  17.140  41.060
 1853DPPC   PO443922  26.675  16.690  40.860
 1853DPPC   GL143923  26.955  17.000  41.100
 1853DPPC   GL243924  26.845  17.230  41.410
 1853DPPC   C1A43925  27.285  17.200  41.240
 1853DPPC   C2A43926  27.785  17.100  41.500
 1853DPPC   C3A43927  27.975  17.090  41.850
 1853DPPC   C4A43928  28.435  17.120  42.050
 1853DPPC   C1B43929  27.045  17.350  41.690
 1853DPPC   C2B43930  27.375  17.240  41.910
 1853DPPC   C3B43931  27.705  17.180  42.270
 1853DPPC   C4B43932  28.095  16.910  42.330
 1854DPPC   NC343933  27.325  16.020  40.360
 1854DPPC   PO443934  27.475  16.360  40.670
 1854DPPC   GL143935  27.705  16.490  40.410
 1854DPPC   GL243936  27.695  16.870  40.320
 1854DPPC   C1A43937  28.095  16.640  40.480
 1854DPPC   C2A43938  28.565  16.570  40.390
 1854DPPC   C3A43939  28.835  16.860  40.480
 1854DPPC   C4A43940  29.125  17.050  40.670
 1854DPPC   C1B43941  27.915  17.290  40.480
 1854DPPC   C2B43942  28.275  17.510  40.730
 1854DPPC   C3B43943  28.415  17.390  41.070
 1854DPPC   C4B43944  28.735  17.100  41.210
 1855DPPC   NC343945  10.130  16.260  33.180
 1855DPPC   PO443946  10.090  15.900  32.920
 1855DPPC   GL143947  10.460  16.130  32.850
 1855DPPC   GL243948  10.530  16.470  32.860
 1855DPPC   C1A43949  10.880  16.050  32.950
 1855DPPC   C2A43950  11.300  16.060  33.090
 1855DPPC   C3A43951  11.770  16.030  33.130
 1855DPPC   C4A43952  12.040  16.230  33.260
 1855DPPC   C1B43953  11.010  16.520  33.020
 1855DPPC   C2B43954  11.370  16.510  33.290
 1855DPPC   C3B43955  11.790  16.690  33.430
 1855DPPC   C4B43956  12.200  16.760  33.430
 1856DPPC   NC343957  10.650  18.280  37.930
 1856DPPC   PO443958  10.320  18.060  37.610
 1856DPPC   GL143959  10.540  18.360  37.490
 1856DPPC   GL243960  10.730  18.080  37.260
 1856DPPC   C1A43961  10.730  18.790  37.350
 1856DPPC   C2A43962  11.060  18.820  37.080
 1856DPPC   C3A43963  11.200  18.760  36.760
 1856DPPC   C4A43964  10.970  18.640  36.440
 1856DPPC   C1B43965  11.210  18.310  37.360
 1856DPPC   C2B43966  11.450  18.430  36.950
 1856DPPC   C3B43967  11.680  18.710  36.660
 1856DPPC   C4B43968  11.470  18.880  36.330
 1857DPPC   NC343969  15.730  23.990  19.690
 1857DPPC   PO443970  15.950  23.540  19.470
 1857DPPC   GL143971  15.930  23.180  19.660
 1857DPPC   GL243972  16.090  23.310  19.970
 1857DPPC   C1A43973  15.970  22.740  19.910
 1857DPPC   C2A43974  15.900  22.530  20.320
 1857DPPC   C3A43975  15.870  22.160  20.530
 1857DPPC   C4A43976  15.930  21.740  20.690
 1857DPPC   C1B43977  15.850  23.130  20.290
 1857DPPC   C2B43978  15.660  22.870  20.630
 1857DPPC   C3B43979  15.830  22.800  20.990
 1857DPPC   C4B43980  15.770  22.780  21.350
 1858DPPC   NC343981  27.525  14.950  19.040
 1858DPPC   PO443982  27.275  14.680  18.750
 1858DPPC   GL143983  27.045  15.020  18.950
 1858DPPC   GL243984  26.775  15.330  18.940
 1858DPPC   C1A43985  26.615  14.950  19.200
 1858DPPC   C2A43986  26.595  14.910  19.630
 1858DPPC   C3A43987  26.845  14.850  20.000
 1858DPPC   C4A43988  26.945  14.720  20.340
 1858DPPC   C1B43989  26.615  15.420  19.310
 1858DPPC   C2B43990  26.430  15.600  19.710
 1858DPPC   C3B43991  26.290  15.520  20.130
 1858DPPC   C4B43992  26.090  15.090  20.180
 1859DPPC   NC343993  17.410  21.340  45.740
 1859DPPC   PO443994  17.570  21.130  46.100
 1859DPPC   GL143995  17.610  20.910  45.660
 1859DPPC   GL243996  17.770  20.510  45.660
 1859DPPC   C1A43997  17.630  20.740  45.190
 1859DPPC   C2A43998  17.880  20.470  44.920
 1859DPPC   C3A43999  18.160  20.130  44.700
 1859DPPC   C4A44000  18.090  19.760  44.440
 1859DPPC   C1B44001  17.380  20.370  45.360
 1859DPPC   C2B44002  17.100  20.240  45.030
 1859DPPC   C3B44003  16.750  19.860  44.910
 1859DPPC   C4B44004  16.730  19.500  44.710
 1860DPPC   NC344005  31.225  12.040  22.780
 1860DPPC   PO444006  31.025  12.240  22.440
 1860DPPC   GL144007  30.585  12.390  22.420
 1860DPPC   GL244008  30.235  12.230  22.490
 1860DPPC   C1A44009  30.225  12.730  22.650
 1860DPPC   C2A44010  29.845  12.690  22.990
 1860DPPC   C3A44011  29.355  12.610  23.100
 1860DPPC   C4A44012  29.075  12.900  23.390
 1860DPPC   C1B44013  29.855  12.270  22.740
 1860DPPC   C2B44014  29.375  12.200  22.840
 1860DPPC   C3B44015  29.115  11.910  22.650
 1860DPPC   C4B44016  28.675  11.910  22.430
 1861DPPC   NC344017  28.665  12.040  38.570
 1861DPPC   PO444018  28.775  12.010  38.190
 1861DPPC   GL144019  28.945  11.670  38.280
 1861DPPC   GL244020  28.935  11.380  38.170
 1861DPPC   C1A44021  29.325  11.740  38.500
 1861DPPC   C2A44022  29.705  11.780  38.440
 1861DPPC   C3A44023  30.125  11.850  38.540
 1861DPPC   C4A44024  30.475  11.660  38.390
 1861DPPC   C1B44025  29.175  11.120  38.360
 1861DPPC   C2B44026  29.535  11.290  38.680
 1861DPPC   C3B44027  29.905  11.420  38.840
 1861DPPC   C4B44028  30.325  11.420  38.920
 1862DPPC   NC344029   8.460  19.070  29.560
 1862DPPC   PO444030   8.770  19.120  29.860
 1862DPPC   GL144031   9.210  19.190  29.850
 1862DPPC   GL244032   9.340  19.350  29.600
 1862DPPC   C1A44033   9.580  19.090  30.100
 1862DPPC   C2A44034  10.040  19.190  30.000
 1862DPPC   C3A44035  10.400  19.070  29.850
 1862DPPC   C4A44036  10.660  19.030  29.480
 1862DPPC   C1B44037   9.740  19.460  29.690
 1862DPPC   C2B44038   9.990  19.740  29.870
 1862DPPC   C3B44039  10.350  20.080  29.790
 1862DPPC   C4B44040  10.790  20.010  29.670
 1863DPPC   NC344041  26.370   3.610  37.440
 1863DPPC   PO444042  26.050   3.700  37.680
 1863DPPC   GL144043  26.150   4.070  37.440
 1863DPPC   GL244044  25.910   4.290  37.320
 1863DPPC   C1A44045  26.410   4.400  37.470
 1863DPPC   C2A44046  26.755   4.670  37.340
 1863DPPC   C3A44047  26.775   5.000  37.130
 1863DPPC   C4A44048  26.835   5.340  36.860
 1863DPPC   C1B44049  25.930   4.750  37.470
 1863DPPC   C2B44050  25.960   5.100  37.340
 1863DPPC   C3B44051  25.860   5.460  37.090
 1863DPPC   C4B44052  25.800   5.740  36.730
 1864DPPC   NC344053  14.780   2.320  30.150
 1864DPPC   PO444054  15.010   1.920  30.300
 1864DPPC   GL144055  15.170   1.590  30.480
 1864DPPC   GL244056  15.390   1.510  30.250
 1864DPPC   C1A44057  15.310   1.320  30.850
 1864DPPC   C2A44058  15.730   1.140  30.890
 1864DPPC   C3A44059  15.840   0.670  30.960
 1864DPPC   C4A44060  16.020   0.200  31.070
 1864DPPC   C1B44061  15.390   1.250  29.850
 1864DPPC   C2B44062  15.780   1.200  29.530
 1864DPPC   C3B44063  15.940   0.710  29.590
 1864DPPC   C4B44064  16.100   0.280  29.570
 1865DPPC   NC344065  17.740   1.580  24.570
 1865DPPC   PO444066  17.620   1.320  25.070
 1865DPPC   GL144067  17.530   1.060  25.370
 1865DPPC   GL244068  17.440   0.720  25.150
 1865DPPC   C1A44069  17.690   0.680  25.560
 1865DPPC   C2A44070  17.710   0.340  25.970
 1865DPPC   C3A44071  17.790   0.030  26.090
 1865DPPC   C4A44072  17.860  26.350  26.530
 1865DPPC   C1B44073  17.390   0.330  25.410
 1865DPPC   C2B44074  16.950   0.180  25.350
 1865DPPC   C3B44075  16.480   0.210  25.290
 1865DPPC   C4B44076  15.960   0.410  25.290
 1866DPPC   NC344077  23.310   8.670  26.370
 1866DPPC   PO444078  23.000   8.880  26.650
 1866DPPC   GL144079  22.790   8.660  26.430
 1866DPPC   GL244080  22.830   8.620  26.130
 1866DPPC   C1A44081  22.870   8.190  26.520
 1866DPPC   C2A44082  23.050   7.710  26.580
 1866DPPC   C3A44083  23.170   7.350  26.360
 1866DPPC   C4A44084  23.270   7.100  26.090
 1866DPPC   C1B44085  22.590   8.170  26.070
 1866DPPC   C2B44086  22.340   7.760  25.940
 1866DPPC   C3B44087  22.260   7.400  25.830
 1866DPPC   C4B44088  22.300   6.970  25.590
 1867DPPC   NC344089  30.145   8.320  24.160
 1867DPPC   PO444090  30.045   8.700  23.920
 1867DPPC   GL144091  29.635   8.800  24.260
 1867DPPC   GL244092  29.715   8.540  24.450
 1867DPPC   C1A44093  29.265   8.870  24.360
 1867DPPC   C2A44094  28.975   9.040  24.710
 1867DPPC   C3A44095  28.575   9.060  24.940
 1867DPPC   C4A44096  28.175   8.790  25.120
 1867DPPC   C1B44097  29.575   8.680  24.790
 1867DPPC   C2B44098  29.305   8.990  25.100
 1867DPPC   C3B44099  29.375   9.250  25.430
 1867DPPC   C4B44100  29.245   9.580  25.730
 1868DPPC   NC344101  29.295  11.500  35.670
 1868DPPC   PO444102  29.655  11.520  35.750
 1868DPPC   GL144103  30.095  11.240  35.830
 1868DPPC   GL244104  29.905  11.380  36.140
 1868DPPC   C1A44105  30.475  11.150  35.760
 1868DPPC   C2A44106  30.935  11.130  35.700
 1868DPPC   C3A44107  31.435  10.910  35.650
 1868DPPC   C4A44108  31.635  10.500  35.680
 1868DPPC   C1B44109  30.345  11.520  36.220
 1868DPPC   C2B44110  30.715  11.230  36.240
 1868DPPC   C3B44111  31.095  10.920  36.180
 1868DPPC   C4B44112  31.555  10.990  36.150
 1869DPPC   NC344113  28.095  14.060  38.870
 1869DPPC   PO444114  28.495  13.750  38.790
 1869DPPC   GL144115  28.765  13.640  39.080
 1869DPPC   GL244116  28.995  13.830  39.140
 1869DPPC   C1A44117  28.945  13.390  39.600
 1869DPPC   C2A44118  28.895  13.310  40.020
 1869DPPC   C3A44119  28.835  13.170  40.330
 1869DPPC   C4A44120  28.975  12.750  40.440
 1869DPPC   C1B44121  29.365  13.720  39.430
 1869DPPC   C2B44122  29.715  13.780  39.720
 1869DPPC   C3B44123  29.805  13.950  40.170
 1869DPPC   C4B44124  29.645  14.360  40.390
 1870DPPC   NC344125  18.530   5.630  28.570
 1870DPPC   PO444126  18.670   5.620  28.200
 1870DPPC   GL144127  18.680   5.980  28.100
 1870DPPC   GL244128  18.930   6.120  28.310
 1870DPPC   C1A44129  18.800   6.370  27.910
 1870DPPC   C2A44130  19.010   6.460  27.590
 1870DPPC   C3A44131  19.250   6.780  27.610
 1870DPPC   C4A44132  19.410   7.170  27.800
 1870DPPC   C1B44133  18.870   6.600  28.360
 1870DPPC   C2B44134  19.100   6.950  28.690
 1870DPPC   C3B44135  19.070   7.490  28.750
 1870DPPC   C4B44136  19.010   7.790  29.030
 1871DPPC   NC344137  14.450   8.270  26.780
 1871DPPC   PO444138  14.620   8.670  26.750
 1871DPPC   GL144139  14.770   9.090  26.890
 1871DPPC   GL244140  14.850   9.140  26.560
 1871DPPC   C1A44141  14.850   9.380  27.220
 1871DPPC   C2A44142  14.730   9.750  27.490
 1871DPPC   C3A44143  14.530  10.110  27.670
 1871DPPC   C4A44144  14.450  10.500  27.930
 1871DPPC   C1B44145  15.100   9.470  26.410
 1871DPPC   C2B44146  15.520   9.630  26.160
 1871DPPC   C3B44147  15.680   9.980  25.990
 1871DPPC   C4B44148  15.910  10.210  25.740
 1872DPPC   NC344149  31.015   8.030  25.110
 1872DPPC   PO444150  31.115   8.500  24.950
 1872DPPC   GL144151  30.735   8.720  24.860
 1872DPPC   GL244152  30.585   8.320  25.070
 1872DPPC   C1A44153  30.355   8.880  25.130
 1872DPPC   C2A44154  30.125   8.920  25.480
 1872DPPC   C3A44155  29.895   9.190  25.780
 1872DPPC   C4A44156  29.725   9.630  25.920
 1872DPPC   C1B44157  30.455   8.420  25.490
 1872DPPC   C2B44158  30.445   8.530  26.040
 1872DPPC   C3B44159  30.345   8.210  26.390
 1872DPPC   C4B44160  30.265   7.880  26.780
 1873DPPC   NC344161  16.620  23.340  44.350
 1873DPPC   PO444162  16.370  23.010  44.280
 1873DPPC   GL144163  16.340  22.710  43.880
 1873DPPC   GL244164  16.280  22.880  43.560
 1873DPPC   C1A44165  16.510  22.280  43.800
 1873DPPC   C2A44166  16.630  21.940  43.620
 1873DPPC   C3A44167  16.600  21.520  43.560
 1873DPPC   C4A44168  16.530  21.140  43.580
 1873DPPC   C1B44169  16.380  22.620  43.300
 1873DPPC   C2B44170  16.620  22.360  43.280
 1873DPPC   C3B44171  16.950  22.200  43.010
 1873DPPC   C4B44172  17.300  22.010  42.930
 1874DPPC   NC344173   9.220  17.260  35.180
 1874DPPC   PO444174   9.600  17.060  35.070
 1874DPPC   GL144175  10.140  17.050  35.230
 1874DPPC   GL244176  10.240  16.750  35.330
 1874DPPC   C1A44177  10.540  17.040  34.990
 1874DPPC   C2A44178  10.960  17.040  34.730
 1874DPPC   C3A44179  11.140  17.180  34.490
 1874DPPC   C4A44180  11.540  17.130  34.140
 1874DPPC   C1B44181  10.540  16.920  35.510
 1874DPPC   C2B44182  10.950  17.050  35.370
 1874DPPC   C3B44183  11.390  17.140  35.300
 1874DPPC   C4B44184  11.830  17.230  35.190
 1875DPPC   NC344185  24.480  18.310  33.090
 1875DPPC   PO444186  24.810  18.270  32.890
 1875DPPC   GL144187  24.740  18.510  32.540
 1875DPPC   GL244188  25.080  18.500  32.420
 1875DPPC   C1A44189  24.480  18.640  32.130
 1875DPPC   C2A44190  24.540  18.910  31.860
 1875DPPC   C3A44191  24.410  19.100  31.560
 1875DPPC   C4A44192  24.330  19.100  31.100
 1875DPPC   C1B44193  25.000  18.740  32.100
 1875DPPC   C2B44194  24.970  18.820  31.580
 1875DPPC   C3B44195  24.850  19.100  31.300
 1875DPPC   C4B44196  24.980  19.320  30.950
 1876DPPC   NC344197  26.040  22.860  43.590
 1876DPPC   PO444198  26.505  22.720  43.730
 1876DPPC   GL144199  26.190  22.420  43.750
 1876DPPC   GL244200  26.400  22.220  43.620
 1876DPPC   C1A44201  25.930  22.000  43.690
 1876DPPC   C2A44202  25.860  21.560  43.810
 1876DPPC   C3A44203  25.500  21.290  43.690
 1876DPPC   C4A44204  25.220  20.990  43.480
 1876DPPC   C1B44205  26.440  21.800  43.780
 1876DPPC   C2B44206  26.240  21.400  43.550
 1876DPPC   C3B44207  26.020  21.060  43.580
 1876DPPC   C4B44208  25.640  20.770  43.590
 1877DPPC   NC344209  11.020  14.260  26.330
 1877DPPC   PO444210  10.870  14.580  26.670
 1877DPPC   GL144211  11.320  14.690  26.760
 1877DPPC   GL244212  11.330  14.710  26.550
 1877DPPC   C1A44213  11.570  14.780  27.140
 1877DPPC   C2A44214  11.910  15.050  27.200
 1877DPPC   C3A44215  12.090  15.170  27.580
 1877DPPC   C4A44216  12.370  15.070  27.840
 1877DPPC   C1B44217  11.820  14.740  26.740
 1877DPPC   C2B44218  12.250  14.830  26.880
 1877DPPC   C3B44219  12.650  14.900  26.830
 1877DPPC   C4B44220  12.980  14.800  27.070
 1878DPPC   NC344221  25.330  26.140  39.460
 1878DPPC   PO444222  25.060  26.230  39.060
 1878DPPC   GL144223  24.910  25.780  39.080
 1878DPPC   GL244224  24.710  25.680  38.870
 1878DPPC   C1A44225  24.730  25.410  39.330
 1878DPPC   C2A44226  24.530  25.060  39.400
 1878DPPC   C3A44227  24.430  24.630  39.370
 1878DPPC   C4A44228  24.250  24.200  39.220
 1878DPPC   C1B44229  24.530  25.320  38.870
 1878DPPC   C2B44230  24.190  25.090  38.520
 1878DPPC   C3B44231  24.170  24.700  38.330
 1878DPPC   C4B44232  24.420  24.400  38.230
 1879DPPC   NC344233   8.660  20.620  28.490
 1879DPPC   PO444234   9.050  20.620  28.330
 1879DPPC   GL144235   9.540  20.800  28.150
 1879DPPC   GL244236   9.890  20.840  28.330
 1879DPPC   C1A44237   9.930  20.840  27.860
 1879DPPC   C2A44238  10.300  20.730  28.080
 1879DPPC   C3A44239  10.610  20.770  28.310
 1879DPPC   C4A44240  10.820  20.750  28.650
 1879DPPC   C1B44241  10.160  20.630  28.570
 1879DPPC   C2B44242  10.380  20.260  28.360
 1879DPPC   C3B44243  10.670  19.970  28.190
 1879DPPC   C4B44244  11.190  19.970  28.180
 1880DPPC   NC344245  27.675   4.380  29.570
 1880DPPC   PO444246  27.475   4.070  29.540
 1880DPPC   GL144247  27.235   4.430  29.310
 1880DPPC   GL244248  27.605   4.700  29.230
 1880DPPC   C1A44249  27.065   4.790  29.140
 1880DPPC   C2A44250  26.865   5.140  29.330
 1880DPPC   C3A44251  26.595   5.500  29.200
 1880DPPC   C4A44252  26.575   5.840  29.310
 1880DPPC   C1B44253  27.355   4.990  29.460
 1880DPPC   C2B44254  27.215   5.000  29.790
 1880DPPC   C3B44255  27.105   4.850  30.200
 1880DPPC   C4B44256  27.075   5.170  30.340
 1881DPPC   NC344257  31.415  18.920  33.360
 1881DPPC   PO444258  31.685  18.710  33.060
 1881DPPC   GL144259  31.405  18.660  32.650
 1881DPPC   GL244260  31.385  18.330  32.670
 1881DPPC   C1A44261  30.885  18.490  32.590
 1881DPPC   C2A44262  30.575  18.340  32.790
 1881DPPC   C3A44263  30.245  18.460  32.740
 1881DPPC   C4A44264  29.775  18.320  32.790
 1881DPPC   C1B44265  31.055  18.110  32.910
 1881DPPC   C2B44266  30.795  17.790  32.940
 1881DPPC   C3B44267  30.645  17.290  32.930
 1881DPPC   C4B44268  30.345  16.920  33.090
 1882DPPC   NC344269  26.000  18.260  33.740
 1882DPPC   PO444270  25.990  17.900  33.930
 1882DPPC   GL144271  26.440  18.110  33.690
 1882DPPC   GL244272  26.360  18.200  33.380
 1882DPPC   C1A44273  26.705  18.510  33.660
 1882DPPC   C2A44274  26.965  18.820  33.670
 1882DPPC   C3A44275  27.235  19.280  33.570
 1882DPPC   C4A44276  27.355  19.770  33.680
 1882DPPC   C1B44277  26.390  18.520  33.160
 1882DPPC   C2B44278  26.545  18.910  33.030
 1882DPPC   C3B44279  26.515  19.320  32.860
 1882DPPC   C4B44280  26.340  19.600  32.590
 1883DPPC   NC344281  11.240  12.080  33.580
 1883DPPC   PO444282  11.060  12.330  33.310
 1883DPPC   GL144283  11.470  12.490  33.250
 1883DPPC   GL244284  11.620  12.670  33.000
 1883DPPC   C1A44285  11.580  12.870  33.510
 1883DPPC   C2A44286  11.590  13.190  33.620
 1883DPPC   C3A44287  11.840  13.570  33.440
 1883DPPC   C4A44288  12.250  13.760  33.420
 1883DPPC   C1B44289  12.090  12.800  32.960
 1883DPPC   C2B44290  12.540  12.990  33.050
 1883DPPC   C3B44291  12.810  13.200  33.010
 1883DPPC   C4B44292  13.070  13.370  33.000
 1884DPPC   NC344293  16.700  22.590  24.000
 1884DPPC   PO444294  16.520  23.000  23.660
 1884DPPC   GL144295  16.270  23.090  23.320
 1884DPPC   GL244296  16.430  23.260  23.150
 1884DPPC   C1A44297  16.010  23.120  22.900
 1884DPPC   C2A44298  16.070  23.330  22.570
 1884DPPC   C3A44299  16.040  23.310  22.200
 1884DPPC   C4A44300  15.840  22.990  21.980
 1884DPPC   C1B44301  16.670  23.650  22.940
 1884DPPC   C2B44302  17.080  23.700  22.680
 1884DPPC   C3B44303  17.180  23.720  22.220
 1884DPPC   C4B44304  17.160  23.450  21.820
 1885DPPC   NC344305  16.240  24.850  20.180
 1885DPPC   PO444306  16.190  24.530  19.880
 1885DPPC   GL144307  16.070  24.060  20.020
 1885DPPC   GL244308  16.280  23.780  19.820
 1885DPPC   C1A44309  16.110  23.700  20.350
 1885DPPC   C2A44310  16.240  23.320  20.480
 1885DPPC   C3A44311  16.370  23.000  20.820
 1885DPPC   C4A44312  16.720  22.880  21.200
 1885DPPC   C1B44313  16.590  23.450  20.130
 1885DPPC   C2B44314  16.770  23.130  20.380
 1885DPPC   C3B44315  16.850  22.790  20.570
 1885DPPC   C4B44316  16.690  22.400  20.840
 1886DPPC   NC344317  22.960  11.230  40.810
 1886DPPC   PO444318  22.440  11.250  41.010
 1886DPPC   GL144319  22.230  10.980  41.230
 1886DPPC   GL244320  22.290  10.740  41.000
 1886DPPC   C1A44321  21.860  11.010  41.490
 1886DPPC   C2A44322  21.690  10.740  41.800
 1886DPPC   C3A44323  21.500  10.530  42.250
 1886DPPC   C4A44324  21.360  10.770  42.500
 1886DPPC   C1B44325  21.960  10.530  41.340
 1886DPPC   C2B44326  21.540  10.440  41.440
 1886DPPC   C3B44327  21.350  10.400  41.760
 1886DPPC   C4B44328  21.250  10.130  42.100
 1887DPPC   NC344329  28.925  10.870  28.610
 1887DPPC   PO444330  29.135  10.980  29.060
 1887DPPC   GL144331  29.455  10.810  29.030
 1887DPPC   GL244332  29.575  10.610  29.290
 1887DPPC   C1A44333  29.855  10.810  28.820
 1887DPPC   C2A44334  30.005  10.550  28.440
 1887DPPC   C3A44335  30.235  10.170  28.440
 1887DPPC   C4A44336  30.545   9.980  28.190
 1887DPPC   C1B44337  29.835  10.420  29.070
 1887DPPC   C2B44338  30.205  10.230  28.950
 1887DPPC   C3B44339  30.645  10.090  28.670
 1887DPPC   C4B44340  30.825  10.360  28.570
 1888DPPC   NC344341  22.980   8.490  28.990
 1888DPPC   PO444342  22.510   8.500  28.780
 1888DPPC   GL144343  22.520   8.020  28.810
 1888DPPC   GL244344  22.600   7.900  29.050
 1888DPPC   C1A44345  22.250   7.580  28.820
 1888DPPC   C2A44346  22.150   7.100  28.680
 1888DPPC   C3A44347  22.080   6.720  28.410
 1888DPPC   C4A44348  21.990   6.650  27.930
 1888DPPC   C1B44349  22.500   7.490  29.260
 1888DPPC   C2B44350  22.300   7.190  29.260
 1888DPPC   C3B44351  22.260   6.720  29.180
 1888DPPC   C4B44352  22.350   6.490  28.760
 1889DPPC   NC344353  20.140  25.340  21.330
 1889DPPC   PO444354  19.930  25.430  21.750
 1889DPPC   GL144355  19.790  25.100  21.620
 1889DPPC   GL244356  19.900  24.970  21.960
 1889DPPC   C1A44357  19.510  24.650  21.500
 1889DPPC   C2A44358  19.600  24.280  21.570
 1889DPPC   C3A44359  19.580  23.880  21.310
 1889DPPC   C4A44360  19.460  23.780  20.930
 1889DPPC   C1B44361  19.590  24.590  22.030
 1889DPPC   C2B44362  19.620  24.420  22.420
 1889DPPC   C3B44363  19.760  24.400  22.830
 1889DPPC   C4B44364  19.490  24.250  23.180
 1890DPPC   NC344365  31.285   7.690  39.870
 1890DPPC   PO444366  30.975   7.970  39.770
 1890DPPC   GL144367  30.665   8.110  39.500
 1890DPPC   GL244368  30.785   8.350  39.450
 1890DPPC   C1A44369  30.375   8.190  39.100
 1890DPPC   C2A44370  30.065   8.500  39.010
 1890DPPC   C3A44371  29.675   8.820  39.160
 1890DPPC   C4A44372  29.605   9.010  39.470
 1890DPPC   C1B44373  30.605   8.660  39.160
 1890DPPC   C2B44374  30.385   8.880  38.920
 1890DPPC   C3B44375  30.085   9.140  38.800
 1890DPPC   C4B44376  29.755   9.360  38.690
 1891DPPC   NC344377  28.715  14.050  44.680
 1891DPPC   PO444378  28.985  14.280  44.450
 1891DPPC   GL144379  28.595  14.570  44.530
 1891DPPC   GL244380  28.335  14.420  44.570
 1891DPPC   C1A44381  28.415  14.810  44.170
 1891DPPC   C2A44382  28.095  15.030  43.990
 1891DPPC   C3A44383  27.965  15.060  43.640
 1891DPPC   C4A44384  27.715  15.230  43.370
 1891DPPC   C1B44385  27.995  14.570  44.210
 1891DPPC   C2B44386  27.795  14.680  43.870
 1891DPPC   C3B44387  27.625  14.450  43.540
 1891DPPC   C4B44388  27.925  14.260  43.230
 1892DPPC   NC344389  18.350  22.880  39.250
 1892DPPC   PO444390  18.290  22.520  39.480
 1892DPPC   GL144391  18.300  22.810  39.840
 1892DPPC   GL244392  18.030  23.070  39.800
 1892DPPC   C1A44393  18.410  22.890  40.320
 1892DPPC   C2A44394  18.370  23.140  40.790
 1892DPPC   C3A44395  18.360  23.230  41.200
 1892DPPC   C4A44396  18.280  23.610  41.570
 1892DPPC   C1B44397  18.040  23.170  40.230
 1892DPPC   C2B44398  17.950  23.270  40.560
 1892DPPC   C3B44399  17.870  23.370  40.870
 1892DPPC   C4B44400  17.930  23.610  41.250
 1893DPPC   NC344401  25.740   8.010  35.040
 1893DPPC   PO444402  25.970   7.890  35.420
 1893DPPC   GL144403  25.970   7.460  35.430
 1893DPPC   GL244404  26.010   7.350  35.730
 1893DPPC   C1A44405  26.240   6.940  35.400
 1893DPPC   C2A44406  26.150   6.610  35.510
 1893DPPC   C3A44407  25.960   6.220  35.360
 1893DPPC   C4A44408  26.130   5.770  35.450
 1893DPPC   C1B44409  26.140   6.990  35.920
 1893DPPC   C2B44410  26.360   6.960  36.290
 1893DPPC   C3B44411  26.675   6.790  36.590
 1893DPPC   C4B44412  26.915   6.730  36.990
 1894DPPC   NC344413  26.340  17.330  27.420
 1894DPPC   PO444414  26.545  17.300  27.040
 1894DPPC   GL144415  26.835  17.470  27.110
 1894DPPC   GL244416  26.955  17.780  27.100
 1894DPPC   C1A44417  27.235  17.390  26.890
 1894DPPC   C2A44418  27.585  17.160  26.880
 1894DPPC   C3A44419  27.985  17.260  26.780
 1894DPPC   C4A44420  28.315  17.480  26.620
 1894DPPC   C1B44421  27.295  18.060  27.130
 1894DPPC   C2B44422  27.575  18.180  26.870
 1894DPPC   C3B44423  27.655  18.570  26.810
 1894DPPC   C4B44424  27.825  19.030  26.820
 1895DPPC   NC344425  20.830   4.230  34.180
 1895DPPC   PO444426  20.980   3.910  34.500
 1895DPPC   GL144427  20.990   4.120  34.790
 1895DPPC   GL244428  20.930   4.480  34.710
 1895DPPC   C1A44429  21.400   4.270  34.790
 1895DPPC   C2A44430  21.750   4.510  34.770
 1895DPPC   C3A44431  21.870   4.850  34.490
 1895DPPC   C4A44432  22.170   5.090  34.770
 1895DPPC   C1B44433  20.750   4.880  34.940
 1895DPPC   C2B44434  20.790   5.280  35.130
 1895DPPC   C3B44435  21.060   5.700  35.160
 1895DPPC   C4B44436  21.330   5.900  35.460
 1896DPPC   NC344437  25.610  17.320  23.620
 1896DPPC   PO444438  25.820  17.640  23.830
 1896DPPC   GL144439  25.740  18.040  23.970
 1896DPPC   GL244440  25.980  18.180  23.870
 1896DPPC   C1A44441  25.780  18.590  23.990
 1896DPPC   C2A44442  26.090  18.900  23.820
 1896DPPC   C3A44443  26.080  19.250  23.590
 1896DPPC   C4A44444  26.010  19.430  23.230
 1896DPPC   C1B44445  26.340  18.430  23.780
 1896DPPC   C2B44446  26.595  18.890  23.750
 1896DPPC   C3B44447  26.745  19.310  23.660
 1896DPPC   C4B44448  26.515  19.640  23.460
 1897DPPC   NC344449  22.290   5.050  24.360
 1897DPPC   PO444450  22.020   5.400  24.180
 1897DPPC   GL144451  21.980   5.900  24.290
 1897DPPC   GL244452  21.740   6.050  24.030
 1897DPPC   C1A44453  22.070   6.250  24.530
 1897DPPC   C2A44454  22.170   6.570  24.780
 1897DPPC   C3A44455  22.030   6.860  25.080
 1897DPPC   C4A44456  21.670   7.020  25.220
 1897DPPC   C1B44457  22.250   6.210  23.950
 1897DPPC   C2B44458  22.610   6.330  24.050
 1897DPPC   C3B44459  22.990   6.370  24.320
 1897DPPC   C4B44460  23.010   6.780  24.470
 1898DPPC   NC344461  10.300  14.900  30.570
 1898DPPC   PO444462  10.530  14.770  30.320
 1898DPPC   GL144463  10.850  15.070  30.470
 1898DPPC   GL244464  11.130  15.000  30.750
 1898DPPC   C1A44465  11.050  15.420  30.360
 1898DPPC   C2A44466  11.500  15.550  30.400
 1898DPPC   C3A44467  11.920  15.620  30.580
 1898DPPC   C4A44468  12.340  15.690  30.690
 1898DPPC   C1B44469  11.300  15.480  30.840
 1898DPPC   C2B44470  11.490  15.740  30.900
 1898DPPC   C3B44471  11.790  16.110  30.680
 1898DPPC   C4B44472  12.150  16.150  30.890
 1899DPPC   NC344473  19.640  24.620  34.580
 1899DPPC   PO444474  19.870  24.430  34.880
 1899DPPC   GL144475  20.010  24.880  35.000
 1899DPPC   GL244476  20.320  24.890  35.150
 1899DPPC   C1A44477  20.020  25.320  35.010
 1899DPPC   C2A44478  20.130  25.660  34.820
 1899DPPC   C3A44479  20.380  26.030  34.830
 1899DPPC   C4A44480  20.600  26.340  34.740
 1899DPPC   C1B44481  20.610  25.090  35.370
 1899DPPC   C2B44482  20.720  25.520  35.530
 1899DPPC   C3B44483  20.880  25.960  35.420
 1899DPPC   C4B44484  21.020  26.220  35.460
 1900DPPC   NC344485  10.480  21.860  24.570
 1900DPPC   PO444486  10.730  22.330  24.630
 1900DPPC   GL144487  11.150  22.600  24.780
 1900DPPC   GL244488  11.200  22.760  25.040
 1900DPPC   C1A44489  11.600  22.710  24.710
 1900DPPC   C2A44490  11.980  22.600  24.920
 1900DPPC   C3A44491  12.230  22.240  25.210
 1900DPPC   C4A44492  12.610  22.020  25.450
 1900DPPC   C1B44493  11.550  22.430  25.080
 1900DPPC   C2B44494  11.700  22.070  25.060
 1900DPPC   C3B44495  11.360  21.720  25.010
 1900DPPC   C4B44496  11.060  21.550  25.030
 1901DPPC   NC344497  18.620  24.150  44.360
 1901DPPC   PO444498  18.170  24.140  44.310
 1901DPPC   GL144499  18.210  23.760  43.990
 1901DPPC   GL244500  18.000  23.540  43.840
 1901DPPC   C1A44501  18.580  23.360  44.010
 1901DPPC   C2A44502  18.550  23.060  43.660
 1901DPPC   C3A44503  18.440  22.860  43.430
 1901DPPC   C4A44504  18.630  22.920  43.000
 1901DPPC   C1B44505  17.990  23.360  43.380
 1901DPPC   C2B44506  18.280  23.490  43.090
 1901DPPC   C3B44507  18.730  23.420  42.830
 1901DPPC   C4B44508  18.980  23.360  42.440
 1902DPPC   NC344509  13.930  18.000  28.190
 1902DPPC   PO444510  13.840  18.030  27.800
 1902DPPC   GL144511  13.650  17.710  27.540
 1902DPPC   GL244512  13.490  17.750  27.210
 1902DPPC   C1A44513  13.330  17.450  27.640
 1902DPPC   C2A44514  13.110  17.050  27.730
 1902DPPC   C3A44515  12.960  16.710  27.890
 1902DPPC   C4A44516  12.670  16.600  27.550
 1902DPPC   C1B44517  13.090  17.690  27.170
 1902DPPC   C2B44518  12.870  17.500  27.500
 1902DPPC   C3B44519  12.710  17.140  27.380
 1902DPPC   C4B44520  12.370  16.830  27.230
 1903DPPC   NC344521  10.280  22.340  35.860
 1903DPPC   PO444522  10.500  22.420  36.220
 1903DPPC   GL144523  10.800  22.320  36.040
 1903DPPC   GL244524  10.800  22.360  35.670
 1903DPPC   C1A44525  11.140  22.060  36.030
 1903DPPC   C2A44526  11.320  21.690  36.220
 1903DPPC   C3A44527  11.720  21.690  36.390
 1903DPPC   C4A44528  12.020  21.580  36.490
 1903DPPC   C1B44529  11.150  22.320  35.520
 1903DPPC   C2B44530  11.420  21.950  35.520
 1903DPPC   C3B44531  11.810  21.870  35.510
 1903DPPC   C4B44532  12.080  21.540  35.420
 1904DPPC   NC344533  27.385   8.460  34.240
 1904DPPC   PO444534  27.795   8.280  34.190
 1904DPPC   GL144535  27.965   7.900  34.310
 1904DPPC   GL244536  27.915   7.660  34.630
 1904DPPC   C1A44537  28.105   7.460  34.250
 1904DPPC   C2A44538  28.045   7.010  34.440
 1904DPPC   C3A44539  27.775   6.910  34.640
 1904DPPC   C4A44540  27.665   6.760  34.990
 1904DPPC   C1B44541  28.145   7.350  34.790
 1904DPPC   C2B44542  28.155   6.950  34.940
 1904DPPC   C3B44543  28.095   6.390  34.950
 1904DPPC   C4B44544  27.905   6.080  35.100
 1905DPPC   NC344545  24.070   3.170  28.450
 1905DPPC   PO444546  23.910   3.350  28.760
 1905DPPC   GL144547  24.000   3.810  28.800
 1905DPPC   GL244548  24.340   3.850  28.870
 1905DPPC   C1A44549  24.090   4.240  28.960
 1905DPPC   C2A44550  24.270   4.470  29.370
 1905DPPC   C3A44551  24.740   4.570  29.510
 1905DPPC   C4A44552  25.120   4.210  29.500
 1905DPPC   C1B44553  24.160   4.190  28.450
 1905DPPC   C2B44554  24.160   4.610  28.400
 1905DPPC   C3B44555  24.210   4.940  28.290
 1905DPPC   C4B44556  24.310   5.190  28.240
 1906DPPC   NC344557  10.210  23.010  35.350
 1906DPPC   PO444558  10.080  23.010  34.870
 1906DPPC   GL144559  10.490  22.960  34.660
 1906DPPC   GL244560  10.680  22.980  34.890
 1906DPPC   C1A44561  10.710  22.870  34.310
 1906DPPC   C2A44562  11.000  22.630  34.170
 1906DPPC   C3A44563  11.290  22.340  34.050
 1906DPPC   C4A44564  11.490  21.950  34.210
 1906DPPC   C1B44565  11.050  22.680  34.690
 1906DPPC   C2B44566  11.320  22.380  34.570
 1906DPPC   C3B44567  11.670  22.140  34.730
 1906DPPC   C4B44568  12.030  21.930  34.630
 1907DPPC   NC344569  21.870  23.460  44.760
 1907DPPC   PO444570  21.470  23.770  44.670
 1907DPPC   GL144571  21.590  23.640  44.190
 1907DPPC   GL244572  21.900  23.750  44.010
 1907DPPC   C1A44573  21.620  23.410  43.730
 1907DPPC   C2A44574  21.830  22.980  43.690
 1907DPPC   C3A44575  22.050  22.800  44.010
 1907DPPC   C4A44576  21.990  22.550  44.380
 1907DPPC   C1B44577  22.090  23.360  43.930
 1907DPPC   C2B44578  22.360  23.060  43.740
 1907DPPC   C3B44579  22.300  22.740  43.470
 1907DPPC   C4B44580  22.210  22.410  43.170
 1908DPPC   NC344581  25.520  12.420  22.950
 1908DPPC   PO444582  25.710  12.370  23.280
 1908DPPC   GL144583  25.870  12.070  22.960
 1908DPPC   GL244584  26.090  12.090  22.800
 1908DPPC   C1A44585  25.790  11.730  22.780
 1908DPPC   C2A44586  25.900  11.430  22.360
 1908DPPC   C3A44587  25.690  11.310  21.960
 1908DPPC   C4A44588  25.540  11.050  21.620
 1908DPPC   C1B44589  26.440  12.030  22.630
 1908DPPC   C2B44590  26.635  12.090  22.320
 1908DPPC   C3B44591  27.025  11.960  22.190
 1908DPPC   C4B44592  27.295  11.610  22.520
 1909DPPC   NC344593   9.620  16.870  34.630
 1909DPPC   PO444594   9.790  16.760  34.320
 1909DPPC   GL144595  10.180  16.810  34.080
 1909DPPC   GL244596  10.280  16.670  34.350
 1909DPPC   C1A44597  10.680  16.800  34.000
 1909DPPC   C2A44598  11.050  16.810  33.990
 1909DPPC   C3A44599  11.410  16.560  34.110
 1909DPPC   C4A44600  11.890  16.490  33.900
 1909DPPC   C1B44601  10.510  17.060  34.410
 1909DPPC   C2B44602  10.660  17.550  34.380
 1909DPPC   C3B44603  10.950  17.720  34.630
 1909DPPC   C4B44604  11.370  17.890  34.700
 1910DPPC   NC344605  22.480  23.100  34.330
 1910DPPC   PO444606  22.460  22.780  34.720
 1910DPPC   GL144607  22.890  23.120  34.650
 1910DPPC   GL244608  22.740  23.410  34.610
 1910DPPC   C1A44609  23.250  23.430  34.680
 1910DPPC   C2A44610  23.680  23.500  34.650
 1910DPPC   C3A44611  23.990  23.520  34.380
 1910DPPC   C4A44612  24.340  23.380  34.150
 1910DPPC   C1B44613  22.870  23.860  34.700
 1910DPPC   C2B44614  23.190  24.070  34.700
 1910DPPC   C3B44615  23.500  24.300  35.010
 1910DPPC   C4B44616  23.690  24.390  35.380
 1911DPPC   NC344617  22.570  22.800  37.470
 1911DPPC   PO444618  22.120  22.940  37.250
 1911DPPC   GL144619  22.370  23.290  37.380
 1911DPPC   GL244620  22.550  23.500  37.140
 1911DPPC   C1A44621  22.430  23.570  37.670
 1911DPPC   C2A44622  22.500  23.980  37.900
 1911DPPC   C3A44623  22.860  24.120  37.930
 1911DPPC   C4A44624  22.970  24.610  37.800
 1911DPPC   C1B44625  22.780  23.880  37.010
 1911DPPC   C2B44626  23.060  24.140  36.880
 1911DPPC   C3B44627  23.420  24.480  36.860
 1911DPPC   C4B44628  23.550  24.900  37.020
 1912DPPC   NC344629  26.370   7.990  43.200
 1912DPPC   PO444630  26.050   7.840  43.250
 1912DPPC   GL144631  25.890   8.010  42.920
 1912DPPC   GL244632  26.100   8.240  42.730
 1912DPPC   C1A44633  25.580   8.150  42.570
 1912DPPC   C2A44634  25.210   8.340  42.460
 1912DPPC   C3A44635  24.880   8.290  42.070
 1912DPPC   C4A44636  24.700   8.050  41.850
 1912DPPC   C1B44637  26.000   8.440  42.390
 1912DPPC   C2B44638  26.090   8.850  42.260
 1912DPPC   C3B44639  26.150   9.290  42.250
 1912DPPC   C4B44640  26.320   9.620  42.170
 1913DPPC   NC344641  20.190   2.360  35.960
 1913DPPC   PO444642  20.580   2.160  35.650
 1913DPPC   GL144643  20.590   1.750  35.630
 1913DPPC   GL244644  20.410   1.560  35.810
 1913DPPC   C1A44645  20.810   1.360  35.560
 1913DPPC   C2A44646  20.870   1.010  35.260
 1913DPPC   C3A44647  20.630   0.910  34.930
 1913DPPC   C4A44648  20.640   1.010  34.610
 1913DPPC   C1B44649  20.420   1.190  35.790
 1913DPPC   C2B44650  20.420   0.750  35.640
 1913DPPC   C3B44651  20.530   0.470  35.210
 1913DPPC   C4B44652  20.660   0.400  34.760
 1914DPPC   NC344653  31.905   6.470  34.640
 1914DPPC   PO444654  32.025   6.420  35.080
 1914DPPC   GL144655  31.865   6.810  35.160
 1914DPPC   GL244656  31.845   6.920  34.880
 1914DPPC   C1A44657  31.345   6.940  35.090
 1914DPPC   C2A44658  31.105   7.140  35.330
 1914DPPC   C3A44659  30.665   7.290  35.440
 1914DPPC   C4A44660  30.255   7.320  35.230
 1914DPPC   C1B44661  31.575   7.320  34.980
 1914DPPC   C2B44662  31.255   7.530  34.870
 1914DPPC   C3B44663  30.965   7.870  34.680
 1914DPPC   C4B44664  30.565   7.850  34.510
 1915DPPC   NC344665  14.390  12.290  21.810
 1915DPPC   PO444666  14.570  11.850  22.010
 1915DPPC   GL144667  14.840  12.160  22.250
 1915DPPC   GL244668  14.730  12.320  22.540
 1915DPPC   C1A44669  15.180  12.440  22.350
 1915DPPC   C2A44670  15.490  12.630  22.540
 1915DPPC   C3A44671  15.790  12.910  22.600
 1915DPPC   C4A44672  16.210  12.840  22.730
 1915DPPC   C1B44673  14.930  12.520  22.880
 1915DPPC   C2B44674  15.250  12.720  23.000
 1915DPPC   C3B44675  15.390  13.110  22.850
 1915DPPC   C4B44676  15.730  13.480  22.930
 1916DPPC   NC344677  12.030  12.410  38.290
 1916DPPC   PO444678  12.260  12.140  38.160
 1916DPPC   GL144679  12.620  12.180  38.060
 1916DPPC   GL244680  12.560  12.580  38.110
 1916DPPC   C1A44681  13.020  12.310  38.130
 1916DPPC   C2A44682  13.370  12.590  38.090
 1916DPPC   C3A44683  13.550  12.960  38.250
 1916DPPC   C4A44684  13.670  13.330  38.210
 1916DPPC   C1B44685  12.890  12.890  38.090
 1916DPPC   C2B44686  13.190  13.250  38.070
 1916DPPC   C3B44687  13.420  13.540  37.840
 1916DPPC   C4B44688  13.680  13.530  37.490
 1917DPPC   NC344689  28.625  20.790  31.210
 1917DPPC   PO444690  28.895  20.650  30.930
 1917DPPC   GL144691  28.715  20.270  30.930
 1917DPPC   GL244692  28.655  20.030  30.660
 1917DPPC   C1A44693  28.385  20.140  31.240
 1917DPPC   C2A44694  28.045  20.080  31.370
 1917DPPC   C3A44695  27.665  19.990  31.680
 1917DPPC   C4A44696  27.325  19.840  31.830
 1917DPPC   C1B44697  28.465  19.740  30.960
 1917DPPC   C2B44698  28.285  19.570  31.310
 1917DPPC   C3B44699  27.835  19.560  31.410
 1917DPPC   C4B44700  27.425  19.790  31.330
 1918DPPC   NC344701  24.590   6.170  22.370
 1918DPPC   PO444702  25.030   6.370  22.470
 1918DPPC   GL144703  24.860   6.670  22.840
 1918DPPC   GL244704  25.090   6.950  22.870
 1918DPPC   C1A44705  24.910   6.710  23.260
 1918DPPC   C2A44706  25.260   6.620  23.510
 1918DPPC   C3A44707  25.620   6.750  23.750
 1918DPPC   C4A44708  25.830   6.830  24.090
 1918DPPC   C1B44709  25.230   7.070  23.240
 1918DPPC   C2B44710  25.140   7.160  23.750
 1918DPPC   C3B44711  25.510   7.370  23.870
 1918DPPC   C4B44712  25.750   7.640  23.660
 1919DPPC   NC344713  12.030  17.470  22.280
 1919DPPC   PO444714  12.170  17.130  22.030
 1919DPPC   GL144715  12.550  17.190  22.230
 1919DPPC   GL244716  12.540  16.830  22.450
 1919DPPC   C1A44717  12.810  17.430  22.590
 1919DPPC   C2A44718  12.770  17.590  23.060
 1919DPPC   C3A44719  12.780  17.650  23.390
 1919DPPC   C4A44720  12.800  18.040  23.630
 1919DPPC   C1B44721  13.030  16.990  22.440
 1919DPPC   C2B44722  13.460  17.110  22.620
 1919DPPC   C3B44723  13.880  17.150  22.630
 1919DPPC   C4B44724  14.210  17.500  22.670
 1920DPPC   NC344725  13.700  19.260  43.720
 1920DPPC   PO444726  13.770  18.780  43.650
 1920DPPC   GL144727  13.890  18.740  43.290
 1920DPPC   GL244728  13.710  18.670  43.020
 1920DPPC   C1A44729  14.030  19.060  42.960
 1920DPPC   C2A44730  14.460  19.040  42.750
 1920DPPC   C3A44731  14.900  19.160  42.740
 1920DPPC   C4A44732  15.080  19.510  42.500
 1920DPPC   C1B44733  13.900  18.410  42.800
 1920DPPC   C2B44734  14.160  18.230  42.660
 1920DPPC   C3B44735  14.490  18.490  42.660
 1920DPPC   C4B44736  14.950  18.630  42.900
 1921DPPC   NC344737  22.390   6.850  42.060
 1921DPPC   PO444738  21.930   6.620  41.790
 1921DPPC   GL144739  21.960   6.960  41.610
 1921DPPC   GL244740  22.250   7.120  41.690
 1921DPPC   C1A44741  21.810   7.350  41.580
 1921DPPC   C2A44742  21.970   7.590  41.310
 1921DPPC   C3A44743  21.990   7.900  40.920
 1921DPPC   C4A44744  22.200   8.040  40.650
 1921DPPC   C1B44745  22.450   7.350  41.440
 1921DPPC   C2B44746  22.820   7.340  41.220
 1921DPPC   C3B44747  23.010   7.520  40.820
 1921DPPC   C4B44748  22.940   7.620  40.400
 1922DPPC   NC344749  20.230   6.980  41.780
 1922DPPC   PO444750  20.290   7.330  41.650
 1922DPPC   GL144751  20.480   7.620  41.740
 1922DPPC   GL244752  20.690   7.710  41.430
 1922DPPC   C1A44753  20.240   8.080  41.730
 1922DPPC   C2A44754  20.030   8.280  41.490
 1922DPPC   C3A44755  19.820   8.530  41.300
 1922DPPC   C4A44756  19.440   8.620  41.290
 1922DPPC   C1B44757  20.490   7.850  41.110
 1922DPPC   C2B44758  20.300   8.140  40.990
 1922DPPC   C3B44759  20.270   8.590  41.130
 1922DPPC   C4B44760  20.120   9.000  41.110
 1923DPPC   NC344761  31.325  13.380  41.600
 1923DPPC   PO444762  31.265  12.850  41.700
 1923DPPC   GL144763  31.145  12.890  41.300
 1923DPPC   GL244764  30.955  13.160  41.330
 1923DPPC   C1A44765  30.895  12.830  40.870
 1923DPPC   C2A44766  30.745  12.760  40.500
 1923DPPC   C3A44767  30.605  12.810  40.160
 1923DPPC   C4A44768  30.425  12.670  39.810
 1923DPPC   C1B44769  30.645  13.040  41.250
 1923DPPC   C2B44770  30.425  12.900  40.930
 1923DPPC   C3B44771  30.215  12.770  40.600
 1923DPPC   C4B44772  29.775  12.880  40.420
 1924DPPC   NC344773  22.040  25.640  42.060
 1924DPPC   PO444774  22.230  25.930  41.890
 1924DPPC   GL144775  22.060  25.720  41.560
 1924DPPC   GL244776  21.850  25.540  41.610
 1924DPPC   C1A44777  22.140  25.510  41.180
 1924DPPC   C2A44778  21.880  25.220  40.930
 1924DPPC   C3A44779  21.980  24.990  40.600
 1924DPPC   C4A44780  21.950  24.780  40.230
 1924DPPC   C1B44781  21.630  25.550  41.230
 1924DPPC   C2B44782  21.330  25.380  40.970
 1924DPPC   C3B44783  21.140  25.100  40.770
 1924DPPC   C4B44784  20.950  24.850  40.450
 1925DPPC   NC344785  13.930  16.680  31.410
 1925DPPC   PO444786  14.020  16.860  31.030
 1925DPPC   GL144787  13.770  16.440  30.950
 1925DPPC   GL244788  13.790  16.060  30.880
 1925DPPC   C1A44789  13.420  16.370  30.730
 1925DPPC   C2A44790  13.120  16.190  30.680
 1925DPPC   C3A44791  12.650  16.110  30.800
 1925DPPC   C4A44792  12.560  16.090  31.280
 1925DPPC   C1B44793  13.460  15.840  30.730
 1925DPPC   C2B44794  13.000  15.690  30.710
 1925DPPC   C3B44795  12.770  15.780  30.490
 1925DPPC   C4B44796  12.510  15.920  30.190
 1926DPPC   NC344797  14.990  21.640  25.640
 1926DPPC   PO444798  14.510  21.400  25.590
 1926DPPC   GL144799  14.350  21.420  25.130
 1926DPPC   GL244800  14.100  21.600  25.290
 1926DPPC   C1A44801  13.960  21.290  24.920
 1926DPPC   C2A44802  13.650  21.200  24.640
 1926DPPC   C3A44803  13.310  21.370  24.400
 1926DPPC   C4A44804  13.260  21.560  23.910
 1926DPPC   C1B44805  13.630  21.620  25.150
 1926DPPC   C2B44806  13.270  21.660  24.840
 1926DPPC   C3B44807  12.970  21.860  24.580
 1926DPPC   C4B44808  12.850  22.430  24.650
 1927DPPC   NC344809  13.140  15.510  42.360
 1927DPPC   PO444810  13.420  15.270  42.620
 1927DPPC   GL144811  13.580  15.320  42.220
 1927DPPC   GL244812  13.660  15.070  41.940
 1927DPPC   C1A44813  14.080  15.530  42.080
 1927DPPC   C2A44814  14.520  15.650  41.760
 1927DPPC   C3A44815  14.720  16.080  41.920
 1927DPPC   C4A44816  14.860  16.490  42.120
 1927DPPC   C1B44817  13.930  15.220  41.720
 1927DPPC   C2B44818  14.370  15.130  41.550
 1927DPPC   C3B44819  14.750  15.230  41.310
 1927DPPC   C4B44820  15.200  15.210  41.400
 1928DPPC   NC344821  12.070  24.480  23.300
 1928DPPC   PO444822  12.310  24.790  23.630
 1928DPPC   GL144823  12.540  24.430  23.870
 1928DPPC   GL244824  12.440  24.230  23.570
 1928DPPC   C1A44825  12.970  24.160  24.140
 1928DPPC   C2A44826  13.150  23.810  24.170
 1928DPPC   C3A44827  13.430  23.490  24.440
 1928DPPC   C4A44828  13.790  23.240  24.350
 1928DPPC   C1B44829  12.560  23.800  23.610
 1928DPPC   C2B44830  12.430  23.360  23.630
 1928DPPC   C3B44831  12.360  22.950  23.600
 1928DPPC   C4B44832  12.480  22.660  23.630
 1929DPPC   NC344833  29.515  20.270  42.180
 1929DPPC   PO444834  29.415  20.680  41.950
 1929DPPC   GL144835  29.075  20.440  41.890
 1929DPPC   GL244836  29.005  20.540  41.530
 1929DPPC   C1A44837  28.815  20.050  41.950
 1929DPPC   C2A44838  28.555  19.710  41.920
 1929DPPC   C3A44839  28.095  19.560  41.990
 1929DPPC   C4A44840  27.575  19.530  42.030
 1929DPPC   C1B44841  28.565  20.420  41.480
 1929DPPC   C2B44842  28.135  20.180  41.370
 1929DPPC   C3B44843  27.765  20.100  41.130
 1929DPPC   C4B44844  27.705  19.740  40.790
 1930DPPC   NC344845  11.100  14.900  25.690
 1930DPPC   PO444846  11.320  14.560  26.010
 1930DPPC   GL144847  11.570  14.780  26.090
 1930DPPC   GL244848  11.670  14.890  25.800
 1930DPPC   C1A44849  11.570  15.090  26.430
 1930DPPC   C2A44850  11.600  15.230  26.750
 1930DPPC   C3A44851  11.960  15.250  26.750
 1930DPPC   C4A44852  12.420  15.280  26.940
 1930DPPC   C1B44853  12.070  14.720  25.870
 1930DPPC   C2B44854  12.380  14.420  25.880
 1930DPPC   C3B44855  12.770  14.410  26.000
 1930DPPC   C4B44856  13.000  14.440  25.740
 1931DPPC   NC344857  29.415  20.480  29.340
 1931DPPC   PO444858  29.325  20.040  29.280
 1931DPPC   GL144859  28.945  19.930  29.460
 1931DPPC   GL244860  29.085  19.590  29.550
 1931DPPC   C1A44861  28.535  19.530  29.370
 1931DPPC   C2A44862  28.215  19.250  29.290
 1931DPPC   C3A44863  28.225  18.790  29.270
 1931DPPC   C4A44864  28.325  18.590  29.700
 1931DPPC   C1B44865  28.855  19.220  29.560
 1931DPPC   C2B44866  28.535  19.110  29.670
 1931DPPC   C3B44867  28.605  18.910  29.980
 1931DPPC   C4B44868  28.545  18.470  30.170
 1932DPPC   NC344869  17.160  12.360  34.330
 1932DPPC   PO444870  16.940  12.070  34.610
 1932DPPC   GL144871  16.780  11.630  34.740
 1932DPPC   GL244872  16.700  11.710  34.970
 1932DPPC   C1A44873  16.690  11.210  34.650
 1932DPPC   C2A44874  16.360  10.800  34.650
 1932DPPC   C3A44875  16.120  10.420  34.760
 1932DPPC   C4A44876  16.090  10.130  35.110
 1932DPPC   C1B44877  16.370  11.470  34.920
 1932DPPC   C2B44878  16.040  11.150  34.980
 1932DPPC   C3B44879  15.540  10.890  35.060
 1932DPPC   C4B44880  15.020  10.870  34.980
 1933DPPC   NC344881  33.185  15.520  27.590
 1933DPPC   PO444882  32.885  15.750  27.490
 1933DPPC   GL144883  32.525  15.630  27.670
 1933DPPC   GL244884  32.585  15.350  27.700
 1933DPPC   C1A44885  32.065  15.490  27.510
 1933DPPC   C2A44886  31.635  15.380  27.380
 1933DPPC   C3A44887  31.175  15.270  27.370
 1933DPPC   C4A44888  30.755  15.060  27.360
 1933DPPC   C1B44889  32.335  15.070  27.870
 1933DPPC   C2B44890  31.875  14.960  27.670
 1933DPPC   C3B44891  31.455  15.010  27.710
 1933DPPC   C4B44892  31.065  14.780  27.600
 1934DPPC   NC344893  33.595  12.140  29.660
 1934DPPC   PO444894  33.325  12.410  29.670
 1934DPPC   GL144895  33.045  12.520  29.820
 1934DPPC   GL244896  33.005  12.830  29.620
 1934DPPC   C1A44897  32.545  12.620  29.730
 1934DPPC   C2A44898  32.275  12.910  30.030
 1934DPPC   C3A44899  31.895  13.120  30.080
 1934DPPC   C4A44900  31.495  13.050  30.260
 1934DPPC   C1B44901  32.745  12.750  29.220
 1934DPPC   C2B44902  32.315  12.770  29.200
 1934DPPC   C3B44903  31.925  12.810  29.200
 1934DPPC   C4B44904  31.425  12.970  29.200
 1935DPPC   NC344905  28.245  16.050  34.640
 1935DPPC   PO444906  28.435  15.660  34.740
 1935DPPC   GL144907  28.615  15.910  34.350
 1935DPPC   GL244908  28.945  15.730  34.230
 1935DPPC   C1A44909  28.985  16.230  34.210
 1935DPPC   C2A44910  29.225  16.630  34.080
 1935DPPC   C3A44911  29.425  16.940  33.820
 1935DPPC   C4A44912  29.485  17.140  33.480
 1935DPPC   C1B44913  29.295  15.860  34.030
 1935DPPC   C2B44914  29.705  16.000  33.970
 1935DPPC   C3B44915  30.195  15.930  34.000
 1935DPPC   C4B44916  30.455  15.660  33.880
 1936DPPC   NC344917  26.675  23.750  28.020
 1936DPPC   PO444918  26.585  23.830  27.610
 1936DPPC   GL144919  26.180  23.670  27.830
 1936DPPC   GL244920  26.240  23.560  28.000
 1936DPPC   C1A44921  25.840  23.380  27.670
 1936DPPC   C2A44922  25.350  23.230  27.740
 1936DPPC   C3A44923  25.240  22.990  28.020
 1936DPPC   C4A44924  24.920  23.040  28.270
 1936DPPC   C1B44925  26.080  23.200  28.040
 1936DPPC   C2B44926  25.740  22.990  28.000
 1936DPPC   C3B44927  25.570  22.570  27.860
 1936DPPC   C4B44928  25.260  22.220  27.890
 1937DPPC   NC344929  13.970   1.900  32.330
 1937DPPC   PO444930  14.480   1.870  32.370
 1937DPPC   GL144931  14.590   1.420  32.520
 1937DPPC   GL244932  14.690   1.260  32.250
 1937DPPC   C1A44933  14.470   1.050  32.780
 1937DPPC   C2A44934  14.420   0.600  32.650
 1937DPPC   C3A44935  14.520   0.230  32.750
 1937DPPC   C4A44936  14.770  26.340  32.940
 1937DPPC   C1B44937  14.930   0.990  32.560
 1937DPPC   C2B44938  14.980   0.620  32.860
 1937DPPC   C3B44939  15.180   0.220  32.860
 1937DPPC   C4B44940  15.270   0.060  33.240
 1938DPPC   NC344941  23.040  22.350  29.440
 1938DPPC   PO444942  23.280  22.070  29.170
 1938DPPC   GL144943  23.700  22.190  29.380
 1938DPPC   GL244944  23.770  21.890  29.480
 1938DPPC   C1A44945  23.930  22.550  29.220
 1938DPPC   C2A44946  24.010  22.990  29.210
 1938DPPC   C3A44947  23.840  23.370  29.240
 1938DPPC   C4A44948  23.500  23.530  29.090
 1938DPPC   C1B44949  24.040  21.920  29.890
 1938DPPC   C2B44950  24.360  21.850  30.030
 1938DPPC   C3B44951  24.530  21.660  30.470
 1938DPPC   C4B44952  24.790  21.890  30.890
 1939DPPC   NC344953  28.225   8.700  30.920
 1939DPPC   PO444954  27.925   8.320  30.890
 1939DPPC   GL144955  28.155   8.020  30.650
 1939DPPC   GL244956  28.265   7.920  30.420
 1939DPPC   C1A44957  28.175   7.500  30.550
 1939DPPC   C2A44958  28.145   7.150  30.350
 1939DPPC   C3A44959  27.935   6.800  30.240
 1939DPPC   C4A44960  27.405   6.870  30.310
 1939DPPC   C1B44961  28.575   7.830  30.760
 1939DPPC   C2B44962  28.935   7.930  30.950
 1939DPPC   C3B44963  29.335   7.860  31.040
 1939DPPC   C4B44964  29.455   7.490  31.150
 1940DPPC   NC344965  21.330   7.650  42.640
 1940DPPC   PO444966  21.720   7.850  42.680
 1940DPPC   GL144967  21.680   7.980  42.220
 1940DPPC   GL244968  21.750   8.340  42.410
 1940DPPC   C1A44969  21.730   7.890  41.820
 1940DPPC   C2A44970  21.770   8.030  41.420
 1940DPPC   C3A44971  21.630   8.150  41.060
 1940DPPC   C4A44972  21.910   8.440  40.860
 1940DPPC   C1B44973  21.930   8.650  42.210
 1940DPPC   C2B44974  22.080   9.000  42.110
 1940DPPC   C3B44975  22.300   9.200  41.800
 1940DPPC   C4B44976  22.230   9.630  41.580
 1941DPPC   NC344977  12.270  13.850  23.640
 1941DPPC   PO444978  12.500  13.450  23.690
 1941DPPC   GL144979  12.830  13.700  23.790
 1941DPPC   GL244980  13.020  13.560  23.540
 1941DPPC   C1A44981  13.110  14.030  23.970
 1941DPPC   C2A44982  13.370  14.450  24.170
 1941DPPC   C3A44983  13.720  14.600  24.390
 1941DPPC   C4A44984  13.950  14.720  24.730
 1941DPPC   C1B44985  13.370  13.670  23.850
 1941DPPC   C2B44986  13.710  13.620  24.040
 1941DPPC   C3B44987  14.090  13.790  24.400
 1941DPPC   C4B44988  14.530  13.840  24.510
 1942DPPC   NC344989  22.270   3.720  31.730
 1942DPPC   PO444990  22.040   3.600  31.350
 1942DPPC   GL144991  22.230   4.020  31.240
 1942DPPC   GL244992  22.490   4.070  31.310
 1942DPPC   C1A44993  22.140   4.480  31.440
 1942DPPC   C2A44994  22.220   4.790  31.820
 1942DPPC   C3A44995  22.090   5.150  31.970
 1942DPPC   C4A44996  22.310   5.460  32.240
 1942DPPC   C1B44997  22.500   4.340  30.930
 1942DPPC   C2B44998  22.540   4.730  30.830
 1942DPPC   C3B44999  22.670   5.140  30.740
 1942DPPC   C4B45000  22.800   5.460  30.990
 1943DPPC   NC345001  22.850   8.460  31.390
 1943DPPC   PO445002  22.640   8.180  31.380
 1943DPPC   GL145003  22.330   7.830  31.580
 1943DPPC   GL245004  22.480   7.590  31.580
 1943DPPC   C1A45005  21.950   7.680  31.640
 1943DPPC   C2A45006  21.640   7.480  31.450
 1943DPPC   C3A45007  21.360   7.160  31.560
 1943DPPC   C4A45008  21.170   6.790  31.420
 1943DPPC   C1B45009  22.500   7.180  31.780
 1943DPPC   C2B45010  22.230   6.810  31.870
 1943DPPC   C3B45011  22.020   6.570  31.960
 1943DPPC   C4B45012  21.720   6.220  32.120
 1944DPPC   NC345013  28.575   8.690  30.560
 1944DPPC   PO445014  28.255   8.500  30.350
 1944DPPC   GL145015  28.675   8.370  30.210
 1944DPPC   GL245016  28.735   8.150  30.360
 1944DPPC   C1A45017  29.035   8.160  29.980
 1944DPPC   C2A45018  29.395   7.950  30.050
 1944DPPC   C3A45019  29.685   7.650  30.190
 1944DPPC   C4A45020  29.755   7.230  30.410
 1944DPPC   C1B45021  28.605   7.880  30.120
 1944DPPC   C2B45022  28.955   7.580  30.160
 1944DPPC   C3B45023  29.195   7.270  30.240
 1944DPPC   C4B45024  29.385   6.880  30.170
 1945DPPC   NC345025  18.660  17.770  42.940
 1945DPPC   PO445026  19.020  17.490  42.850
 1945DPPC   GL145027  18.960  17.130  43.070
 1945DPPC   GL245028  18.620  17.310  43.070
 1945DPPC   C1A45029  18.660  16.890  43.320
 1945DPPC   C2A45030  18.560  16.700  43.780
 1945DPPC   C3A45031  18.300  16.670  44.130
 1945DPPC   C4A45032  17.970  16.790  44.510
 1945DPPC   C1B45033  18.270  17.160  43.200
 1945DPPC   C2B45034  18.170  16.970  43.570
 1945DPPC   C3B45035  18.110  17.060  43.980
 1945DPPC   C4B45036  18.110  17.250  44.380
 1946DPPC   NC345037  15.910  17.680  45.010
 1946DPPC   PO445038  15.650  17.530  44.940
 1946DPPC   GL145039  15.650  17.380  44.520
 1946DPPC   GL245040  15.760  17.060  44.660
 1946DPPC   C1A45041  15.690  17.550  44.040
 1946DPPC   C2A45042  15.850  17.400  43.720
 1946DPPC   C3A45043  16.190  17.320  43.370
 1946DPPC   C4A45044  16.370  17.440  42.920
 1946DPPC   C1B45045  16.240  16.920  44.580
 1946DPPC   C2B45046  16.540  17.110  44.400
 1946DPPC   C3B45047  16.680  17.460  44.140
 1946DPPC   C4B45048  16.570  17.840  44.080
 1947DPPC   NC345049  14.920  22.100  36.930
 1947DPPC   PO445050  14.890  22.050  37.320
 1947DPPC   GL145051  14.700  22.310  37.530
 1947DPPC   GL245052  14.590  22.280  37.840
 1947DPPC   C1A45053  14.420  22.670  37.560
 1947DPPC   C2A45054  14.270  23.060  37.650
 1947DPPC   C3A45055  14.250  23.510  37.990
 1947DPPC   C4A45056  14.570  23.530  38.200
 1947DPPC   C1B45057  14.410  22.410  38.070
 1947DPPC   C2B45058  14.100  22.320  38.420
 1947DPPC   C3B45059  14.210  22.240  38.840
 1947DPPC   C4B45060  14.280  22.530  39.210
 1948DPPC   NC345061  22.730  23.670  20.210
 1948DPPC   PO445062  22.970  23.610  20.590
 1948DPPC   GL145063  22.640  23.330  20.630
 1948DPPC   GL245064  22.880  23.030  20.750
 1948DPPC   C1A45065  22.380  23.100  21.020
 1948DPPC   C2A45066  22.280  22.850  21.380
 1948DPPC   C3A45067  21.950  22.550  21.320
 1948DPPC   C4A45068  21.530  22.410  21.410
 1948DPPC   C1B45069  22.710  22.750  21.010
 1948DPPC   C2B45070  22.580  22.370  21.280
 1948DPPC   C3B45071  22.430  21.940  21.370
 1948DPPC   C4B45072  22.420  21.630  21.670
 1949DPPC   NC345073  29.835  11.530  31.350
 1949DPPC   PO445074  30.105  11.260  31.640
 1949DPPC   GL145075  30.545  11.390  31.600
 1949DPPC   GL245076  30.505  11.520  31.900
 1949DPPC   C1A45077  30.965  11.270  31.690
 1949DPPC   C2A45078  31.385  11.180  31.550
 1949DPPC   C3A45079  31.645  11.100  31.220
 1949DPPC   C4A45080  31.995  11.300  30.920
 1949DPPC   C1B45081  30.735  11.900  31.740
 1949DPPC   C2B45082  31.135  12.180  31.720
 1949DPPC   C3B45083  31.585  12.160  31.850
 1949DPPC   C4B45084  31.955  12.290  32.030
 1950DPPC   NC345085  19.060  18.020  47.430
 1950DPPC   PO445086  19.060  17.600  47.430
 1950DPPC   GL145087  19.090  17.650  47.050
 1950DPPC   GL245088  19.320  17.790  47.000
 1950DPPC   C1A45089  18.830  17.710  46.740
 1950DPPC   C2A45090  18.600  18.020  46.650
 1950DPPC   C3A45091  18.600  18.430  46.550
 1950DPPC   C4A45092  18.880  18.810  46.410
 1950DPPC   C1B45093  19.660  17.770  46.760
 1950DPPC   C2B45094  19.810  17.950  46.390
 1950DPPC   C3B45095  19.970  18.200  46.060
 1950DPPC   C4B45096  20.060  18.110  45.630
 1951DPPC   NC345097  33.585  12.310  34.290
 1951DPPC   PO445098  33.815  12.040  33.960
 1951DPPC   GL145099  33.345  12.020  33.910
 1951DPPC   GL245100  33.285  11.980  33.660
 1951DPPC   C1A45101  32.925  11.830  33.980
 1951DPPC   C2A45102  32.635  11.670  34.220
 1951DPPC   C3A45103  32.245  11.620  34.190
 1951DPPC   C4A45104  31.985  11.310  34.330
 1951DPPC   C1B45105  33.315  11.440  33.770
 1951DPPC   C2B45106  32.975  11.140  33.740
 1951DPPC   C3B45107  32.525  11.170  33.750
 1951DPPC   C4B45108  32.095  11.220  33.780
 1952DPPC   NC345109  23.890  10.070  24.890
 1952DPPC   PO445110  24.050   9.720  24.700
 1952DPPC   GL145111  24.070   9.300  24.750
 1952DPPC   GL245112  24.220   9.160  25.020
 1952DPPC   C1A45113  23.940   8.830  24.670
 1952DPPC   C2A45114  23.750   8.450  24.410
 1952DPPC   C3A45115  23.480   8.100  24.250
 1952DPPC   C4A45116  23.170   7.900  24.040
 1952DPPC   C1B45117  24.390   8.910  24.790
 1952DPPC   C2B45118  24.390   8.660  24.350
 1952DPPC   C3B45119  24.640   8.400  23.990
 1952DPPC   C4B45120  24.700   8.100  23.530
 1953DPPC   NC345121  17.660  13.780  18.910
 1953DPPC   PO445122  17.790  14.210  18.750
 1953DPPC   GL145123  17.970  14.200  19.040
 1953DPPC   GL245124  17.970  14.460  19.250
 1953DPPC   C1A45125  18.150  14.020  19.430
 1953DPPC   C2A45126  18.110  14.080  19.820
 1953DPPC   C3A45127  18.440  14.130  20.030
 1953DPPC   C4A45128  18.760  14.130  20.120
 1953DPPC   C1B45129  17.980  14.820  19.540
 1953DPPC   C2B45130  18.290  14.950  19.720
 1953DPPC   C3B45131  18.580  14.750  20.010
 1953DPPC   C4B45132  18.810  14.670  20.330
 1954DPPC   NC345133  28.605  15.880  45.210
 1954DPPC   PO445134  28.445  16.160  44.940
 1954DPPC   GL145135  27.985  16.010  44.800
 1954DPPC   GL245136  27.645  15.870  44.940
 1954DPPC   C1A45137  27.795  15.890  44.420
 1954DPPC   C2A45138  27.405  15.740  44.280
 1954DPPC   C3A45139  27.255  15.450  43.940
 1954DPPC   C4A45140  26.825  15.310  43.770
 1954DPPC   C1B45141  27.255  16.120  44.870
 1954DPPC   C2B45142  26.835  16.280  44.620
 1954DPPC   C3B45143  26.635  16.560  44.330
 1954DPPC   C4B45144  26.200  16.730  44.220
 1955DPPC   NC345145  27.785  16.000  27.720
 1955DPPC   PO445146  27.805  16.390  27.900
 1955DPPC   GL145147  27.905  16.770  27.780
 1955DPPC   GL245148  27.925  16.990  28.080
 1955DPPC   C1A45149  28.345  17.020  27.590
 1955DPPC   C2A45150  28.745  17.060  27.450
 1955DPPC   C3A45151  29.125  17.330  27.160
 1955DPPC   C4A45152  29.455  17.610  27.060
 1955DPPC   C1B45153  28.195  17.350  27.950
 1955DPPC   C2B45154  28.505  17.470  27.680
 1955DPPC   C3B45155  28.785  17.590  27.470
 1955DPPC   C4B45156  28.985  17.870  27.210
 1956DPPC   NC345157  31.675   7.540  38.890
 1956DPPC   PO445158  31.485   7.420  38.480
 1956DPPC   GL145159  31.005   7.610  38.420
 1956DPPC   GL245160  30.925   7.890  38.570
 1956DPPC   C1A45161  31.005   7.860  38.090
 1956DPPC   C2A45162  31.305   8.200  37.910
 1956DPPC   C3A45163  31.635   8.400  37.750
 1956DPPC   C4A45164  32.055   8.420  37.620
 1956DPPC   C1B45165  30.435   8.140  38.510
 1956DPPC   C2B45166  30.145   8.280  38.210
 1956DPPC   C3B45167  29.775   8.270  38.040
 1956DPPC   C4B45168  29.445   8.520  38.100
 1957DPPC   NC345169  22.980  12.520  21.940
 1957DPPC   PO445170  23.410  12.320  22.060
 1957DPPC   GL145171  23.580  12.160  21.610
 1957DPPC   GL245172  23.420  11.960  21.580
 1957DPPC   C1A45173  23.820  12.030  21.190
 1957DPPC   C2A45174  23.950  11.850  20.740
 1957DPPC   C3A45175  24.000  11.470  20.490
 1957DPPC   C4A45176  24.370  11.390  20.220
 1957DPPC   C1B45177  23.410  11.590  21.580
 1957DPPC   C2B45178  23.120  11.310  21.470
 1957DPPC   C3B45179  23.260  10.990  21.150
 1957DPPC   C4B45180  23.490  10.610  21.120
 1958DPPC   NC345181  21.500  16.290  43.520
 1958DPPC   PO445182  21.340  16.720  43.590
 1958DPPC   GL145183  21.150  16.680  43.990
 1958DPPC   GL245184  21.220  16.300  44.120
 1958DPPC   C1A45185  21.100  16.610  44.490
 1958DPPC   C2A45186  21.260  16.770  44.820
 1958DPPC   C3A45187  21.600  16.810  45.040
 1958DPPC   C4A45188  21.970  16.990  45.310
 1958DPPC   C1B45189  21.450  16.150  44.520
 1958DPPC   C2B45190  21.460  16.220  45.000
 1958DPPC   C3B45191  21.330  16.410  45.350
 1958DPPC   C4B45192  21.110  16.770  45.400
 1959DPPC   NC345193  24.300   9.760  39.410
 1959DPPC   PO445194  24.100  10.080  39.710
 1959DPPC   GL145195  24.080   9.920  40.090
 1959DPPC   GL245196  23.890  10.060  40.240
 1959DPPC   C1A45197  24.210   9.700  40.370
 1959DPPC   C2A45198  24.360   9.530  40.820
 1959DPPC   C3A45199  24.590   9.170  41.020
 1959DPPC   C4A45200  24.890   9.120  41.310
 1959DPPC   C1B45201  23.740   9.690  40.450
 1959DPPC   C2B45202  23.790   9.280  40.620
 1959DPPC   C3B45203  23.530   8.950  40.480
 1959DPPC   C4B45204  23.500   8.450  40.590
 1960DPPC   NC345205  15.020  17.820  25.030
 1960DPPC   PO445206  15.010  17.350  25.040
 1960DPPC   GL145207  14.840  17.310  24.670
 1960DPPC   GL245208  14.720  16.980  24.800
 1960DPPC   C1A45209  14.580  17.450  24.250
 1960DPPC   C2A45210  14.210  17.330  23.970
 1960DPPC   C3A45211  13.910  17.180  23.700
 1960DPPC   C4A45212  13.560  16.810  23.530
 1960DPPC   C1B45213  14.380  17.090  24.540
 1960DPPC   C2B45214  14.050  16.960  24.260
 1960DPPC   C3B45215  13.770  16.740  23.970
 1960DPPC   C4B45216  13.700  16.340  23.640
 1961DPPC   NC345217  13.240  10.190  26.780
 1961DPPC   PO445218  13.250  10.530  26.920
 1961DPPC   GL145219  13.400  10.970  26.910
 1961DPPC   GL245220  13.380  11.040  27.220
 1961DPPC   C1A45221  13.860  11.140  26.910
 1961DPPC   C2A45222  14.290  11.060  26.890
 1961DPPC   C3A45223  14.740  11.120  26.880
 1961DPPC   C4A45224  15.070  11.270  26.620
 1961DPPC   C1B45225  13.510  11.460  27.190
 1961DPPC   C2B45226  13.830  11.750  27.260
 1961DPPC   C3B45227  14.150  11.950  27.420
 1961DPPC   C4B45228  14.530  12.250  27.430
 1962DPPC   NC345229  22.600  11.050  45.840
 1962DPPC   PO445230  22.540  11.520  46.020
 1962DPPC   GL145231  22.860  11.770  45.730
 1962DPPC   GL245232  22.870  12.060  45.950
 1962DPPC   C1A45233  23.200  11.980  45.630
 1962DPPC   C2A45234  23.190  11.930  45.170
 1962DPPC   C3A45235  23.510  12.090  44.860
 1962DPPC   C4A45236  23.900  12.060  44.690
 1962DPPC   C1B45237  22.750  12.230  45.560
 1962DPPC   C2B45238  22.790  12.290  45.100
 1962DPPC   C3B45239  23.060  12.460  44.880
 1962DPPC   C4B45240  23.080  12.770  44.500
 1963DPPC   NC345241  17.420   6.880  25.570
 1963DPPC   PO445242  17.790   6.660  25.270
 1963DPPC   GL145243  18.130   6.940  25.290
 1963DPPC   GL245244  18.280   6.670  25.450
 1963DPPC   C1A45245  18.470   7.240  25.400
 1963DPPC   C2A45246  18.690   7.610  25.620
 1963DPPC   C3A45247  18.950   7.880  25.850
 1963DPPC   C4A45248  19.250   8.120  25.850
 1963DPPC   C1B45249  18.360   6.970  25.840
 1963DPPC   C2B45250  18.560   7.350  26.090
 1963DPPC   C3B45251  18.810   7.700  26.310
 1963DPPC   C4B45252  19.110   8.140  26.380
 1964DPPC   NC345253  23.580  25.490  42.220
 1964DPPC   PO445254  23.580  25.450  41.760
 1964DPPC   GL145255  23.450  25.030  41.470
 1964DPPC   GL245256  23.450  25.120  41.090
 1964DPPC   C1A45257  23.160  24.690  41.340
 1964DPPC   C2A45258  22.850  24.320  41.260
 1964DPPC   C3A45259  22.570  24.160  40.940
 1964DPPC   C4A45260  22.200  24.130  40.830
 1964DPPC   C1B45261  23.790  24.850  41.180
 1964DPPC   C2B45262  23.730  24.510  41.230
 1964DPPC   C3B45263  23.380  24.230  41.230
 1964DPPC   C4B45264  23.110  24.180  40.840
 1965DPPC   NC345265  21.940   1.940  35.750
 1965DPPC   PO445266  21.610   2.010  35.410
 1965DPPC   GL145267  21.380   1.570  35.520
 1965DPPC   GL245268  21.380   1.410  35.830
 1965DPPC   C1A45269  21.380   1.200  35.280
 1965DPPC   C2A45270  21.510   0.800  35.220
 1965DPPC   C3A45271  21.170   0.720  34.980
 1965DPPC   C4A45272  21.050   0.670  34.540
 1965DPPC   C1B45273  21.120   1.020  35.840
 1965DPPC   C2B45274  20.920   0.690  35.680
 1965DPPC   C3B45275  20.800   0.250  35.550
 1965DPPC   C4B45276  20.900   0.100  35.160
 1966DPPC   NC345277  25.900  20.170  37.820
 1966DPPC   PO445278  26.040  20.440  38.150
 1966DPPC   GL145279  26.445  20.580  38.010
 1966DPPC   GL245280  26.370  20.550  37.760
 1966DPPC   C1A45281  26.755  20.770  37.930
 1966DPPC   C2A45282  26.955  21.230  37.820
 1966DPPC   C3A45283  27.035  21.330  37.420
 1966DPPC   C4A45284  27.095  21.630  37.100
 1966DPPC   C1B45285  26.340  20.930  37.630
 1966DPPC   C2B45286  26.380  21.310  37.810
 1966DPPC   C3B45287  26.625  21.600  37.980
 1966DPPC   C4B45288  26.845  21.940  38.230
 1967DPPC   NC345289  21.420   4.460  36.860
 1967DPPC   PO445290  21.550   4.180  36.540
 1967DPPC   GL145291  21.660   4.450  36.390
 1967DPPC   GL245292  21.640   4.670  36.120
 1967DPPC   C1A45293  22.040   4.800  36.460
 1967DPPC   C2A45294  22.390   4.840  36.190
 1967DPPC   C3A45295  22.780   4.740  36.210
 1967DPPC   C4A45296  23.120   4.920  36.500
 1967DPPC   C1B45297  22.030   4.880  35.840
 1967DPPC   C2B45298  22.290   5.230  35.770
 1967DPPC   C3B45299  22.290   5.600  35.490
 1967DPPC   C4B45300  22.660   5.840  35.260
 1968DPPC   NC345301  10.320  24.470  28.150
 1968DPPC   PO445302  10.490  24.400  27.790
 1968DPPC   GL145303  10.870  24.580  27.610
 1968DPPC   GL245304  10.970  24.210  27.650
 1968DPPC   C1A45305  11.300  24.580  27.710
 1968DPPC   C2A45306  11.600  24.800  27.800
 1968DPPC   C3A45307  12.010  24.520  27.820
 1968DPPC   C4A45308  12.090  24.140  27.620
 1968DPPC   C1B45309  10.910  23.790  27.880
 1968DPPC   C2B45310  10.970  23.460  28.220
 1968DPPC   C3B45311  11.260  23.250  28.610
 1968DPPC   C4B45312  11.670  23.180  28.720
 1969DPPC   NC345313  18.090  18.020  21.880
 1969DPPC   PO445314  18.390  18.280  21.630
 1969DPPC   GL145315  18.360  18.260  21.130
 1969DPPC   GL245316  18.080  18.480  21.060
 1969DPPC   C1A45317  18.240  18.210  20.700
 1969DPPC   C2A45318  18.240  17.990  20.300
 1969DPPC   C3A45319  18.200  18.180  19.870
 1969DPPC   C4A45320  17.780  18.430  19.750
 1969DPPC   C1B45321  17.840  18.730  20.780
 1969DPPC   C2B45322  17.630  18.760  20.400
 1969DPPC   C3B45323  17.370  18.370  20.360
 1969DPPC   C4B45324  17.250  18.140  20.710
 1970DPPC   NC345325  29.345  22.450  40.570
 1970DPPC   PO445326  29.175  22.100  40.870
 1970DPPC   GL145327  28.835  21.860  40.930
 1970DPPC   GL245328  28.855  21.710  40.590
 1970DPPC   C1A45329  28.435  21.640  40.970
 1970DPPC   C2A45330  28.005  21.510  40.980
 1970DPPC   C3A45331  27.555  21.600  40.860
 1970DPPC   C4A45332  27.195  21.870  41.030
 1970DPPC   C1B45333  28.535  21.420  40.380
 1970DPPC   C2B45334  28.155  21.380  40.480
 1970DPPC   C3B45335  27.825  21.310  40.460
 1970DPPC   C4B45336  27.465  21.540  40.320
 1971DPPC   NC345337  30.265   7.620  24.510
 1971DPPC   PO445338  29.965   7.850  24.150
 1971DPPC   GL145339  29.605   7.950  24.220
 1971DPPC   GL245340  29.335   7.710  24.210
 1971DPPC   C1A45341  29.335   8.240  24.100
 1971DPPC   C2A45342  28.985   8.540  24.150
 1971DPPC   C3A45343  28.635   8.790  24.350
 1971DPPC   C4A45344  28.445   9.160  24.460
 1971DPPC   C1B45345  29.355   7.740  24.660
 1971DPPC   C2B45346  29.175   7.860  25.020
 1971DPPC   C3B45347  28.945   8.170  25.000
 1971DPPC   C4B45348  28.685   8.550  25.060
 1972DPPC   NC345349  10.680  25.410  28.440
 1972DPPC   PO445350  11.010  25.600  28.540
 1972DPPC   GL145351  11.290  25.360  28.750
 1972DPPC   GL245352  11.520  25.490  28.600
 1972DPPC   C1A45353  11.390  24.980  28.800
 1972DPPC   C2A45354  11.750  24.740  28.700
 1972DPPC   C3A45355  12.050  24.520  28.940
 1972DPPC   C4A45356  12.530  24.350  29.110
 1972DPPC   C1B45357  11.780  25.280  28.960
 1972DPPC   C2B45358  12.120  24.970  29.050
 1972DPPC   C3B45359  12.540  24.850  29.220
 1972DPPC   C4B45360  12.920  24.800  29.280
 1973DPPC   NC345361  26.535  17.520  46.730
 1973DPPC   PO445362  26.260  17.720  46.480
 1973DPPC   GL145363  26.100  17.580  46.180
 1973DPPC   GL245364  25.790  17.550  46.190
 1973DPPC   C1A45365  26.240  17.220  45.950
 1973DPPC   C2A45366  26.495  16.930  45.610
 1973DPPC   C3A45367  26.555  16.790  45.180
 1973DPPC   C4A45368  26.765  16.760  44.840
 1973DPPC   C1B45369  25.640  17.400  45.800
 1973DPPC   C2B45370  25.760  17.450  45.370
 1973DPPC   C3B45371  25.690  17.280  44.930
 1973DPPC   C4B45372  25.900  17.020  44.590
 1974DPPC   NC345373  31.265  16.950  40.940
 1974DPPC   PO445374  31.505  16.840  40.650
 1974DPPC   GL145375  31.125  16.760  40.500
 1974DPPC   GL245376  30.815  16.740  40.730
 1974DPPC   C1A45377  30.735  16.690  40.230
 1974DPPC   C2A45378  30.455  16.760  39.990
 1974DPPC   C3A45379  30.365  16.900  39.620
 1974DPPC   C4A45380  30.025  17.010  39.350
 1974DPPC   C1B45381  30.835  16.310  40.770
 1974DPPC   C2B45382  30.925  16.020  40.500
 1974DPPC   C3B45383  31.015  16.290  40.190
 1974DPPC   C4B45384  31.215  16.610  40.030
 1975DPPC   NC345385  28.765  12.310  29.140
 1975DPPC   PO445386  29.075  12.530  29.060
 1975DPPC   GL145387  29.455  12.690  29.020
 1975DPPC   GL245388  29.585  12.790  29.330
 1975DPPC   C1A45389  29.875  12.810  28.740
 1975DPPC   C2A45390  30.205  13.070  28.890
 1975DPPC   C3A45391  30.485  13.360  28.690
 1975DPPC   C4A45392  30.765  13.630  28.480
 1975DPPC   C1B45393  29.985  12.930  29.350
 1975DPPC   C2B45394  30.235  12.930  29.600
 1975DPPC   C3B45395  30.715  12.950  29.730
 1975DPPC   C4B45396  30.955  12.900  30.000
 1976DPPC   NC345397  21.030  24.290  20.850
 1976DPPC   PO445398  20.630  24.580  20.800
 1976DPPC   GL145399  20.510  24.160  21.080
 1976DPPC   GL245400  20.740  24.020  21.190
 1976DPPC   C1A45401  20.320  23.920  21.480
 1976DPPC   C2A45402  20.180  23.650  21.710
 1976DPPC   C3A45403  20.020  23.460  22.110
 1976DPPC   C4A45404  19.840  23.400  22.400
 1976DPPC   C1B45405  21.070  23.720  21.510
 1976DPPC   C2B45406  21.240  23.630  21.840
 1976DPPC   C3B45407  21.410  23.520  22.250
 1976DPPC   C4B45408  21.690  23.260  22.320
 1977DPPC   NC345409  27.315  23.940  33.780
 1977DPPC   PO445410  27.085  24.300  33.930
 1977DPPC   GL145411  26.675  24.080  33.900
 1977DPPC   GL245412  26.545  23.870  34.160
 1977DPPC   C1A45413  26.475  23.870  33.590
 1977DPPC   C2A45414  26.440  23.490  33.710
 1977DPPC   C3A45415  26.455  23.050  33.720
 1977DPPC   C4A45416  26.725  22.750  33.720
 1977DPPC   C1B45417  26.340  23.500  34.400
 1977DPPC   C2B45418  26.200  23.380  34.820
 1977DPPC   C3B45419  25.760  23.290  34.750
 1977DPPC   C4B45420  25.680  22.960  34.440
 1978DPPC   NC345421  17.940  22.550  18.270
 1978DPPC   PO445422  17.870  22.090  18.420
 1978DPPC   GL145423  17.610  21.880  18.630
 1978DPPC   GL245424  17.730  21.880  18.920
 1978DPPC   C1A45425  17.270  21.740  18.770
 1978DPPC   C2A45426  17.360  21.400  19.120
 1978DPPC   C3A45427  17.600  21.270  19.380
 1978DPPC   C4A45428  17.680  21.160  19.760
 1978DPPC   C1B45429  17.900  21.460  19.030
 1978DPPC   C2B45430  18.100  21.230  19.340
 1978DPPC   C3B45431  18.150  21.020  19.750
 1978DPPC   C4B45432  17.910  20.690  19.940
 1979DPPC   NC345433  25.970   7.920  32.490
 1979DPPC   PO445434  26.030   7.510  32.360
 1979DPPC   GL145435  26.290   7.150  32.520
 1979DPPC   GL245436  26.140   6.860  32.380
 1979DPPC   C1A45437  26.645   6.850  32.520
 1979DPPC   C2A45438  26.845   6.500  32.340
 1979DPPC   C3A45439  26.825   6.120  32.600
 1979DPPC   C4A45440  27.055   5.870  32.690
 1979DPPC   C1B45441  25.870   6.550  32.630
 1979DPPC   C2B45442  25.500   6.320  32.620
 1979DPPC   C3B45443  25.520   5.880  32.550
 1979DPPC   C4B45444  25.530   5.620  32.170
 1980DPPC   NC345445  13.200  18.650  29.810
 1980DPPC   PO445446  13.040  18.410  30.190
 1980DPPC   GL145447  12.960  18.860  30.480
 1980DPPC   GL245448  12.880  19.070  30.220
 1980DPPC   C1A45449  12.560  19.160  30.550
 1980DPPC   C2A45450  12.070  19.260  30.420
 1980DPPC   C3A45451  11.570  19.240  30.540
 1980DPPC   C4A45452  11.090  19.310  30.430
 1980DPPC   C1B45453  12.580  18.930  30.090
 1980DPPC   C2B45454  12.200  18.900  29.950
 1980DPPC   C3B45455  11.720  19.150  29.850
 1980DPPC   C4B45456  11.180  19.200  29.860
 1981DPPC   NC345457  12.050  12.690  27.620
 1981DPPC   PO445458  12.030  12.670  28.040
 1981DPPC   GL145459  12.320  13.000  28.150
 1981DPPC   GL245460  12.360  13.100  27.830
 1981DPPC   C1A45461  12.760  13.080  28.050
 1981DPPC   C2A45462  13.130  13.270  28.140
 1981DPPC   C3A45463  13.590  13.300  28.220
 1981DPPC   C4A45464  14.060  13.210  28.140
 1981DPPC   C1B45465  12.470  13.500  28.020
 1981DPPC   C2B45466  12.850  13.700  28.230
 1981DPPC   C3B45467  13.260  13.710  28.440
 1981DPPC   C4B45468  13.570  13.530  28.860
 1982DPPC   NC345469  26.825  18.590  39.670
 1982DPPC   PO445470  26.615  18.820  39.230
 1982DPPC   GL145471  26.865  19.060  39.360
 1982DPPC   GL245472  27.095  18.840  39.350
 1982DPPC   C1A45473  27.295  19.270  39.260
 1982DPPC   C2A45474  27.715  19.440  39.230
 1982DPPC   C3A45475  28.105  19.590  39.490
 1982DPPC   C4A45476  28.465  19.870  39.760
 1982DPPC   C1B45477  27.155  19.170  39.730
 1982DPPC   C2B45478  27.245  19.570  39.800
 1982DPPC   C3B45479  27.575  19.800  39.560
 1982DPPC   C4B45480  27.545  20.260  39.600
 1983DPPC   NC345481  15.980  19.190  40.020
 1983DPPC   PO445482  15.900  19.610  39.860
 1983DPPC   GL145483  15.490  19.660  39.930
 1983DPPC   GL245484  15.390  20.000  39.770
 1983DPPC   C1A45485  15.000  19.670  39.960
 1983DPPC   C2A45486  14.910  20.020  39.670
 1983DPPC   C3A45487  14.820  20.500  39.540
 1983DPPC   C4A45488  14.460  20.550  39.290
 1983DPPC   C1B45489  15.250  20.010  40.200
 1983DPPC   C2B45490  15.110  20.120  40.600
 1983DPPC   C3B45491  14.800  20.030  40.920
 1983DPPC   C4B45492  14.430  19.830  41.280
 1984DPPC   NC345493  26.110  15.050  46.990
 1984DPPC   PO445494  26.020  15.450  46.720
 1984DPPC   GL145495  26.040  15.510  46.310
 1984DPPC   GL245496  26.420  15.610  46.340
 1984DPPC   C1A45497  25.970  15.150  46.130
 1984DPPC   C2A45498  26.320  14.980  46.050
 1984DPPC   C3A45499  26.485  14.660  45.780
 1984DPPC   C4A45500  26.805  14.560  45.540
 1984DPPC   C1B45501  26.200  15.870  46.030
 1984DPPC   C2B45502  25.910  15.840  45.620
 1984DPPC   C3B45503  25.650  15.860  45.200
 1984DPPC   C4B45504  25.610  15.880  44.750
 1985DPPC   NC345505  14.550  15.680  31.690
 1985DPPC   PO445506  14.570  15.250  31.780
 1985DPPC   GL145507  14.120  15.260  32.010
 1985DPPC   GL245508  13.980  15.470  32.240
 1985DPPC   C1A45509  13.840  14.990  32.230
 1985DPPC   C2A45510  13.530  15.000  32.450
 1985DPPC   C3A45511  13.230  14.680  32.540
 1985DPPC   C4A45512  13.160  14.370  32.650
 1985DPPC   C1B45513  13.570  15.410  32.150
 1985DPPC   C2B45514  13.090  15.160  32.270
 1985DPPC   C3B45515  12.640  14.990  32.460
 1985DPPC   C4B45516  12.230  14.830  32.490
 1986DPPC   NC345517  25.310  21.840  20.240
 1986DPPC   PO445518  25.340  21.970  20.660
 1986DPPC   GL145519  25.190  21.630  20.970
 1986DPPC   GL245520  24.810  21.800  21.010
 1986DPPC   C1A45521  25.240  21.320  21.260
 1986DPPC   C2A45522  25.260  21.050  21.540
 1986DPPC   C3A45523  25.250  20.950  21.950
 1986DPPC   C4A45524  25.350  20.660  22.240
 1986DPPC   C1B45525  24.860  21.280  20.970
 1986DPPC   C2B45526  24.940  20.890  21.200
 1986DPPC   C3B45527  24.960  20.680  21.630
 1986DPPC   C4B45528  24.790  20.810  22.000
 1987DPPC   NC345529  28.375  16.730  33.310
 1987DPPC   PO445530  27.995  16.620  33.300
 1987DPPC   GL145531  28.065  17.050  33.160
 1987DPPC   GL245532  28.375  17.110  32.980
 1987DPPC   C1A45533  28.255  17.520  33.150
 1987DPPC   C2A45534  28.635  17.870  33.160
 1987DPPC   C3A45535  29.085  18.150  33.230
 1987DPPC   C4A45536  29.505  18.140  33.300
 1987DPPC   C1B45537  28.635  17.480  32.860
 1987DPPC   C2B45538  29.075  17.690  33.010
 1987DPPC   C3B45539  29.475  17.730  32.860
 1987DPPC   C4B45540  29.615  17.820  32.540
 1988DPPC   NC345541  14.930  23.740  31.060
 1988DPPC   PO445542  14.730  23.470  31.320
 1988DPPC   GL145543  14.500  23.920  31.250
 1988DPPC   GL245544  14.600  24.070  30.900
 1988DPPC   C1A45545  14.320  24.240  31.380
 1988DPPC   C2A45546  14.150  24.610  31.600
 1988DPPC   C3A45547  14.120  24.930  31.770
 1988DPPC   C4A45548  14.490  25.100  31.970
 1988DPPC   C1B45549  14.350  24.410  30.880
 1988DPPC   C2B45550  14.050  24.690  30.740
 1988DPPC   C3B45551  13.710  24.900  30.850
 1988DPPC   C4B45552  13.330  24.870  30.680
 1989DPPC   NC345553  30.365  20.380  32.560
 1989DPPC   PO445554  29.985  20.190  32.210
 1989DPPC   GL145555  29.635  20.070  32.380
 1989DPPC   GL245556  29.295  20.190  32.240
 1989DPPC   C1A45557  29.495  19.820  32.610
 1989DPPC   C2A45558  29.145  19.430  32.730
 1989DPPC   C3A45559  29.175  19.050  32.500
 1989DPPC   C4A45560  28.975  18.650  32.510
 1989DPPC   C1B45561  28.985  19.930  32.450
 1989DPPC   C2B45562  28.675  19.800  32.750
 1989DPPC   C3B45563  28.575  19.790  33.150
 1989DPPC   C4B45564  28.685  19.740  33.530
 1990DPPC   NC345565  22.670  21.230  30.610
 1990DPPC   PO445566  22.880  21.540  30.450
 1990DPPC   GL145567  23.200  21.280  30.610
 1990DPPC   GL245568  23.160  21.060  30.380
 1990DPPC   C1A45569  23.700  21.430  30.620
 1990DPPC   C2A45570  24.090  21.540  30.890
 1990DPPC   C3A45571  24.510  21.460  30.940
 1990DPPC   C4A45572  24.950  21.340  30.720
 1990DPPC   C1B45573  23.560  20.950  30.590
 1990DPPC   C2B45574  23.740  20.520  30.680
 1990DPPC   C3B45575  24.150  20.300  30.790
 1990DPPC   C4B45576  24.510  20.180  30.990
 1991DPPC   NC345577  28.595   4.950  27.800
 1991DPPC   PO445578  28.825   4.640  28.130
 1991DPPC   GL145579  28.545   4.800  28.430
 1991DPPC   GL245580  28.535   5.100  28.700
 1991DPPC   C1A45581  28.095   5.080  28.360
 1991DPPC   C2A45582  27.855   5.470  28.550
 1991DPPC   C3A45583  28.015   5.890  28.790
 1991DPPC   C4A45584  28.245   6.170  28.750
 1991DPPC   C1B45585  28.515   5.500  28.560
 1991DPPC   C2B45586  28.725   5.790  28.640
 1991DPPC   C3B45587  28.845   6.180  28.500
 1991DPPC   C4B45588  29.035   6.630  28.370
 1992DPPC   NC345589  20.220  20.450  22.670
 1992DPPC   PO445590  20.470  20.630  22.960
 1992DPPC   GL145591  20.640  21.040  22.950
 1992DPPC   GL245592  20.490  21.250  22.710
 1992DPPC   C1A45593  20.990  21.450  22.930
 1992DPPC   C2A45594  20.850  21.850  22.620
 1992DPPC   C3A45595  20.820  22.220  22.410
 1992DPPC   C4A45596  20.690  22.450  22.030
 1992DPPC   C1B45597  20.890  21.420  22.390
 1992DPPC   C2B45598  21.170  21.820  22.250
 1992DPPC   C3B45599  21.090  22.080  21.860
 1992DPPC   C4B45600  21.090  21.970  21.430
 1993DPPC   NC345601  15.600   8.010  37.480
 1993DPPC   PO445602  15.460   8.240  37.200
 1993DPPC   GL145603  15.590   8.660  37.120
 1993DPPC   GL245604  15.270   8.740  37.100
 1993DPPC   C1A45605  16.030   8.900  37.220
 1993DPPC   C2A45606  16.290   9.140  37.000
 1993DPPC   C3A45607  16.370   9.170  36.610
 1993DPPC   C4A45608  16.200   9.270  36.300
 1993DPPC   C1B45609  15.440   9.210  37.170
 1993DPPC   C2B45610  15.630   9.590  37.030
 1993DPPC   C3B45611  15.570   9.780  36.630
 1993DPPC   C4B45612  15.680  10.180  36.480
 1994DPPC   NC345613  27.385   5.710  23.830
 1994DPPC   PO445614  27.015   5.980  23.620
 1994DPPC   GL145615  26.905   6.370  23.720
 1994DPPC   GL245616  26.995   6.630  23.510
 1994DPPC   C1A45617  26.525   6.610  23.700
 1994DPPC   C2A45618  26.160   6.810  23.680
 1994DPPC   C3A45619  26.100   7.170  23.790
 1994DPPC   C4A45620  25.930   7.380  24.190
 1994DPPC   C1B45621  27.085   7.030  23.710
 1994DPPC   C2B45622  27.045   7.390  23.760
 1994DPPC   C3B45623  27.155   7.720  23.460
 1994DPPC   C4B45624  27.485   8.060  23.520
 1995DPPC   NC345625  17.700   6.740  37.940
 1995DPPC   PO445626  18.110   6.470  37.860
 1995DPPC   GL145627  18.240   6.890  37.630
 1995DPPC   GL245628  18.530   6.900  37.370
 1995DPPC   C1A45629  18.310   7.250  37.620
 1995DPPC   C2A45630  18.060   7.530  37.510
 1995DPPC   C3A45631  17.890   7.940  37.640
 1995DPPC   C4A45632  17.440   8.110  37.480
 1995DPPC   C1B45633  18.910   6.620  37.220
 1995DPPC   C2B45634  19.100   6.700  36.850
 1995DPPC   C3B45635  19.390   6.890  36.690
 1995DPPC   C4B45636  19.540   7.320  36.570
 1996DPPC   NC345637  16.470  20.120  46.220
 1996DPPC   PO445638  16.460  20.230  45.820
 1996DPPC   GL145639  16.660  19.970  45.520
 1996DPPC   GL245640  16.770  20.110  45.380
 1996DPPC   C1A45641  16.780  19.560  45.630
 1996DPPC   C2A45642  16.740  19.100  45.700
 1996DPPC   C3A45643  17.030  18.900  45.640
 1996DPPC   C4A45644  17.390  18.860  45.510
 1996DPPC   C1B45645  17.160  19.830  45.370
 1996DPPC   C2B45646  17.300  19.590  45.060
 1996DPPC   C3B45647  17.590  19.480  44.630
 1996DPPC   C4B45648  17.730  19.330  44.240
 1997DPPC   NC345649  32.795   6.770  34.130
 1997DPPC   PO445650  32.425   7.060  34.170
 1997DPPC   GL145651  32.325   7.470  33.940
 1997DPPC   GL245652  32.555   7.650  33.770
 1997DPPC   C1A45653  32.075   7.680  33.760
 1997DPPC   C2A45654  31.725   7.990  33.850
 1997DPPC   C3A45655  31.605   8.220  34.140
 1997DPPC   C4A45656  31.445   8.280  34.550
 1997DPPC   C1B45657  32.445   7.910  34.160
 1997DPPC   C2B45658  32.095   8.010  34.420
 1997DPPC   C3B45659  31.775   7.940  34.830
 1997DPPC   C4B45660  31.415   8.050  35.040
 1998DPPC   NC345661  26.595  16.770  19.010
 1998DPPC   PO445662  26.455  17.070  18.750
 1998DPPC   GL145663  26.160  16.980  19.170
 1998DPPC   GL245664  26.210  16.680  19.380
 1998DPPC   C1A45665  25.950  17.140  19.460
 1998DPPC   C2A45666  25.670  17.460  19.490
 1998DPPC   C3A45667  25.340  17.830  19.670
 1998DPPC   C4A45668  24.960  17.890  20.000
 1998DPPC   C1B45669  25.980  16.670  19.790
 1998DPPC   C2B45670  26.050  16.370  20.180
 1998DPPC   C3B45671  26.050  15.960  20.420
 1998DPPC   C4B45672  26.170  16.070  20.860
 1999DPPC   NC345673  22.030  22.020  27.440
 1999DPPC   PO445674  22.450  22.050  27.660
 1999DPPC   GL145675  22.590  22.370  27.380
 1999DPPC   GL245676  22.790  22.470  27.640
 1999DPPC   C1A45677  22.720  22.800  27.320
 1999DPPC   C2A45678  22.930  23.040  27.260
 1999DPPC   C3A45679  23.150  23.390  27.050
 1999DPPC   C4A45680  23.560  23.570  27.030
 1999DPPC   C1B45681  23.200  22.640  27.510
 1999DPPC   C2B45682  23.480  23.010  27.420
 1999DPPC   C3B45683  23.800  23.380  27.510
 1999DPPC   C4B45684  23.980  23.830  27.370
 2000DPPC   NC345685  29.805  21.280  36.660
 2000DPPC   PO445686  30.245  21.090  36.950
 2000DPPC   GL145687  29.845  20.980  37.090
 2000DPPC   GL245688  29.905  20.600  37.130
 2000DPPC   C1A45689  29.385  20.990  37.050
 2000DPPC   C2A45690  29.105  21.270  36.990
 2000DPPC   C3A45691  28.675  21.410  36.940
 2000DPPC   C4A45692  28.335  21.380  36.670
 2000DPPC   C1B45693  29.665  20.280  37.290
 2000DPPC   C2B45694  29.315  20.090  37.370
 2000DPPC   C3B45695  28.945  19.930  37.400
 2000DPPC   C4B45696  28.695  19.450  37.550
 2001DPPC   NC345697  23.210  22.510  32.900
 2001DPPC   PO445698  23.180  22.180  33.190
 2001DPPC   GL145699  23.640  22.470  33.210
 2001DPPC   GL245700  23.600  22.750  33.080
 2001DPPC   C1A45701  23.930  22.610  33.450
 2001DPPC   C2A45702  24.140  22.930  33.580
 2001DPPC   C3A45703  24.370  23.430  33.480
 2001DPPC   C4A45704  24.350  23.870  33.540
 2001DPPC   C1B45705  23.940  22.930  32.910
 2001DPPC   C2B45706  24.280  23.160  32.660
 2001DPPC   C3B45707  24.730  23.320  32.620
 2001DPPC   C4B45708  24.820  23.720  32.730
 2002DPPC   NC345709  11.340  26.210  31.530
 2002DPPC   PO445710  11.550  26.220  31.060
 2002DPPC   GL145711  11.830  25.950  30.940
 2002DPPC   GL245712  11.850  25.820  30.610
 2002DPPC   C1A45713  12.010  25.530  31.140
 2002DPPC   C2A45714  11.990  25.210  31.440
 2002DPPC   C3A45715  12.120  24.890  31.840
 2002DPPC   C4A45716  12.350  24.780  32.240
 2002DPPC   C1B45717  11.990  25.410  30.590
 2002DPPC   C2B45718  11.960  25.110  30.890
 2002DPPC   C3B45719  12.320  24.970  31.110
 2002DPPC   C4B45720  12.610  24.650  31.390
 2003DPPC   NC345721  32.035   5.660  33.200
 2003DPPC   PO445722  31.955   6.130  33.120
 2003DPPC   GL145723  31.675   6.510  33.180
 2003DPPC   GL245724  31.445   6.440  33.210
 2003DPPC   C1A45725  31.535   6.940  33.110
 2003DPPC   C2A45726  31.225   7.160  32.870
 2003DPPC   C3A45727  30.995   7.190  32.520
 2003DPPC   C4A45728  30.735   7.390  32.160
 2003DPPC   C1B45729  31.225   6.590  32.820
 2003DPPC   C2B45730  30.955   6.770  32.700
 2003DPPC   C3B45731  30.645   6.980  32.860
 2003DPPC   C4B45732  30.315   7.260  32.980
 2004DPPC   NC345733  27.075   5.150  40.050
 2004DPPC   PO445734  27.255   5.220  39.630
 2004DPPC   GL145735  27.075   5.630  39.480
 2004DPPC   GL245736  26.765   5.540  39.300
 2004DPPC   C1A45737  26.965   6.010  39.430
 2004DPPC   C2A45738  26.795   6.300  39.370
 2004DPPC   C3A45739  26.605   6.420  39.030
 2004DPPC   C4A45740  26.330   6.790  38.880
 2004DPPC   C1B45741  26.925   5.280  39.000
 2004DPPC   C2B45742  27.095   5.270  38.620
 2004DPPC   C3B45743  27.015   5.130  38.160
 2004DPPC   C4B45744  27.065   4.900  37.740
 2005DPPC   NC345745  23.600  13.170  22.190
 2005DPPC   PO445746  23.700  13.170  21.790
 2005DPPC   GL145747  23.730  12.940  21.500
 2005DPPC   GL245748  24.090  12.880  21.560
 2005DPPC   C1A45749  23.810  12.900  21.040
 2005DPPC   C2A45750  23.940  13.050  20.660
 2005DPPC   C3A45751  24.030  13.030  20.230
 2005DPPC   C4A45752  24.180  12.660  19.970
 2005DPPC   C1B45753  24.350  12.800  21.210
 2005DPPC   C2B45754  24.360  12.840  20.870
 2005DPPC   C3B45755  24.520  12.970  20.620
 2005DPPC   C4B45756  24.590  12.850  20.260
 2006DPPC   NC345757  12.000  22.110  22.280
 2006DPPC   PO445758  11.790  21.620  22.330
 2006DPPC   GL145759  12.150  21.750  22.630
 2006DPPC   GL245760  12.370  21.900  22.470
 2006DPPC   C1A45761  12.540  21.760  22.870
 2006DPPC   C2A45762  12.920  22.000  22.990
 2006DPPC   C3A45763  12.960  22.250  23.450
 2006DPPC   C4A45764  13.000  22.560  23.730
 2006DPPC   C1B45765  12.760  21.800  22.400
 2006DPPC   C2B45766  12.880  21.420  22.220
 2006DPPC   C3B45767  13.190  21.180  22.070
 2006DPPC   C4B45768  13.590  20.850  21.920
 2007DPPC   NC345769  28.085   3.370  34.280
 2007DPPC   PO445770  27.685   3.600  34.180
 2007DPPC   GL145771  27.745   4.130  33.990
 2007DPPC   GL245772  27.665   4.380  34.260
 2007DPPC   C1A45773  27.465   4.460  33.760
 2007DPPC   C2A45774  27.315   4.840  33.690
 2007DPPC   C3A45775  27.435   5.230  33.760
 2007DPPC   C4A45776  27.345   5.670  33.900
 2007DPPC   C1B45777  27.435   4.850  34.130
 2007DPPC   C2B45778  27.345   5.250  34.250
 2007DPPC   C3B45779  27.405   5.640  34.390
 2007DPPC   C4B45780  27.305   6.070  34.510
 2008DPPC   NC345781  26.615  16.090  18.560
 2008DPPC   PO445782  26.925  16.380  18.770
 2008DPPC   GL145783  26.725  16.180  19.190
 2008DPPC   GL245784  26.885  15.870  19.380
 2008DPPC   C1A45785  26.635  16.290  19.610
 2008DPPC   C2A45786  26.410  16.510  19.900
 2008DPPC   C3A45787  26.585  16.550  20.300
 2008DPPC   C4A45788  26.615  16.920  20.530
 2008DPPC   C1B45789  26.965  15.830  19.840
 2008DPPC   C2B45790  26.845  15.660  20.300
 2008DPPC   C3B45791  26.855  15.700  20.780
 2008DPPC   C4B45792  26.635  15.490  21.220
 2009DPPC   NC345793  18.020   6.090  26.770
 2009DPPC   PO445794  17.770   6.460  26.860
 2009DPPC   GL145795  17.960   6.760  27.010
 2009DPPC   GL245796  17.680   7.020  27.200
 2009DPPC   C1A45797  18.270   6.970  27.120
 2009DPPC   C2A45798  18.510   7.210  27.400
 2009DPPC   C3A45799  18.730   7.640  27.350
 2009DPPC   C4A45800  18.970   8.030  27.460
 2009DPPC   C1B45801  17.940   7.350  27.320
 2009DPPC   C2B45802  18.190   7.590  27.710
 2009DPPC   C3B45803  18.490   7.900  27.820
 2009DPPC   C4B45804  18.870   8.040  27.960
 2010DPPC   NC345805  14.520  22.850  19.790
 2010DPPC   PO445806  14.250  22.650  20.210
 2010DPPC   GL145807  14.750  22.620  20.230
 2010DPPC   GL245808  14.980  22.810  20.070
 2010DPPC   C1A45809  15.010  22.610  20.610
 2010DPPC   C2A45810  15.100  22.480  21.050
 2010DPPC   C3A45811  15.360  22.350  21.360
 2010DPPC   C4A45812  15.580  22.180  21.620
 2010DPPC   C1B45813  15.350  22.670  20.270
 2010DPPC   C2B45814  15.470  22.390  20.650
 2010DPPC   C3B45815  15.630  22.170  20.960
 2010DPPC   C4B45816  15.860  22.240  21.150
 2011DPPC   NC345817  11.760  18.070  21.240
 2011DPPC   PO445818  11.660  18.420  21.690
 2011DPPC   GL145819  12.050  18.280  21.700
 2011DPPC   GL245820  12.150  18.030  21.590
 2011DPPC   C1A45821  12.500  18.370  21.840
 2011DPPC   C2A45822  12.970  18.570  21.960
 2011DPPC   C3A45823  13.400  18.610  22.010
 2011DPPC   C4A45824  13.720  18.950  22.110
 2011DPPC   C1B45825  12.400  17.910  22.010
 2011DPPC   C2B45826  12.670  17.710  22.120
 2011DPPC   C3B45827  13.060  17.670  22.230
 2011DPPC   C4B45828  13.480  17.540  22.430
 2012DPPC   NC345829  26.615  18.590  35.560
 2012DPPC   PO445830  26.835  18.310  35.370
 2012DPPC   GL145831  27.105  18.620  35.390
 2012DPPC   GL245832  27.235  18.690  35.170
 2012DPPC   C1A45833  27.475  18.830  35.610
 2012DPPC   C2A45834  27.935  19.070  35.460
 2012DPPC   C3A45835  28.295  19.180  35.740
 2012DPPC   C4A45836  28.535  19.080  35.990
 2012DPPC   C1B45837  27.475  18.970  34.990
 2012DPPC   C2B45838  27.815  19.210  34.930
 2012DPPC   C3B45839  28.175  19.420  35.090
 2012DPPC   C4B45840  28.235  19.640  35.510
 2013DPPC   NC345841  31.365  16.030  41.910
 2013DPPC   PO445842  31.385  16.450  41.650
 2013DPPC   GL145843  30.885  16.290  41.630
 2013DPPC   GL245844  30.765  16.040  41.910
 2013DPPC   C1A45845  30.565  16.200  41.220
 2013DPPC   C2A45846  30.245  16.120  41.050
 2013DPPC   C3A45847  30.045  16.070  40.660
 2013DPPC   C4A45848  29.885  16.560  40.470
 2013DPPC   C1B45849  30.405  15.920  41.670
 2013DPPC   C2B45850  30.005  15.910  41.490
 2013DPPC   C3B45851  29.585  15.700  41.660
 2013DPPC   C4B45852  29.395  15.320  41.670
 2014DPPC   NC345853  19.710   0.380  23.370
 2014DPPC   PO445854  19.320   0.480  23.560
 2014DPPC   GL145855  19.540   0.180  23.820
 2014DPPC   GL245856  19.320   0.120  24.070
 2014DPPC   C1A45857  19.350  26.140  23.810
 2014DPPC   C2A45858  19.400  25.760  24.020
 2014DPPC   C3A45859  19.060  25.440  24.190
 2014DPPC   C4A45860  19.050  25.210  24.600
 2014DPPC   C1B45861  18.990   0.060  24.290
 2014DPPC   C2B45862  18.680  26.300  24.520
 2014DPPC   C3B45863  18.570  26.130  24.920
 2014DPPC   C4B45864  18.730  25.950  25.300
 2015DPPC   NC345865  21.570  19.450  47.370
 2015DPPC   PO445866  21.540  19.830  47.260
 2015DPPC   GL145867  21.320  19.620  47.000
 2015DPPC   GL245868  21.020  19.670  46.960
 2015DPPC   C1A45869  21.460  19.390  46.730
 2015DPPC   C2A45870  21.580  19.240  46.350
 2015DPPC   C3A45871  21.360  19.330  46.020
 2015DPPC   C4A45872  21.420  19.390  45.610
 2015DPPC   C1B45873  20.930  19.810  46.620
 2015DPPC   C2B45874  20.920  20.040  46.390
 2015DPPC   C3B45875  20.680  20.320  46.160
 2015DPPC   C4B45876  20.530  20.500  45.840
 2016DPPC   NC345877  10.900  23.950  25.500
 2016DPPC   PO445878  11.090  24.320  25.670
 2016DPPC   GL145879  11.420  24.060  25.600
 2016DPPC   GL245880  11.370  23.790  25.290
 2016DPPC   C1A45881  11.630  23.840  25.870
 2016DPPC   C2A45882  11.840  23.620  26.250
 2016DPPC   C3A45883  12.190  23.380  26.510
 2016DPPC   C4A45884  12.570  23.140  26.550
 2016DPPC   C1B45885  11.540  23.510  25.490
 2016DPPC   C2B45886  11.920  23.400  25.750
 2016DPPC   C3B45887  12.160  23.240  26.020
 2016DPPC   C4B45888  12.450  22.900  26.140
 2017DPPC   NC345889  23.490  21.020  28.860
 2017DPPC   PO445890  23.520  21.130  29.320
 2017DPPC   GL145891  23.850  21.440  29.200
 2017DPPC   GL245892  23.840  21.330  28.780
 2017DPPC   C1A45893  24.270  21.660  29.470
 2017DPPC   C2A45894  24.680  21.810  29.590
 2017DPPC   C3A45895  24.850  21.680  30.080
 2017DPPC   C4A45896  25.160  21.640  30.400
 2017DPPC   C1B45897  24.040  21.650  28.670
 2017DPPC   C2B45898  24.410  21.740  28.610
 2017DPPC   C3B45899  24.690  22.060  28.830
 2017DPPC   C4B45900  24.940  22.460  28.800
 2018DPPC   NC345901  23.020  21.200  41.860
 2018DPPC   PO445902  22.950  21.370  42.240
 2018DPPC   GL145903  22.780  21.740  42.290
 2018DPPC   GL245904  22.570  21.560  42.530
 2018DPPC   C1A45905  22.530  22.080  42.410
 2018DPPC   C2A45906  22.460  22.370  42.680
 2018DPPC   C3A45907  21.990  22.680  42.750
 2018DPPC   C4A45908  21.660  22.680  42.420
 2018DPPC   C1B45909  22.750  21.540  43.040
 2018DPPC   C2B45910  22.830  21.610  43.520
 2018DPPC   C3B45911  22.650  21.540  44.010
 2018DPPC   C4B45912  22.350  21.230  44.050
 2019DPPC   NC345913  16.950   7.200  34.800
 2019DPPC   PO445914  16.990   7.040  34.400
 2019DPPC   GL145915  17.300   7.180  34.130
 2019DPPC   GL245916  17.440   7.350  34.400
 2019DPPC   C1A45917  17.310   7.350  33.800
 2019DPPC   C2A45918  17.230   7.750  33.630
 2019DPPC   C3A45919  17.490   8.120  33.630
 2019DPPC   C4A45920  17.590   8.550  33.680
 2019DPPC   C1B45921  17.870   7.480  34.500
 2019DPPC   C2B45922  17.840   7.950  34.520
 2019DPPC   C3B45923  17.980   8.390  34.480
 2019DPPC   C4B45924  18.150   8.810  34.360
 2020DPPC   NC345925  25.240  11.430  40.400
 2020DPPC   PO445926  25.120  10.950  40.560
 2020DPPC   GL145927  25.000  10.910  40.860
 2020DPPC   GL245928  25.000  10.510  40.840
 2020DPPC   C1A45929  24.900  10.720  41.330
 2020DPPC   C2A45930  25.010  10.520  41.790
 2020DPPC   C3A45931  25.050  10.390  42.190
 2020DPPC   C4A45932  25.000  10.280  42.640
 2020DPPC   C1B45933  25.150  10.310  41.190
 2020DPPC   C2B45934  25.200   9.780  41.360
 2020DPPC   C3B45935  24.910   9.590  41.640
 2020DPPC   C4B45936  24.650   9.660  41.930
 2021DPPC   NC345937  26.625   9.370  27.010
 2021DPPC   PO445938  26.945   9.540  26.660
 2021DPPC   GL145939  27.075   9.270  26.350
 2021DPPC   GL245940  26.955   9.400  26.070
 2021DPPC   C1A45941  27.405   8.910  26.170
 2021DPPC   C2A45942  27.595   8.580  26.010
 2021DPPC   C3A45943  27.815   8.180  25.840
 2021DPPC   C4A45944  27.545   7.790  26.030
 2021DPPC   C1B45945  27.005   9.100  25.740
 2021DPPC   C2B45946  27.335   9.040  25.410
 2021DPPC   C3B45947  27.645   8.880  25.280
 2021DPPC   C4B45948  27.615   8.590  25.000
 2022DPPC   NC345949   9.390  20.480  33.940
 2022DPPC   PO445950   9.410  20.180  33.700
 2022DPPC   GL145951   9.790  20.100  33.660
 2022DPPC   GL245952   9.800  20.070  34.020
 2022DPPC   C1A45953  10.180  20.030  33.490
 2022DPPC   C2A45954  10.570  20.040  33.490
 2022DPPC   C3A45955  10.990  19.920  33.360
 2022DPPC   C4A45956  11.370  20.150  33.210
 2022DPPC   C1B45957  10.150  20.330  34.120
 2022DPPC   C2B45958  10.340  20.500  33.930
 2022DPPC   C3B45959  10.700  20.680  33.690
 2022DPPC   C4B45960  11.100  20.820  33.570
 2023DPPC   NC345961  17.330  20.250  21.940
 2023DPPC   PO445962  17.580  20.600  22.070
 2023DPPC   GL145963  17.390  20.820  21.820
 2023DPPC   GL245964  17.470  21.140  21.970
 2023DPPC   C1A45965  17.170  20.900  21.510
 2023DPPC   C2A45966  17.060  21.130  21.080
 2023DPPC   C3A45967  17.000  21.380  20.850
 2023DPPC   C4A45968  17.000  21.640  20.560
 2023DPPC   C1B45969  17.240  21.370  21.770
 2023DPPC   C2B45970  17.400  21.350  21.350
 2023DPPC   C3B45971  17.460  21.550  21.030
 2023DPPC   C4B45972  17.690  21.580  20.610
 2024DPPC   NC345973  34.395  14.060  36.390
 2024DPPC   PO445974  33.925  14.040  36.620
 2024DPPC   GL145975  33.555  14.010  36.860
 2024DPPC   GL245976  33.235  14.040  36.590
 2024DPPC   C1A45977  33.305  13.750  36.960
 2024DPPC   C2A45978  32.855  13.530  37.220
 2024DPPC   C3A45979  32.625  13.520  37.620
 2024DPPC   C4A45980  32.335  13.370  37.770
 2024DPPC   C1B45981  32.715  14.140  36.590
 2024DPPC   C2B45982  32.315  13.870  36.590
 2024DPPC   C3B45983  32.045  13.800  36.890
 2024DPPC   C4B45984  31.565  13.870  36.930
 2025DPPC   NC345985  13.190  19.560  19.560
 2025DPPC   PO445986  13.150  19.820  19.890
 2025DPPC   GL145987  13.370  19.780  20.180
 2025DPPC   GL245988  13.320  19.530  20.470
 2025DPPC   C1A45989  13.830  19.880  20.160
 2025DPPC   C2A45990  14.150  19.990  20.510
 2025DPPC   C3A45991  14.260  20.400  20.670
 2025DPPC   C4A45992  14.710  20.660  20.690
 2025DPPC   C1B45993  13.640  19.910  20.610
 2025DPPC   C2B45994  13.850  20.180  20.930
 2025DPPC   C3B45995  14.060  20.500  21.140
 2025DPPC   C4B45996  14.420  20.490  21.520
 2026DPPC   NC345997  13.700  18.090  33.330
 2026DPPC   PO445998  13.940  17.780  33.570
 2026DPPC   GL145999  13.430  17.870  33.760
 2026DPPC   GL246000  13.160  18.060  33.950
 2026DPPC   C1A46001  13.050  17.590  33.760
 2026DPPC   C2A46002  12.700  17.400  33.680
 2026DPPC   C3A46003  12.280  17.310  33.670
 2026DPPC   C4A46004  11.800  17.160  33.630
 2026DPPC   C1B46005  12.820  18.370  33.930
 2026DPPC   C2B46006  12.500  18.530  34.150
 2026DPPC   C3B46007  12.160  18.400  34.320
 2026DPPC   C4B46008  11.840  18.310  34.630
 2027DPPC   NC346009  27.335  23.030  28.590
 2027DPPC   PO446010  27.515  22.720  28.180
 2027DPPC   GL146011  27.235  22.470  28.200
 2027DPPC   GL246012  27.205  22.360  27.930
 2027DPPC   C1A46013  26.885  22.260  28.340
 2027DPPC   C2A46014  26.885  21.750  28.480
 2027DPPC   C3A46015  26.525  21.390  28.680
 2027DPPC   C4A46016  26.180  21.090  28.900
 2027DPPC   C1B46017  26.785  22.140  27.850
 2027DPPC   C2B46018  26.410  22.190  28.030
 2027DPPC   C3B46019  25.930  22.110  28.010
 2027DPPC   C4B46020  25.700  22.060  27.690
 2028DPPC   NC346021  14.260  17.390  28.420
 2028DPPC   PO446022  14.230  17.760  28.730
 2028DPPC   GL146023  13.810  17.630  28.520
 2028DPPC   GL246024  13.810  17.260  28.650
 2028DPPC   C1A46025  13.520  17.200  28.270
 2028DPPC   C2A46026  13.240  16.960  28.260
 2028DPPC   C3A46027  12.830  16.880  28.380
 2028DPPC   C4A46028  12.500  16.610  28.240
 2028DPPC   C1B46029  13.420  17.390  28.770
 2028DPPC   C2B46030  13.020  17.150  28.740
 2028DPPC   C3B46031  12.710  16.920  28.950
 2028DPPC   C4B46032  12.450  16.880  29.230
 2029DPPC   NC346033  24.130  21.150  33.740
 2029DPPC   PO446034  24.010  20.860  33.330
 2029DPPC   GL146035  24.260  21.230  33.280
 2029DPPC   GL246036  24.270  21.560  33.430
 2029DPPC   C1A46037  24.710  21.430  33.320
 2029DPPC   C2A46038  25.130  21.660  33.380
 2029DPPC   C3A46039  25.360  21.980  33.300
 2029DPPC   C4A46040  25.640  22.270  33.300
 2029DPPC   C1B46041  24.460  21.760  33.070
 2029DPPC   C2B46042  24.800  21.880  33.010
 2029DPPC   C3B46043  25.020  22.210  32.960
 2029DPPC   C4B46044  25.340  22.600  33.080
 2030DPPC   NC346045  18.020  18.920  41.480
 2030DPPC   PO446046  18.130  19.340  41.620
 2030DPPC   GL146047  18.030  19.590  42.060
 2030DPPC   GL246048  18.310  19.550  42.340
 2030DPPC   C1A46049  17.900  19.880  42.400
 2030DPPC   C2A46050  17.770  20.020  42.760
 2030DPPC   C3A46051  17.640  20.130  43.140
 2030DPPC   C4A46052  17.400  20.420  43.180
 2030DPPC   C1B46053  18.150  19.620  42.720
 2030DPPC   C2B46054  17.970  19.570  43.060
 2030DPPC   C3B46055  17.880  19.490  43.360
 2030DPPC   C4B46056  17.830  19.410  43.680
 2031DPPC   NC346057  20.530   6.770  22.680
 2031DPPC   PO446058  20.080   6.880  22.480
 2031DPPC   GL146059  20.200   7.140  22.740
 2031DPPC   GL246060  20.400   7.250  22.860
 2031DPPC   C1A46061  20.170   7.520  23.150
 2031DPPC   C2A46062  20.460   7.750  23.340
 2031DPPC   C3A46063  20.690   8.120  23.390
 2031DPPC   C4A46064  20.990   8.500  23.450
 2031DPPC   C1B46065  20.660   7.510  22.930
 2031DPPC   C2B46066  20.770   7.940  22.880
 2031DPPC   C3B46067  20.960   8.350  22.990
 2031DPPC   C4B46068  21.160   8.800  23.030
 2032DPPC   NC346069  19.170   5.100  28.680
 2032DPPC   PO446070  18.860   5.270  28.630
 2032DPPC   GL146071  18.990   5.780  28.660
 2032DPPC   GL246072  19.230   5.650  28.520
 2032DPPC   C1A46073  19.100   6.120  28.790
 2032DPPC   C2A46074  19.170   6.440  29.070
 2032DPPC   C3A46075  19.070   6.820  29.250
 2032DPPC   C4A46076  18.730   7.020  29.590
 2032DPPC   C1B46077  19.460   5.980  28.400
 2032DPPC   C2B46078  19.390   6.520  28.500
 2032DPPC   C3B46079  19.550   6.850  28.500
 2032DPPC   C4B46080  19.790   7.300  28.680
 2033DPPC   NC346081  33.125  12.500  38.260
 2033DPPC   PO446082  32.995  12.830  38.110
 2033DPPC   GL146083  32.565  12.920  38.050
 2033DPPC   GL246084  32.485  13.010  38.290
 2033DPPC   C1A46085  32.005  12.820  38.020
 2033DPPC   C2A46086  31.735  13.010  37.720
 2033DPPC   C3A46087  31.755  13.260  37.420
 2033DPPC   C4A46088  31.805  13.650  37.390
 2033DPPC   C1B46089  32.075  13.240  38.250
 2033DPPC   C2B46090  31.845  13.470  37.890
 2033DPPC   C3B46091  31.455  13.570  37.910
 2033DPPC   C4B46092  31.265  13.890  38.040
 2034DPPC   NC346093  22.410  23.200  28.520
 2034DPPC   PO446094  22.090  23.240  28.730
 2034DPPC   GL146095  22.190  23.640  28.850
 2034DPPC   GL246096  22.460  23.680  28.720
 2034DPPC   C1A46097  22.380  24.150  28.860
 2034DPPC   C2A46098  22.660  24.500  28.740
 2034DPPC   C3A46099  22.810  24.910  28.960
 2034DPPC   C4A46100  22.790  25.330  29.220
 2034DPPC   C1B46101  22.800  23.910  28.770
 2034DPPC   C2B46102  23.200  23.990  28.830
 2034DPPC   C3B46103  23.530  24.180  29.140
 2034DPPC   C4B46104  23.970  24.410  29.150
 2035DPPC   NC346105  27.285  11.010  39.170
 2035DPPC   PO446106  27.385  10.590  39.280
 2035DPPC   GL146107  27.675  10.380  39.440
 2035DPPC   GL246108  27.935  10.510  39.580
 2035DPPC   C1A46109  27.685  10.130  39.770
 2035DPPC   C2A46110  27.725   9.700  40.010
 2035DPPC   C3A46111  27.555   9.350  40.180
 2035DPPC   C4A46112  27.565   9.030  40.230
 2035DPPC   C1B46113  28.145  10.460  40.090
 2035DPPC   C2B46114  28.405  10.600  40.390
 2035DPPC   C3B46115  28.495  11.110  40.570
 2035DPPC   C4B46116  28.825  11.340  40.750
 2036DPPC   NC346117  27.505  17.990  38.970
 2036DPPC   PO446118  27.195  18.220  38.810
 2036DPPC   GL146119  27.555  18.450  38.810
 2036DPPC   GL246120  27.865  18.360  39.040
 2036DPPC   C1A46121  27.965  18.680  38.590
 2036DPPC   C2A46122  28.325  19.010  38.790
 2036DPPC   C3A46123  28.575  19.330  38.800
 2036DPPC   C4A46124  28.985  19.460  38.660
 2036DPPC   C1B46125  28.325  18.530  39.060
 2036DPPC   C2B46126  28.545  18.730  39.430
 2036DPPC   C3B46127  28.915  18.940  39.520
 2036DPPC   C4B46128  29.315  19.130  39.840
 2037DPPC   NC346129  10.120  18.340  38.860
 2037DPPC   PO446130  10.450  18.190  38.640
 2037DPPC   GL146131  10.900  18.400  38.470
 2037DPPC   GL246132  11.180  18.260  38.660
 2037DPPC   C1A46133  11.270  18.470  38.200
 2037DPPC   C2A46134  11.490  18.780  38.010
 2037DPPC   C3A46135  11.610  19.140  37.700
 2037DPPC   C4A46136  11.690  19.480  37.370
 2037DPPC   C1B46137  11.520  18.040  38.320
 2037DPPC   C2B46138  11.730  17.540  38.420
 2037DPPC   C3B46139  12.090  17.250  38.440
 2037DPPC   C4B46140  12.570  17.300  38.460
 2038DPPC   NC346141  31.955  16.870  39.530
 2038DPPC   PO446142  31.715  17.000  39.780
 2038DPPC   GL146143  31.365  16.840  39.610
 2038DPPC   GL246144  31.515  16.710  39.380
 2038DPPC   C1A46145  30.955  16.910  39.670
 2038DPPC   C2A46146  30.765  17.050  39.360
 2038DPPC   C3A46147  30.385  17.310  39.250
 2038DPPC   C4A46148  30.375  17.710  39.240
 2038DPPC   C1B46149  31.075  16.510  39.270
 2038DPPC   C2B46150  30.805  16.160  39.260
 2038DPPC   C3B46151  30.545  15.860  39.500
 2038DPPC   C4B46152  30.505  15.590  39.530
 2039DPPC   NC346153  28.105   9.520  35.880
 2039DPPC   PO446154  28.535   9.500  35.840
 2039DPPC   GL146155  28.975   9.430  35.860
 2039DPPC   GL246156  29.125   9.280  35.520
 2039DPPC   C1A46157  29.315   9.260  35.950
 2039DPPC   C2A46158  29.745   9.060  35.800
 2039DPPC   C3A46159  29.875   8.620  35.870
 2039DPPC   C4A46160  29.885   8.270  36.220
 2039DPPC   C1B46161  29.425   8.920  35.370
 2039DPPC   C2B46162  29.855   8.740  35.320
 2039DPPC   C3B46163  30.245   8.520  35.380
 2039DPPC   C4B46164  30.705   8.340  35.620
 2040DPPC   NC346165  26.755   5.920  40.490
 2040DPPC   PO446166  27.135   5.720  40.500
 2040DPPC   GL146167  27.215   6.010  40.220
 2040DPPC   GL246168  26.925   6.120  39.910
 2040DPPC   C1A46169  27.385   5.960  39.810
 2040DPPC   C2A46170  27.495   6.110  39.390
 2040DPPC   C3A46171  27.455   6.100  38.960
 2040DPPC   C4A46172  27.075   6.270  38.790
 2040DPPC   C1B46173  26.735   6.520  39.790
 2040DPPC   C2B46174  26.400   6.560  39.480
 2040DPPC   C3B46175  26.040   6.970  39.300
 2040DPPC   C4B46176  26.000   7.130  38.860
 2041DPPC   NC346177  26.230  14.790  41.780
 2041DPPC   PO446178  26.410  15.170  41.710
 2041DPPC   GL146179  26.200  15.190  42.110
 2041DPPC   GL246180  26.410  15.010  42.220
 2041DPPC   C1A46181  26.230  15.320  42.600
 2041DPPC   C2A46182  26.455  15.250  43.000
 2041DPPC   C3A46183  26.725  15.280  43.280
 2041DPPC   C4A46184  27.195  15.320  43.410
 2041DPPC   C1B46185  26.675  14.910  42.490
 2041DPPC   C2B46186  26.985  14.990  42.860
 2041DPPC   C3B46187  27.325  15.040  43.060
 2041DPPC   C4B46188  27.765  14.740  43.180
 2042DPPC   NC346189  27.885  23.310  32.700
 2042DPPC   PO446190  27.745  23.340  33.040
 2042DPPC   GL146191  27.655  23.000  33.310
 2042DPPC   GL246192  27.695  23.020  33.740
 2042DPPC   C1A46193  27.845  22.600  33.490
 2042DPPC   C2A46194  27.855  22.180  33.760
 2042DPPC   C3A46195  27.665  21.750  33.820
 2042DPPC   C4A46196  27.375  21.420  33.970
 2042DPPC   C1B46197  27.345  22.770  33.650
 2042DPPC   C2B46198  27.135  22.450  33.630
 2042DPPC   C3B46199  26.735  22.240  33.620
 2042DPPC   C4B46200  26.430  22.160  33.840
 2043DPPC   NC346201  11.220  12.600  31.870
 2043DPPC   PO446202  11.300  13.040  31.730
 2043DPPC   GL146203  11.820  13.190  31.770
 2043DPPC   GL246204  11.900  13.270  32.120
 2043DPPC   C1A46205  12.210  13.200  31.750
 2043DPPC   C2A46206  12.590  13.350  31.650
 2043DPPC   C3A46207  12.930  13.750  31.640
 2043DPPC   C4A46208  13.360  13.760  31.720
 2043DPPC   C1B46209  12.330  13.530  32.040
 2043DPPC   C2B46210  12.670  13.760  32.060
 2043DPPC   C3B46211  13.020  14.090  31.970
 2043DPPC   C4B46212  13.090  14.440  32.170
 2044DPPC   NC346213  25.740   3.520  29.760
 2044DPPC   PO446214  25.720   3.610  30.100
 2044DPPC   GL146215  25.770   4.060  30.210
 2044DPPC   GL246216  25.830   4.270  30.500
 2044DPPC   C1A46217  25.520   4.410  30.040
 2044DPPC   C2A46218  25.130   4.640  29.960
 2044DPPC   C3A46219  24.890   5.010  29.760
 2044DPPC   C4A46220  24.600   5.270  29.480
 2044DPPC   C1B46221  25.540   4.540  30.550
 2044DPPC   C2B46222  25.190   4.800  30.490
 2044DPPC   C3B46223  24.860   5.100  30.290
 2044DPPC   C4B46224  24.450   5.220  30.070
 2045DPPC   NC346225  23.740  25.260  23.110
 2045DPPC   PO446226  23.540  24.900  23.140
 2045DPPC   GL146227  23.350  24.740  23.460
 2045DPPC   GL246228  23.020  24.930  23.530
 2045DPPC   C1A46229  23.530  24.300  23.670
 2045DPPC   C2A46230  23.500  23.840  23.690
 2045DPPC   C3A46231  23.150  23.570  23.750
 2045DPPC   C4A46232  22.710  23.500  23.980
 2045DPPC   C1B46233  23.030  24.430  23.650
 2045DPPC   C2B46234  22.690  24.170  23.710
 2045DPPC   C3B46235  22.400  23.860  23.890
 2045DPPC   C4B46236  21.990  23.810  23.880
 2046DPPC   NC346237  18.440  24.190  27.220
 2046DPPC   PO446238  18.810  24.400  27.390
 2046DPPC   GL146239  18.850  24.750  27.210
 2046DPPC   GL246240  19.000  24.820  27.030
 2046DPPC   C1A46241  18.890  25.280  27.250
 2046DPPC   C2A46242  19.110  25.680  27.180
 2046DPPC   C3A46243  19.330  26.130  27.090
 2046DPPC   C4A46244  19.310   0.160  26.900
 2046DPPC   C1B46245  18.930  24.960  26.600
 2046DPPC   C2B46246  19.110  25.450  26.320
 2046DPPC   C3B46247  19.380  25.750  26.110
 2046DPPC   C4B46248  19.510  26.100  25.750
 2047DPPC   NC346249   9.920  17.090  31.490
 2047DPPC   PO446250   9.800  17.120  31.120
 2047DPPC   GL146251  10.130  17.440  31.080
 2047DPPC   GL246252  10.340  17.500  31.330
 2047DPPC   C1A46253  10.500  17.600  30.720
 2047DPPC   C2A46254  11.010  17.580  30.670
 2047DPPC   C3A46255  11.260  17.780  30.960
 2047DPPC   C4A46256  11.230  18.170  31.190
 2047DPPC   C1B46257  10.540  17.100  31.570
 2047DPPC   C2B46258  10.930  16.870  31.690
 2047DPPC   C3B46259  11.190  16.630  31.980
 2047DPPC   C4B46260  11.500  16.600  32.260
 2048DPPC   NC346261  20.170   1.730  25.560
 2048DPPC   PO446262  20.140   1.330  25.870
 2048DPPC   GL146263  19.880   0.950  25.850
 2048DPPC   GL246264  19.650   0.860  25.520
 2048DPPC   C1A46265  19.980   0.660  26.010
 2048DPPC   C2A46266  20.170   0.310  26.260
 2048DPPC   C3A46267  20.320  26.400  26.490
 2048DPPC   C4A46268  20.250  26.000  26.370
 2048DPPC   C1B46269  19.740   0.450  25.620
 2048DPPC   C2B46270  19.760   0.110  25.950
 2048DPPC   C3B46271  19.850  26.310  26.260
 2048DPPC   C4B46272  19.790  25.950  26.540
 2049DPPC   NC346273  33.155   8.600  37.770
 2049DPPC   PO446274  32.815   8.650  37.560
 2049DPPC   GL146275  32.485   8.810  37.770
 2049DPPC   GL246276  32.535   9.280  37.820
 2049DPPC   C1A46277  32.045   8.850  37.850
 2049DPPC   C2A46278  31.635   9.070  37.690
 2049DPPC   C3A46279  31.235   9.310  37.690
 2049DPPC   C4A46280  30.885   9.600  37.550
 2049DPPC   C1B46281  32.185   9.480  37.640
 2049DPPC   C2B46282  31.795   9.550  37.490
 2049DPPC   C3B46283  31.495   9.390  37.320
 2049DPPC   C4B46284  31.185   9.350  37.030
 2050DPPC   NC346285  29.625  14.340  34.120
 2050DPPC   PO446286  29.695  14.470  34.420
 2050DPPC   GL146287  30.015  14.640  34.570
 2050DPPC   GL246288  30.185  14.310  34.730
 2050DPPC   C1A46289  30.465  14.780  34.400
 2050DPPC   C2A46290  30.785  14.810  34.320
 2050DPPC   C3A46291  31.215  14.830  34.150
 2050DPPC   C4A46292  31.335  14.590  33.870
 2050DPPC   C1B46293  30.685  14.390  34.790
 2050DPPC   C2B46294  31.025  14.490  34.930
 2050DPPC   C3B46295  31.015  14.870  34.910
 2050DPPC   C4B46296  31.305  15.060  35.190
 2051DPPC   NC346297  20.170   7.480  22.110
 2051DPPC   PO446298  20.500   7.360  21.800
 2051DPPC   GL146299  20.640   7.580  22.090
 2051DPPC   GL246300  20.510   7.880  22.050
 2051DPPC   C1A46301  20.880   7.450  22.470
 2051DPPC   C2A46302  21.160   7.530  22.870
 2051DPPC   C3A46303  21.140   7.860  23.190
 2051DPPC   C4A46304  21.120   8.010  23.590
 2051DPPC   C1B46305  20.450   8.210  22.180
 2051DPPC   C2B46306  20.160   8.400  22.420
 2051DPPC   C3B46307  19.950   8.350  22.770
 2051DPPC   C4B46308  19.950   8.520  23.120
 2052DPPC   NC346309   9.480  21.820  30.340
 2052DPPC   PO446310   9.320  21.690  30.750
 2052DPPC   GL146311   9.580  21.400  30.740
 2052DPPC   GL246312   9.660  21.350  30.500
 2052DPPC   C1A46313   9.780  21.010  30.920
 2052DPPC   C2A46314   9.930  20.630  31.190
 2052DPPC   C3A46315  10.310  20.390  31.060
 2052DPPC   C4A46316  10.660  20.310  31.350
 2052DPPC   C1B46317  10.160  21.300  30.530
 2052DPPC   C2B46318  10.610  21.280  30.390
 2052DPPC   C3B46319  10.950  21.240  30.640
 2052DPPC   C4B46320  11.310  21.200  30.870
 2053DPPC   NC346321  19.900  18.990  47.460
 2053DPPC   PO446322  19.520  19.150  47.290
 2053DPPC   GL146323  19.680  19.050  46.980
 2053DPPC   GL246324  19.410  18.930  46.770
 2053DPPC   C1A46325  20.100  19.120  46.820
 2053DPPC   C2A46326  20.300  18.750  46.730
 2053DPPC   C3A46327  20.570  18.430  46.910
 2053DPPC   C4A46328  20.940  18.200  46.850
 2053DPPC   C1B46329  19.510  18.850  46.300
 2053DPPC   C2B46330  19.720  18.710  45.990
 2053DPPC   C3B46331  20.190  18.720  45.880
 2053DPPC   C4B46332  20.340  18.620  45.540
 2054DPPC   NC346333  23.420  12.790  21.930
 2054DPPC   PO446334  23.170  12.900  21.620
 2054DPPC   GL146335  23.340  12.560  21.480
 2054DPPC   GL246336  23.070  12.400  21.400
 2054DPPC   C1A46337  23.350  12.120  21.110
 2054DPPC   C2A46338  23.210  11.740  21.060
 2054DPPC   C3A46339  23.060  11.360  20.890
 2054DPPC   C4A46340  22.640  11.160  20.830
 2054DPPC   C1B46341  23.190  12.570  21.000
 2054DPPC   C2B46342  23.530  12.590  20.800
 2054DPPC   C3B46343  23.660  12.660  20.400
 2054DPPC   C4B46344  23.670  12.830  20.040
 2055DPPC   NC346345  26.965  19.210  45.650
 2055DPPC   PO446346  27.325  19.220  45.410
 2055DPPC   GL146347  27.045  19.460  45.210
 2055DPPC   GL246348  26.955  19.090  45.110
 2055DPPC   C1A46349  26.835  19.740  44.900
 2055DPPC   C2A46350  26.595  20.000  44.550
 2055DPPC   C3A46351  26.555  19.750  44.140
 2055DPPC   C4A46352  26.465  19.520  43.890
 2055DPPC   C1B46353  26.615  19.240  45.040
 2055DPPC   C2B46354  26.140  19.310  44.970
 2055DPPC   C3B46355  25.930  19.280  44.570
 2055DPPC   C4B46356  25.700  19.160  44.180
 2056DPPC   NC346357  30.095  13.290  21.580
 2056DPPC   PO446358  29.875  13.020  21.310
 2056DPPC   GL146359  29.585  12.950  21.630
 2056DPPC   GL246360  29.445  13.270  21.680
 2056DPPC   C1A46361  29.205  12.690  21.860
 2056DPPC   C2A46362  28.745  12.860  21.940
 2056DPPC   C3A46363  28.365  13.160  22.070
 2056DPPC   C4A46364  28.245  13.570  22.040
 2056DPPC   C1B46365  29.065  13.240  21.870
 2056DPPC   C2B46366  28.835  13.380  22.200
 2056DPPC   C3B46367  28.645  13.770  22.320
 2056DPPC   C4B46368  28.355  14.010  22.560
 2057DPPC   NC346369  13.260  12.430  23.340
 2057DPPC   PO446370  13.520  12.380  22.980
 2057DPPC   GL146371  13.680  12.730  22.880
 2057DPPC   GL246372  14.030  12.860  22.810
 2057DPPC   C1A46373  13.800  13.010  23.270
 2057DPPC   C2A46374  14.040  13.180  23.670
 2057DPPC   C3A46375  14.180  13.470  23.950
 2057DPPC   C4A46376  14.540  13.600  24.060
 2057DPPC   C1B46377  14.320  13.130  22.910
 2057DPPC   C2B46378  14.470  13.150  23.300
 2057DPPC   C3B46379  14.730  13.240  23.690
 2057DPPC   C4B46380  15.140  13.190  23.870
 2058DPPC   NC346381  27.875  17.020  19.240
 2058DPPC   PO446382  27.995  16.690  19.580
 2058DPPC   GL146383  27.925  16.720  19.980
 2058DPPC   GL246384  28.115  16.400  20.050
 2058DPPC   C1A46385  27.515  16.760  20.250
 2058DPPC   C2A46386  27.245  16.500  20.260
 2058DPPC   C3A46387  26.875  16.250  20.060
 2058DPPC   C4A46388  26.430  16.030  20.060
 2058DPPC   C1B46389  27.745  16.310  20.240
 2058DPPC   C2B46390  27.395  15.990  20.400
 2058DPPC   C3B46391  27.045  16.150  20.530
 2058DPPC   C4B46392  26.585  16.040  20.550
 2059DPPC   NC346393  22.950  22.410  35.680
 2059DPPC   PO446394  22.980  22.730  35.940
 2059DPPC   GL146395  23.150  23.150  35.830
 2059DPPC   GL246396  22.860  23.300  35.620
 2059DPPC   C1A46397  23.540  23.420  35.980
 2059DPPC   C2A46398  23.730  23.390  36.320
 2059DPPC   C3A46399  23.900  23.690  36.600
 2059DPPC   C4A46400  23.900  23.520  37.090
 2059DPPC   C1B46401  23.040  23.720  35.700
 2059DPPC   C2B46402  23.230  24.030  35.400
 2059DPPC   C3B46403  23.220  24.560  35.360
 2059DPPC   C4B46404  22.940  24.950  35.240
 2060DPPC   NC346405   9.870  15.740  31.540
 2060DPPC   PO446406   9.660  16.070  31.280
 2060DPPC   GL146407  10.050  16.070  31.230
 2060DPPC   GL246408  10.080  16.270  31.040
 2060DPPC   C1A46409  10.470  15.870  31.390
 2060DPPC   C2A46410  10.820  15.840  31.720
 2060DPPC   C3A46411  10.960  15.780  32.100
 2060DPPC   C4A46412  11.150  15.850  32.560
 2060DPPC   C1B46413  10.580  16.240  31.100
 2060DPPC   C2B46414  10.940  16.390  30.990
 2060DPPC   C3B46415  11.280  16.240  30.980
 2060DPPC   C4B46416  11.690  16.130  31.190
 2061DPPC   NC346417  25.050  12.880  17.720
 2061DPPC   PO446418  25.180  13.270  17.830
 2061DPPC   GL146419  25.100  13.400  18.290
 2061DPPC   GL246420  24.840  13.090  18.350
 2061DPPC   C1A46421  24.690  13.570  18.440
 2061DPPC   C2A46422  24.270  13.470  18.730
 2061DPPC   C3A46423  24.020  13.280  19.200
 2061DPPC   C4A46424  24.010  13.010  19.600
 2061DPPC   C1B46425  25.030  12.920  18.720
 2061DPPC   C2B46426  24.910  12.870  19.070
 2061DPPC   C3B46427  25.040  12.880  19.460
 2061DPPC   C4B46428  24.870  12.830  19.840
 2062DPPC   NC346429  23.350  10.760  40.260
 2062DPPC   PO446430  23.130  10.780  40.670
 2062DPPC   GL146431  23.450  10.560  40.820
 2062DPPC   GL246432  23.630  10.490  40.550
 2062DPPC   C1A46433  23.550  10.350  41.230
 2062DPPC   C2A46434  23.830   9.940  41.450
 2062DPPC   C3A46435  24.010   9.560  41.670
 2062DPPC   C4A46436  23.890   9.480  42.150
 2062DPPC   C1B46437  23.820  10.150  40.820
 2062DPPC   C2B46438  23.830   9.730  40.930
 2062DPPC   C3B46439  23.940   9.380  41.160
 2062DPPC   C4B46440  23.810   8.890  40.940
 2063DPPC   NC346441  13.880  21.640  19.150
 2063DPPC   PO446442  14.330  21.670  19.300
 2063DPPC   GL146443  14.630  21.330  19.460
 2063DPPC   GL246444  14.460  21.180  19.710
 2063DPPC   C1A46445  14.970  21.020  19.790
 2063DPPC   C2A46446  15.380  21.210  19.970
 2063DPPC   C3A46447  15.550  21.600  20.040
 2063DPPC   C4A46448  15.450  21.890  19.790
 2063DPPC   C1B46449  14.640  21.240  20.090
 2063DPPC   C2B46450  14.520  21.580  20.360
 2063DPPC   C3B46451  14.680  21.780  20.770
 2063DPPC   C4B46452  14.740  21.880  21.200
 2064DPPC   NC346453  24.830  14.280  46.860
 2064DPPC   PO446454  24.380  14.290  46.810
 2064DPPC   GL146455  24.470  14.190  46.360
 2064DPPC   GL246456  24.780  14.300  46.280
 2064DPPC   C1A46457  24.340  14.110  45.970
 2064DPPC   C2A46458  24.180  14.440  45.660
 2064DPPC   C3A46459  23.880  14.380  45.300
 2064DPPC   C4A46460  23.750  14.560  44.910
 2064DPPC   C1B46461  24.610  14.560  45.930
 2064DPPC   C2B46462  24.430  14.890  45.700
 2064DPPC   C3B46463  24.150  15.080  45.420
 2064DPPC   C4B46464  23.750  14.880  45.320
 2065DPPC   NC346465  13.690  23.580  20.250
 2065DPPC   PO446466  13.910  23.410  20.640
 2065DPPC   GL146467  14.110  23.150  20.930
 2065DPPC   GL246468  14.210  23.250  21.090
 2065DPPC   C1A46469  14.550  22.930  20.870
 2065DPPC   C2A46470  14.840  22.950  21.140
 2065DPPC   C3A46471  15.310  22.850  21.350
 2065DPPC   C4A46472  15.400  22.830  21.830
 2065DPPC   C1B46473  14.660  23.420  21.240
 2065DPPC   C2B46474  15.010  23.430  21.360
 2065DPPC   C3B46475  15.270  23.420  21.720
 2065DPPC   C4B46476  15.580  23.420  21.980
 2066DPPC   NC346477  20.020  10.140  35.930
 2066DPPC   PO446478  19.590  10.140  36.100
 2066DPPC   GL146479  19.280   9.820  36.270
 2066DPPC   GL246480  19.100   9.730  36.010
 2066DPPC   C1A46481  19.090   9.820  36.650
 2066DPPC   C2A46482  18.970   9.500  36.920
 2066DPPC   C3A46483  19.060   9.060  37.120
 2066DPPC   C4A46484  19.060   8.710  36.930
 2066DPPC   C1B46485  18.740   9.790  35.880
 2066DPPC   C2B46486  18.310   9.740  35.880
 2066DPPC   C3B46487  18.060   9.400  35.800
 2066DPPC   C4B46488  17.670   9.290  35.630
 2067DPPC   NC346489  15.570  13.630  34.480
 2067DPPC   PO446490  15.550  13.720  34.960
 2067DPPC   GL146491  15.400  13.270  35.140
 2067DPPC   GL246492  15.150  13.240  35.510
 2067DPPC   C1A46493  15.170  12.980  35.070
 2067DPPC   C2A46494  14.690  12.870  34.900
 2067DPPC   C3A46495  14.420  12.440  34.880
 2067DPPC   C4A46496  14.160  12.200  34.530
 2067DPPC   C1B46497  15.020  12.830  35.570
 2067DPPC   C2B46498  14.810  12.630  35.820
 2067DPPC   C3B46499  14.530  12.420  35.930
 2067DPPC   C4B46500  14.060  12.360  35.960
 2068DPPC   NC346501  22.130   0.730  38.180
 2068DPPC   PO446502  22.430   0.690  37.940
 2068DPPC   GL146503  22.430   0.300  37.840
 2068DPPC   GL246504  22.720   0.110  38.070
 2068DPPC   C1A46505  22.480  26.160  37.850
 2068DPPC   C2A46506  22.440  25.740  37.640
 2068DPPC   C3A46507  22.360  25.460  37.340
 2068DPPC   C4A46508  22.390  25.170  37.040
 2068DPPC   C1B46509  22.940   0.060  37.690
 2068DPPC   C2B46510  22.890  26.020  37.500
 2068DPPC   C3B46511  22.670  25.750  37.110
 2068DPPC   C4B46512  22.860  25.480  36.940
 2069DPPC   NC346513  28.245   3.480  35.130
 2069DPPC   PO446514  28.205   3.920  35.320
 2069DPPC   GL146515  28.175   4.280  35.150
 2069DPPC   GL246516  27.835   4.220  35.260
 2069DPPC   C1A46517  27.935   4.390  34.760
 2069DPPC   C2A46518  27.625   4.670  34.630
 2069DPPC   C3A46519  27.285   5.010  34.670
 2069DPPC   C4A46520  26.935   5.190  34.520
 2069DPPC   C1B46521  27.645   4.570  35.140
 2069DPPC   C2B46522  27.355   5.050  35.180
 2069DPPC   C3B46523  27.195   5.450  35.340
 2069DPPC   C4B46524  27.315   5.760  35.670
 2070DPPC   NC346525  10.860  16.510  24.050
 2070DPPC   PO446526  11.290  16.840  23.880
 2070DPPC   GL146527  11.690  16.900  23.990
 2070DPPC   GL246528  11.630  16.910  24.280
 2070DPPC   C1A46529  12.230  16.850  24.160
 2070DPPC   C2A46530  12.440  17.110  24.560
 2070DPPC   C3A46531  12.630  17.370  24.950
 2070DPPC   C4A46532  12.850  17.760  25.120
 2070DPPC   C1B46533  11.980  16.990  24.700
 2070DPPC   C2B46534  12.290  17.010  25.030
 2070DPPC   C3B46535  12.680  16.900  24.950
 2070DPPC   C4B46536  13.050  16.650  25.200
 2071DPPC   NC346537  22.740  21.330  31.870
 2071DPPC   PO446538  22.720  21.050  31.520
 2071DPPC   GL146539  23.100  21.120  31.520
 2071DPPC   GL246540  23.130  21.520  31.570
 2071DPPC   C1A46541  23.570  21.180  31.470
 2071DPPC   C2A46542  23.950  21.040  31.680
 2071DPPC   C3A46543  24.390  20.900  31.410
 2071DPPC   C4A46544  24.700  20.610  31.290
 2071DPPC   C1B46545  23.450  21.760  31.470
 2071DPPC   C2B46546  23.920  21.660  31.370
 2071DPPC   C3B46547  24.120  21.350  31.320
 2071DPPC   C4B46548  23.910  21.060  30.970
 2072DPPC   NC346549  21.740  18.140  43.010
 2072DPPC   PO446550  21.970  17.910  43.480
 2072DPPC   GL146551  22.060  17.790  43.920
 2072DPPC   GL246552  22.310  18.050  44.030
 2072DPPC   C1A46553  22.180  17.670  44.360
 2072DPPC   C2A46554  22.100  17.390  44.820
 2072DPPC   C3A46555  22.110  17.540  45.250
 2072DPPC   C4A46556  21.790  17.500  45.480
 2072DPPC   C1B46557  22.510  18.090  44.540
 2072DPPC   C2B46558  22.580  18.420  44.860
 2072DPPC   C3B46559  22.690  18.600  45.310
 2072DPPC   C4B46560  22.720  18.870  45.760
 2073DPPC   NC346561  17.770   1.980  30.470
 2073DPPC   PO446562  17.750   2.200  30.850
 2073DPPC   GL146563  17.470   1.870  30.930
 2073DPPC   GL246564  17.120   1.860  30.850
 2073DPPC   C1A46565  17.620   1.370  31.120
 2073DPPC   C2A46566  17.700   0.960  31.350
 2073DPPC   C3A46567  17.750   0.600  31.630
 2073DPPC   C4A46568  17.580   0.630  32.070
 2073DPPC   C1B46569  17.140   1.370  31.030
 2073DPPC   C2B46570  17.210   1.000  30.990
 2073DPPC   C3B46571  17.340   0.550  30.790
 2073DPPC   C4B46572  17.350   0.160  30.620
 2074DPPC   NC346573  14.830  11.590  41.770
 2074DPPC   PO446574  15.140  11.750  41.990
 2074DPPC   GL146575  15.220  12.160  42.070
 2074DPPC   GL246576  15.440  12.160  42.270
 2074DPPC   C1A46577  15.380  12.530  41.920
 2074DPPC   C2A46578  15.450  12.930  41.890
 2074DPPC   C3A46579  15.690  13.320  41.880
 2074DPPC   C4A46580  15.990  13.630  42.030
 2074DPPC   C1B46581  15.840  12.370  42.300
 2074DPPC   C2B46582  16.270  12.570  42.280
 2074DPPC   C3B46583  16.530  12.860  42.000
 2074DPPC   C4B46584  16.660  12.880  41.490
 2075DPPC   NC346585  17.910  11.150  35.650
 2075DPPC   PO446586  17.990  11.150  36.150
 2075DPPC   GL146587  17.780  10.900  36.440
 2075DPPC   GL246588  17.700  10.980  36.710
 2075DPPC   C1A46589  17.370  10.570  36.630
 2075DPPC   C2A46590  17.080  10.240  36.640
 2075DPPC   C3A46591  16.780   9.930  36.630
 2075DPPC   C4A46592  16.690   9.560  36.820
 2075DPPC   C1B46593  17.570  10.750  37.060
 2075DPPC   C2B46594  17.380  10.330  37.080
 2075DPPC   C3B46595  17.190   9.940  37.030
 2075DPPC   C4B46596  17.640   9.810  36.940
 2076DPPC   NC346597  20.240   8.400  43.570
 2076DPPC   PO446598  19.820   8.460  43.460
 2076DPPC   GL146599  20.110   8.890  43.410
 2076DPPC   GL246600  20.350   8.910  43.440
 2076DPPC   C1A46601  20.100   9.150  43.090
 2076DPPC   C2A46602  20.140   9.210  42.750
 2076DPPC   C3A46603  20.290   9.520  42.410
 2076DPPC   C4A46604  20.380   9.860  42.010
 2076DPPC   C1B46605  20.700   9.070  43.070
 2076DPPC   C2B46606  20.690   9.350  42.730
 2076DPPC   C3B46607  20.830   9.440  42.430
 2076DPPC   C4B46608  20.690   9.410  42.020
 2077DPPC   NC346609  10.340  25.390  30.110
 2077DPPC   PO446610  10.620  25.070  30.020
 2077DPPC   GL146611  10.890  24.710  30.060
 2077DPPC   GL246612  11.130  24.630  30.320
 2077DPPC   C1A46613  11.040  24.250  29.930
 2077DPPC   C2A46614  11.560  24.220  29.900
 2077DPPC   C3A46615  11.830  24.290  29.550
 2077DPPC   C4A46616  12.100  24.110  29.250
 2077DPPC   C1B46617  11.290  24.280  30.400
 2077DPPC   C2B46618  11.550  24.220  30.800
 2077DPPC   C3B46619  11.920  24.160  30.960
 2077DPPC   C4B46620  12.300  24.050  31.270
 2078DPPC   NC346621  13.700  25.090  39.270
 2078DPPC   PO446622  13.780  24.670  39.500
 2078DPPC   GL146623  14.230  24.670  39.430
 2078DPPC   GL246624  14.260  24.580  39.170
 2078DPPC   C1A46625  14.540  24.910  39.350
 2078DPPC   C2A46626  14.720  25.310  39.230
 2078DPPC   C3A46627  14.780  25.720  39.110
 2078DPPC   C4A46628  14.960  26.060  38.910
 2078DPPC   C1B46629  14.700  24.380  39.280
 2078DPPC   C2B46630  14.860  24.050  39.020
 2078DPPC   C3B46631  15.140  23.820  38.840
 2078DPPC   C4B46632  15.140  23.610  38.460
 2079DPPC   NC346633  18.070  10.680  20.430
 2079DPPC   PO446634  18.300  10.840  20.070
 2079DPPC   GL146635  18.370  11.210  20.270
 2079DPPC   GL246636  18.090  11.410  20.170
 2079DPPC   C1A46637  18.340  11.200  20.710
 2079DPPC   C2A46638  18.220  11.330  21.010
 2079DPPC   C3A46639  18.440  11.540  21.280
 2079DPPC   C4A46640  18.360  11.730  21.620
 2079DPPC   C1B46641  18.040  11.600  20.450
 2079DPPC   C2B46642  18.130  11.810  20.860
 2079DPPC   C3B46643  18.140  12.000  21.270
 2079DPPC   C4B46644  18.130  12.300  21.570
 2080DPPC   NC346645  20.800   2.290  31.900
 2080DPPC   PO446646  20.490   2.110  32.210
 2080DPPC   GL146647  20.380   1.660  32.040
 2080DPPC   GL246648  20.360   1.300  32.160
 2080DPPC   C1A46649  20.290   1.410  31.710
 2080DPPC   C2A46650  20.400   0.930  31.690
 2080DPPC   C3A46651  20.190   0.690  31.500
 2080DPPC   C4A46652  20.090   0.460  31.090
 2080DPPC   C1B46653  19.980   1.080  31.990
 2080DPPC   C2B46654  19.790   0.700  31.890
 2080DPPC   C3B46655  19.470   0.440  31.970
 2080DPPC   C4B46656  19.270   0.180  31.650
 2081DPPC   NC346657  26.400   3.680  34.700
 2081DPPC   PO446658  26.270   3.360  34.860
 2081DPPC   GL146659  26.150   3.700  35.110
 2081DPPC   GL246660  25.830   3.790  35.070
 2081DPPC   C1A46661  26.465   4.070  35.200
 2081DPPC   C2A46662  26.505   4.410  35.510
 2081DPPC   C3A46663  26.410   4.900  35.560
 2081DPPC   C4A46664  26.270   5.230  35.330
 2081DPPC   C1B46665  26.030   4.130  34.890
 2081DPPC   C2B46666  26.340   4.240  34.440
 2081DPPC   C3B46667  26.565   4.650  34.390
 2081DPPC   C4B46668  26.945   4.740  34.340
 2082DPPC   NC346669  28.795  21.350  29.130
 2082DPPC   PO446670  28.685  21.230  28.660
 2082DPPC   GL146671  28.235  21.080  28.540
 2082DPPC   GL246672  28.145  20.990  28.860
 2082DPPC   C1A46673  27.755  21.000  28.520
 2082DPPC   C2A46674  27.375  20.770  28.450
 2082DPPC   C3A46675  26.945  20.720  28.620
 2082DPPC   C4A46676  26.695  20.890  28.910
 2082DPPC   C1B46677  27.825  20.560  28.780
 2082DPPC   C2B46678  27.635  20.160  28.830
 2082DPPC   C3B46679  27.345  19.840  29.080
 2082DPPC   C4B46680  27.035  19.860  29.370
 2083DPPC   NC346681  13.300  20.030  30.120
 2083DPPC   PO446682  12.960  19.890  29.900
 2083DPPC   GL146683  12.600  19.750  29.970
 2083DPPC   GL246684  12.660  19.520  30.150
 2083DPPC   C1A46685  12.190  19.730  29.910
 2083DPPC   C2A46686  11.730  19.560  30.140
 2083DPPC   C3A46687  11.360  19.670  30.230
 2083DPPC   C4A46688  10.840  19.870  30.160
 2083DPPC   C1B46689  12.360  19.680  30.370
 2083DPPC   C2B46690  12.010  19.700  30.610
 2083DPPC   C3B46691  11.570  19.780  30.680
 2083DPPC   C4B46692  11.370  19.870  31.020
 2084DPPC   NC346693  20.130  24.560  20.510
 2084DPPC   PO446694  19.950  24.210  20.200
 2084DPPC   GL146695  19.580  24.060  20.360
 2084DPPC   GL246696  19.290  24.180  20.430
 2084DPPC   C1A46697  19.370  23.670  20.460
 2084DPPC   C2A46698  19.060  23.510  20.840
 2084DPPC   C3A46699  19.210  23.540  21.290
 2084DPPC   C4A46700  19.120  23.210  21.570
 2084DPPC   C1B46701  19.040  24.100  20.760
 2084DPPC   C2B46702  18.700  23.980  20.910
 2084DPPC   C3B46703  18.570  23.770  21.320
 2084DPPC   C4B46704  18.590  23.660  21.750
 2085DPPC   NC346705  22.420   8.120  32.410
 2085DPPC   PO446706  22.620   8.150  32.780
 2085DPPC   GL146707  22.570   7.720  32.630
 2085DPPC   GL246708  22.350   7.790  32.860
 2085DPPC   C1A46709  22.510   7.300  32.660
 2085DPPC   C2A46710  22.280   7.040  32.790
 2085DPPC   C3A46711  22.240   6.650  32.990
 2085DPPC   C4A46712  22.440   6.260  32.920
 2085DPPC   C1B46713  22.150   7.430  33.080
 2085DPPC   C2B46714  21.950   7.070  33.270
 2085DPPC   C3B46715  21.850   6.700  33.390
 2085DPPC   C4B46716  21.730   6.270  33.440
 2086DPPC   NC346717  27.035   3.560  31.590
 2086DPPC   PO446718  26.715   3.970  31.620
 2086DPPC   GL146719  26.535   4.370  31.580
 2086DPPC   GL246720  26.410   4.330  31.250
 2086DPPC   C1A46721  26.400   4.720  31.710
 2086DPPC   C2A46722  26.200   4.980  32.000
 2086DPPC   C3A46723  26.130   5.250  32.330
 2086DPPC   C4A46724  26.000   5.630  32.500
 2086DPPC   C1B46725  26.525   4.750  31.190
 2086DPPC   C2B46726  26.855   4.970  31.010
 2086DPPC   C3B46727  27.195   5.220  31.080
 2086DPPC   C4B46728  27.145   5.550  31.310
 2087DPPC   NC346729  28.045  22.190  31.940
 2087DPPC   PO446730  27.985  21.770  32.030
 2087DPPC   GL146731  27.745  21.580  32.410
 2087DPPC   GL246732  27.875  21.520  32.750
 2087DPPC   C1A46733  27.365  21.360  32.400
 2087DPPC   C2A46734  27.055  21.060  32.240
 2087DPPC   C3A46735  26.975  20.680  32.320
 2087DPPC   C4A46736  26.715  20.320  32.220
 2087DPPC   C1B46737  27.495  21.330  32.880
 2087DPPC   C2B46738  27.125  21.330  33.100
 2087DPPC   C3B46739  26.975  21.360  33.510
 2087DPPC   C4B46740  26.935  21.220  33.850
 2088DPPC   NC346741  13.540  20.470  31.780
 2088DPPC   PO446742  13.540  20.830  31.450
 2088DPPC   GL146743  13.130  20.770  31.510
 2088DPPC   GL246744  12.950  21.030  31.670
 2088DPPC   C1A46745  12.840  20.420  31.450
 2088DPPC   C2A46746  12.430  20.490  31.430
 2088DPPC   C3A46747  12.170  20.440  30.990
 2088DPPC   C4A46748  11.920  20.240  30.680
 2088DPPC   C1B46749  12.450  20.850  31.770
 2088DPPC   C2B46750  12.000  20.820  31.600
 2088DPPC   C3B46751  11.540  20.930  31.710
 2088DPPC   C4B46752  11.220  21.100  31.710
 2089DPPC   NC346753  27.685  13.510  18.600
 2089DPPC   PO446754  27.295  13.670  18.790
 2089DPPC   GL146755  27.195  13.560  19.190
 2089DPPC   GL246756  27.185  13.130  19.270
 2089DPPC   C1A46757  27.155  13.520  19.650
 2089DPPC   C2A46758  26.725  13.570  19.780
 2089DPPC   C3A46759  26.585  13.720  20.210
 2089DPPC   C4A46760  26.190  14.000  20.180
 2089DPPC   C1B46761  26.845  12.860  19.240
 2089DPPC   C2B46762  26.420  12.910  19.160
 2089DPPC   C3B46763  26.020  13.040  19.080
 2089DPPC   C4B46764  25.850  13.340  18.800
 2090DPPC   NC346765  31.385  10.320  24.060
 2090DPPC   PO446766  30.935  10.180  23.920
 2090DPPC   GL146767  30.515  10.300  24.030
 2090DPPC   GL246768  30.555  10.090  24.280
 2090DPPC   C1A46769  30.125  10.510  24.230
 2090DPPC   C2A46770  29.605  10.630  24.360
 2090DPPC   C3A46771  29.295  10.940  24.460
 2090DPPC   C4A46772  28.965  10.850  24.690
 2090DPPC   C1B46773  30.095  10.040  24.410
 2090DPPC   C2B46774  29.695  10.180  24.530
 2090DPPC   C3B46775  29.455  10.530  24.790
 2090DPPC   C4B46776  29.215  10.810  25.100
 2091DPPC   NC346777  28.295   3.670  32.890
 2091DPPC   PO446778  28.285   3.780  33.280
 2091DPPC   GL146779  28.105   4.210  33.360
 2091DPPC   GL246780  27.645   4.310  33.270
 2091DPPC   C1A46781  27.925   4.700  33.360
 2091DPPC   C2A46782  28.085   5.150  33.530
 2091DPPC   C3A46783  28.195   5.410  33.110
 2091DPPC   C4A46784  28.015   5.740  33.130
 2091DPPC   C1B46785  27.315   4.670  33.200
 2091DPPC   C2B46786  27.205   5.090  33.270
 2091DPPC   C3B46787  27.175   5.520  33.460
 2091DPPC   C4B46788  26.985   5.960  33.590
 2092DPPC   NC346789  23.110   1.620  34.800
 2092DPPC   PO446790  23.010   1.440  34.420
 2092DPPC   GL146791  22.710   1.190  34.670
 2092DPPC   GL246792  22.760   1.270  35.100
 2092DPPC   C1A46793  22.410   0.930  34.920
 2092DPPC   C2A46794  22.150   0.670  35.000
 2092DPPC   C3A46795  22.130   0.250  35.000
 2092DPPC   C4A46796  21.920  26.360  35.140
 2092DPPC   C1B46797  22.890   0.790  34.870
 2092DPPC   C2B46798  22.600   0.520  34.710
 2092DPPC   C3B46799  22.550   0.200  34.730
 2092DPPC   C4B46800  22.190  26.300  34.700
 2093DPPC   NC346801  32.455  12.310  40.320
 2093DPPC   PO446802  32.545  11.880  40.050
 2093DPPC   GL146803  32.235  12.160  39.780
 2093DPPC   GL246804  32.135  12.340  39.970
 2093DPPC   C1A46805  31.805  11.960  39.790
 2093DPPC   C2A46806  31.605  11.780  40.120
 2093DPPC   C3A46807  31.255  11.500  40.320
 2093DPPC   C4A46808  31.065  11.080  40.310
 2093DPPC   C1B46809  31.975  12.570  39.660
 2093DPPC   C2B46810  31.675  12.780  39.490
 2093DPPC   C3B46811  31.435  13.040  39.150
 2093DPPC   C4B46812  31.105  12.850  38.840
 2094DPPC   NC346813  22.700  19.610  23.310
 2094DPPC   PO446814  22.810  20.070  23.240
 2094DPPC   GL146815  23.130  20.210  23.060
 2094DPPC   GL246816  22.990  20.530  22.960
 2094DPPC   C1A46817  23.480  20.320  22.820
 2094DPPC   C2A46818  23.830  20.520  22.660
 2094DPPC   C3A46819  23.810  20.960  22.570
 2094DPPC   C4A46820  23.900  21.130  22.250
 2094DPPC   C1B46821  23.330  20.720  22.640
 2094DPPC   C2B46822  23.360  20.860  22.270
 2094DPPC   C3B46823  23.450  21.140  21.920
 2094DPPC   C4B46824  23.860  21.270  21.790
 2095DPPC   NC346825  24.590   7.110  30.750
 2095DPPC   PO446826  24.270   7.360  31.040
 2095DPPC   GL146827  24.300   6.910  31.160
 2095DPPC   GL246828  24.170   6.730  30.840
 2095DPPC   C1A46829  24.400   6.430  31.160
 2095DPPC   C2A46830  24.450   5.980  31.040
 2095DPPC   C3A46831  24.560   5.630  30.780
 2095DPPC   C4A46832  24.680   5.570  30.420
 2095DPPC   C1B46833  24.210   6.310  30.670
 2095DPPC   C2B46834  24.300   6.280  30.220
 2095DPPC   C3B46835  24.090   6.260  29.710
 2095DPPC   C4B46836  24.070   5.990  29.280
 2096DPPC   NC346837  32.275  13.880  25.600
 2096DPPC   PO446838  32.225  13.820  25.960
 2096DPPC   GL146839  31.835  14.040  25.730
 2096DPPC   GL246840  31.515  13.970  25.750
 2096DPPC   C1A46841  31.635  14.370  25.370
 2096DPPC   C2A46842  31.495  14.660  25.280
 2096DPPC   C3A46843  31.495  15.000  25.410
 2096DPPC   C4A46844  31.315  15.210  25.640
 2096DPPC   C1B46845  31.225  14.000  25.430
 2096DPPC   C2B46846  31.125  14.370  25.220
 2096DPPC   C3B46847  30.815  14.370  25.160
 2096DPPC   C4B46848  30.635  14.690  24.980
 2097DPPC   NC346849  30.765  20.750  39.640
 2097DPPC   PO446850  30.295  20.830  39.810
 2097DPPC   GL146851  29.935  20.820  39.600
 2097DPPC   GL246852  29.995  20.710  39.310
 2097DPPC   C1A46853  29.465  20.660  39.460
 2097DPPC   C2A46854  28.985  20.570  39.350
 2097DPPC   C3A46855  28.625  20.440  39.210
 2097DPPC   C4A46856  28.305  20.680  39.040
 2097DPPC   C1B46857  29.695  20.690  38.950
 2097DPPC   C2B46858  29.295  20.820  39.010
 2097DPPC   C3B46859  28.915  20.890  38.870
 2097DPPC   C4B46860  28.485  21.050  38.830
 2098DPPC   NC346861  17.010  11.940  28.470
 2098DPPC   PO446862  17.230  11.780  28.830
 2098DPPC   GL146863  16.800  11.680  28.830
 2098DPPC   GL246864  16.630  12.030  28.860
 2098DPPC   C1A46865  16.460  11.340  28.860
 2098DPPC   C2A46866  16.080  11.040  28.780
 2098DPPC   C3A46867  15.790  10.740  28.830
 2098DPPC   C4A46868  15.420  10.550  28.550
 2098DPPC   C1B46869  16.380  11.890  29.200
 2098DPPC   C2B46870  16.210  11.560  29.250
 2098DPPC   C3B46871  15.770  11.370  29.090
 2098DPPC   C4B46872  15.340  11.250  29.010
 2099DPPC   NC346873  20.570   4.610  36.430
 2099DPPC   PO446874  20.370   4.680  36.850
 2099DPPC   GL146875  20.300   5.010  36.580
 2099DPPC   GL246876  20.350   5.200  36.910
 2099DPPC   C1A46877  20.190   5.450  36.340
 2099DPPC   C2A46878  20.210   5.880  36.160
 2099DPPC   C3A46879  20.480   6.130  35.880
 2099DPPC   C4A46880  20.410   6.510  35.690
 2099DPPC   C1B46881  20.650   5.410  36.580
 2099DPPC   C2B46882  20.590   5.830  36.430
 2099DPPC   C3B46883  20.710   6.230  36.330
 2099DPPC   C4B46884  20.680   6.550  36.190
 2100DPPC   NC346885  16.690  14.480  24.730
 2100DPPC   PO446886  16.620  14.440  25.140
 2100DPPC   GL146887  16.370  14.130  25.310
 2100DPPC   GL246888  16.060  14.360  25.310
 2100DPPC   C1A46889  16.030  13.870  25.530
 2100DPPC   C2A46890  15.800  13.640  25.280
 2100DPPC   C3A46891  15.430  13.240  25.300
 2100DPPC   C4A46892  15.210  12.870  25.420
 2100DPPC   C1B46893  15.730  14.130  25.130
 2100DPPC   C2B46894  15.350  13.850  25.150
 2100DPPC   C3B46895  15.070  13.540  25.150
 2100DPPC   C4B46896  14.960  13.340  25.430
 2101DPPC   NC346897   9.740  22.850  33.610
 2101DPPC   PO446898   9.770  22.880  33.210
 2101DPPC   GL146899  10.180  22.870  33.400
 2101DPPC   GL246900  10.250  22.710  33.180
 2101DPPC   C1A46901  10.530  22.690  33.600
 2101DPPC   C2A46902  10.830  22.580  33.710
 2101DPPC   C3A46903  11.190  22.440  33.510
 2101DPPC   C4A46904  11.180  22.270  33.100
 2101DPPC   C1B46905  10.560  22.980  33.000
 2101DPPC   C2B46906  10.970  23.010  32.850
 2101DPPC   C3B46907  11.350  22.750  32.940
 2101DPPC   C4B46908  11.560  22.600  32.660
 2102DPPC   NC346909  28.615  22.840  34.100
 2102DPPC   PO446910  28.885  22.460  34.120
 2102DPPC   GL146911  28.455  22.420  34.220
 2102DPPC   GL246912  28.425  22.220  33.930
 2102DPPC   C1A46913  28.035  22.370  34.330
 2102DPPC   C2A46914  27.695  22.100  34.330
 2102DPPC   C3A46915  27.295  21.910  34.350
 2102DPPC   C4A46916  26.915  21.650  34.200
 2102DPPC   C1B46917  28.265  21.890  33.940
 2102DPPC   C2B46918  28.025  21.690  34.220
 2102DPPC   C3B46919  27.645  21.540  34.410
 2102DPPC   C4B46920  27.285  21.320  34.470
 2103DPPC   NC346921  10.400  24.760  32.360
 2103DPPC   PO446922  10.390  24.300  32.320
 2103DPPC   GL146923  10.760  24.210  32.360
 2103DPPC   GL246924  11.050  24.380  32.350
 2103DPPC   C1A46925  10.900  23.830  32.280
 2103DPPC   C2A46926  11.270  23.650  32.140
 2103DPPC   C3A46927  11.760  23.570  32.200
 2103DPPC   C4A46928  12.100  23.360  32.060
 2103DPPC   C1B46929  11.330  24.570  32.430
 2103DPPC   C2B46930  11.710  24.640  32.360
 2103DPPC   C3B46931  12.040  24.350  32.340
 2103DPPC   C4B46932  12.360  24.290  32.610
 2104DPPC   NC346933  23.270   9.200  25.610
 2104DPPC   PO446934  23.270   8.790  25.830
 2104DPPC   GL146935  23.270   8.340  25.780
 2104DPPC   GL246936  23.220   8.180  26.130
 2104DPPC   C1A46937  23.120   7.990  25.650
 2104DPPC   C2A46938  23.180   7.660  25.400
 2104DPPC   C3A46939  23.200   7.310  25.140
 2104DPPC   C4A46940  23.150   6.930  24.920
 2104DPPC   C1B46941  22.950   7.760  26.070
 2104DPPC   C2B46942  22.860   7.430  25.900
 2104DPPC   C3B46943  22.930   7.180  25.610
 2104DPPC   C4B46944  22.680   7.000  25.290
 2105DPPC   NC346945  24.920  17.980  47.260
 2105DPPC   PO446946  25.330  18.090  46.970
 2105DPPC   GL146947  25.330  18.020  46.460
 2105DPPC   GL246948  25.080  18.170  46.350
 2105DPPC   C1A46949  25.380  17.810  46.040
 2105DPPC   C2A46950  25.060  17.660  45.690
 2105DPPC   C3A46951  24.610  17.470  45.500
 2105DPPC   C4A46952  24.370  17.440  45.170
 2105DPPC   C1B46953  24.970  18.280  45.900
 2105DPPC   C2B46954  24.980  18.210  45.450
 2105DPPC   C3B46955  24.890  17.820  45.230
 2105DPPC   C4B46956  24.740  17.760  44.820
 2106DPPC   NC346957  22.840  11.640  41.270
 2106DPPC   PO446958  23.240  11.480  41.100
 2106DPPC   GL146959  23.010  11.220  41.430
 2106DPPC   GL246960  23.330  11.220  41.700
 2106DPPC   C1A46961  22.690  10.810  41.410
 2106DPPC   C2A46962  22.460  10.440  41.470
 2106DPPC   C3A46963  22.170  10.250  41.700
 2106DPPC   C4A46964  21.880  10.030  41.530
 2106DPPC   C1B46965  23.180  10.850  41.830
 2106DPPC   C2B46966  22.800  10.590  41.880
 2106DPPC   C3B46967  22.520  10.450  42.240
 2106DPPC   C4B46968  22.300  10.420  42.520
 2107DPPC   NC346969   9.380  22.180  33.010
 2107DPPC   PO446970   9.590  22.130  33.370
 2107DPPC   GL146971   9.900  22.040  33.030
 2107DPPC   GL246972   9.790  21.700  32.860
 2107DPPC   C1A46973  10.290  22.210  32.840
 2107DPPC   C2A46974  10.660  22.340  32.610
 2107DPPC   C3A46975  10.870  22.550  32.730
 2107DPPC   C4A46976  10.820  22.580  33.180
 2107DPPC   C1B46977  10.260  21.740  32.780
 2107DPPC   C2B46978  10.700  21.780  32.610
 2107DPPC   C3B46979  10.840  21.830  32.170
 2107DPPC   C4B46980  10.730  21.840  31.760
 2108DPPC   NC346981  28.155  10.040  27.490
 2108DPPC   PO446982  27.955  10.080  27.070
 2108DPPC   GL146983  28.265   9.830  27.010
 2108DPPC   GL246984  28.455   9.740  27.160
 2108DPPC   C1A46985  28.505   9.890  26.630
 2108DPPC   C2A46986  28.785   9.830  26.330
 2108DPPC   C3A46987  29.205   9.650  26.270
 2108DPPC   C4A46988  29.365   9.250  26.160
 2108DPPC   C1B46989  28.625   9.460  26.850
 2108DPPC   C2B46990  28.915   9.060  26.940
 2108DPPC   C3B46991  29.155   8.840  27.210
 2108DPPC   C4B46992  29.385   8.570  27.140
 2109DPPC   NC346993  24.930   2.720  32.520
 2109DPPC   PO446994  25.020   3.110  32.620
 2109DPPC   GL146995  24.870   3.490  32.530
 2109DPPC   GL246996  25.040   3.740  32.630
 2109DPPC   C1A46997  24.740   3.810  32.200
 2109DPPC   C2A46998  24.930   4.230  32.090
 2109DPPC   C3A46999  24.780   4.690  32.110
 2109DPPC   C4A47000  24.620   5.080  32.120
 2109DPPC   C1B47001  24.580   3.850  32.660
 2109DPPC   C2B47002  24.300   4.230  32.460
 2109DPPC   C3B47003  24.280   4.690  32.240
 2109DPPC   C4B47004  23.940   5.080  32.100
 2110DPPC   NC347005  19.490   2.270  31.910
 2110DPPC   PO447006  19.150   2.350  31.640
 2110DPPC   GL147007  19.210   2.060  31.430
 2110DPPC   GL247008  19.410   1.860  31.540
 2110DPPC   C1A47009  19.080   1.700  31.150
 2110DPPC   C2A47010  19.400   1.610  30.790
 2110DPPC   C3A47011  19.760   1.380  30.710
 2110DPPC   C4A47012  19.850   1.010  31.040
 2110DPPC   C1B47013  19.190   1.500  31.600
 2110DPPC   C2B47014  18.910   1.270  31.890
 2110DPPC   C3B47015  19.050   0.790  32.060
 2110DPPC   C4B47016  19.210   0.670  32.430
 2111DPPC   NC347017  16.110  17.370  45.890
 2111DPPC   PO447018  16.030  17.410  45.460
 2111DPPC   GL147019  16.370  17.650  45.200
 2111DPPC   GL247020  16.410  17.730  44.860
 2111DPPC   C1A47021  16.770  17.950  45.150
 2111DPPC   C2A47022  17.100  18.120  45.030
 2111DPPC   C3A47023  17.190  18.230  44.670
 2111DPPC   C4A47024  17.560  18.420  44.460
 2111DPPC   C1B47025  16.390  17.590  44.540
 2111DPPC   C2B47026  16.130  17.340  44.210
 2111DPPC   C3B47027  16.310  17.090  43.860
 2111DPPC   C4B47028  16.770  16.940  43.890
 2112DPPC   NC347029  21.190  18.850  47.750
 2112DPPC   PO447030  21.510  19.020  47.590
 2112DPPC   GL147031  21.400  18.940  47.210
 2112DPPC   GL247032  21.610  18.980  46.950
 2112DPPC   C1A47033  21.100  19.090  46.880
 2112DPPC   C2A47034  21.070  19.090  46.540
 2112DPPC   C3A47035  20.930  18.880  46.060
 2112DPPC   C4A47036  20.660  18.940  45.740
 2112DPPC   C1B47037  21.580  18.700  46.620
 2112DPPC   C2B47038  21.500  18.750  46.080
 2112DPPC   C3B47039  21.760  19.040  45.940
 2112DPPC   C4B47040  22.160  18.990  45.730
 2113DPPC   NC347041  24.030   5.950  40.940
 2113DPPC   PO447042  23.620   6.130  40.760
 2113DPPC   GL147043  23.550   6.310  40.370
 2113DPPC   GL247044  23.470   6.540  40.410
 2113DPPC   C1A47045  23.480   6.470  39.940
 2113DPPC   C2A47046  23.520   6.700  39.580
 2113DPPC   C3A47047  23.760   6.940  39.330
 2113DPPC   C4A47048  23.740   7.130  38.900
 2113DPPC   C1B47049  23.110   6.930  40.510
 2113DPPC   C2B47050  22.800   7.140  40.430
 2113DPPC   C3B47051  22.500   7.270  40.680
 2113DPPC   C4B47052  22.360   7.550  41.010
 2114DPPC   NC347053  20.690  16.030  43.300
 2114DPPC   PO447054  21.020  16.290  43.600
 2114DPPC   GL147055  20.690  16.370  43.930
 2114DPPC   GL247056  20.320  16.460  43.810
 2114DPPC   C1A47057  20.580  16.470  44.340
 2114DPPC   C2A47058  20.580  16.490  44.750
 2114DPPC   C3A47059  20.240  16.500  45.040
 2114DPPC   C4A47060  19.830  16.600  45.270
 2114DPPC   C1B47061  20.290  16.800  44.090
 2114DPPC   C2B47062  20.190  16.790  44.570
 2114DPPC   C3B47063  19.800  16.810  44.800
 2114DPPC   C4B47064  19.500  16.510  44.690
 2115DPPC   NC347065  12.370  14.200  40.810
 2115DPPC   PO447066  12.380  13.940  40.440
 2115DPPC   GL147067  12.750  14.200  40.340
 2115DPPC   GL247068  12.720  14.490  40.630
 2115DPPC   C1A47069  13.190  14.370  40.380
 2115DPPC   C2A47070  13.610  14.540  40.530
 2115DPPC   C3A47071  14.020  14.680  40.440
 2115DPPC   C4A47072  14.500  14.700  40.570
 2115DPPC   C1B47073  12.550  14.630  40.210
 2115DPPC   C2B47074  12.670  14.850  39.870
 2115DPPC   C3B47075  12.940  15.000  39.550
 2115DPPC   C4B47076  13.320  14.960  39.340
 2116DPPC   NC347077  18.140  11.530  44.610
 2116DPPC   PO447078  18.060  11.450  44.290
 2116DPPC   GL147079  18.440  11.430  43.980
 2116DPPC   GL247080  18.550  11.260  43.740
 2116DPPC   C1A47081  18.840  11.660  43.780
 2116DPPC   C2A47082  19.050  11.970  43.560
 2116DPPC   C3A47083  19.410  12.240  43.690
 2116DPPC   C4A47084  19.620  12.160  44.070
 2116DPPC   C1B47085  18.450  11.320  43.270
 2116DPPC   C2B47086  18.650  11.620  42.870
 2116DPPC   C3B47087  18.600  11.610  42.400
 2116DPPC   C4B47088  18.900  11.600  42.060
 2117DPPC   NC347089  13.520  15.380  20.760
 2117DPPC   PO447090  13.530  14.980  20.890
 2117DPPC   GL147091  13.900  15.180  21.070
 2117DPPC   GL247092  13.930  15.500  20.960
 2117DPPC   C1A47093  13.990  15.230  21.480
 2117DPPC   C2A47094  14.110  15.400  21.850
 2117DPPC   C3A47095  14.450  15.540  22.120
 2117DPPC   C4A47096  14.680  15.220  22.220
 2117DPPC   C1B47097  14.190  15.840  20.840
 2117DPPC   C2B47098  14.370  16.180  21.110
 2117DPPC   C3B47099  14.510  16.550  21.370
 2117DPPC   C4B47100  14.660  16.650  21.740
 2118DPPC   NC347101   9.960  21.520  36.430
 2118DPPC   PO447102   9.970  21.400  35.960
 2118DPPC   GL147103  10.400  21.300  36.150
 2118DPPC   GL247104  10.500  20.810  36.210
 2118DPPC   C1A47105  10.770  21.290  35.910
 2118DPPC   C2A47106  11.160  21.410  35.860
 2118DPPC   C3A47107  11.610  21.390  35.800
 2118DPPC   C4A47108  11.870  21.010  35.670
 2118DPPC   C1B47109  10.900  20.900  36.180
 2118DPPC   C2B47110  11.240  20.790  36.340
 2118DPPC   C3B47111  11.620  20.370  36.470
 2118DPPC   C4B47112  12.030  20.360  36.250
 2119DPPC   NC347113  23.690  25.980  40.490
 2119DPPC   PO447114  24.030  26.040  40.260
 2119DPPC   GL147115  23.930  25.680  40.100
 2119DPPC   GL247116  24.110  25.690  39.880
 2119DPPC   C1A47117  23.920  25.340  40.340
 2119DPPC   C2A47118  23.890  25.010  40.180
 2119DPPC   C3A47119  23.830  24.690  39.890
 2119DPPC   C4A47120  23.680  24.290  39.760
 2119DPPC   C1B47121  23.810  25.340  39.800
 2119DPPC   C2B47122  23.540  25.100  39.570
 2119DPPC   C3B47123  23.280  24.800  39.480
 2119DPPC   C4B47124  22.980  24.490  39.330
 2120DPPC   NC347125  19.350  22.120  24.210
 2120DPPC   PO447126  19.350  22.070  23.750
 2120DPPC   GL147127  19.700  22.230  23.460
 2120DPPC   GL247128  19.960  22.510  23.560
 2120DPPC   C1A47129  19.920  22.260  23.090
 2120DPPC   C2A47130  19.840  22.590  22.700
 2120DPPC   C3A47131  19.830  22.450  22.280
 2120DPPC   C4A47132  19.690  22.370  21.880
 2120DPPC   C1B47133  20.130  22.790  23.230
 2120DPPC   C2B47134  20.310  23.040  22.980
 2120DPPC   C3B47135  20.100  23.020  22.620
 2120DPPC   C4B47136  19.940  22.950  22.160
 2121DPPC   NC347137  21.620  12.840  17.150
 2121DPPC   PO447138  21.510  12.500  17.500
 2121DPPC   GL147139  21.440  12.670  17.840
 2121DPPC   GL247140  21.380  12.990  17.640
 2121DPPC   C1A47141  21.550  12.850  18.160
 2121DPPC   C2A47142  21.460  12.920  18.660
 2121DPPC   C3A47143  21.420  12.960  19.130
 2121DPPC   C4A47144  21.170  12.830  19.430
 2121DPPC   C1B47145  21.250  13.340  17.880
 2121DPPC   C2B47146  21.010  13.550  18.190
 2121DPPC   C3B47147  21.050  13.890  18.400
 2121DPPC   C4B47148  21.170  14.280  18.340
 2122DPPC   NC347149  28.365   8.970  42.920
 2122DPPC   PO447150  27.955   8.630  42.840
 2122DPPC   GL147151  27.925   9.000  42.640
 2122DPPC   GL247152  28.195   8.910  42.370
 2122DPPC   C1A47153  27.905   9.350  42.320
 2122DPPC   C2A47154  27.625   9.330  41.990
 2122DPPC   C3A47155  27.345   9.040  42.000
 2122DPPC   C4A47156  27.235   8.650  41.890
 2122DPPC   C1B47157  28.015   9.050  41.910
 2122DPPC   C2B47158  28.115   9.000  41.520
 2122DPPC   C3B47159  28.325   8.720  41.170
 2122DPPC   C4B47160  28.475   8.460  40.910
 2123DPPC   NC347161  24.610  18.230  22.910
 2123DPPC   PO447162  24.240  18.140  22.540
 2123DPPC   GL147163  24.500  18.310  22.290
 2123DPPC   GL247164  24.450  18.510  22.090
 2123DPPC   C1A47165  25.010  18.330  22.270
 2123DPPC   C2A47166  25.260  18.520  22.030
 2123DPPC   C3A47167  25.610  18.760  22.010
 2123DPPC   C4A47168  26.010  18.650  21.990
 2123DPPC   C1B47169  24.800  18.810  21.950
 2123DPPC   C2B47170  25.190  19.050  21.900
 2123DPPC   C3B47171  25.180  19.480  21.700
 2123DPPC   C4B47172  24.960  19.830  21.630
 2124DPPC   NC347173  10.610  25.430  27.630
 2124DPPC   PO447174  10.840  25.410  27.990
 2124DPPC   GL147175  11.140  25.150  28.180
 2124DPPC   GL247176  11.410  25.170  28.090
 2124DPPC   C1A47177  11.290  24.800  28.350
 2124DPPC   C2A47178  11.680  24.590  28.260
 2124DPPC   C3A47179  12.070  24.500  28.390
 2124DPPC   C4A47180  12.470  24.340  28.530
 2124DPPC   C1B47181  11.690  25.120  28.390
 2124DPPC   C2B47182  12.110  25.180  28.520
 2124DPPC   C3B47183  12.420  24.960  28.530
 2124DPPC   C4B47184  12.830  25.030  28.470
 2125DPPC   NC347185  13.920  22.600  30.760
 2125DPPC   PO447186  13.690  22.620  31.090
 2125DPPC   GL147187  13.400  22.980  31.130
 2125DPPC   GL247188  13.110  22.740  31.150
 2125DPPC   C1A47189  13.070  23.290  31.110
 2125DPPC   C2A47190  12.750  23.430  31.300
 2125DPPC   C3A47191  12.730  23.420  31.670
 2125DPPC   C4A47192  12.850  23.690  32.040
 2125DPPC   C1B47193  12.790  22.930  30.850
 2125DPPC   C2B47194  12.390  22.950  30.720
 2125DPPC   C3B47195  12.070  23.010  30.670
 2125DPPC   C4B47196  11.800  23.170  30.810
 2126DPPC   NC347197  21.800  17.160  31.450
 2126DPPC   PO447198  21.840  17.660  31.650
 2126DPPC   GL147199  21.970  17.740  31.250
 2126DPPC   GL247200  21.920  17.480  31.020
 2126DPPC   C1A47201  22.250  18.130  31.190
 2126DPPC   C2A47202  22.460  18.430  31.010
 2126DPPC   C3A47203  22.340  18.850  30.710
 2126DPPC   C4A47204  22.220  19.180  30.570
 2126DPPC   C1B47205  22.390  17.620  31.020
 2126DPPC   C2B47206  22.670  17.890  30.870
 2126DPPC   C3B47207  23.000  17.830  30.590
 2126DPPC   C4B47208  23.360  17.570  30.580
 2127DPPC   NC347209  17.370  24.210  30.380
 2127DPPC   PO447210  17.650  24.510  30.230
 2127DPPC   GL147211  17.630  24.880  30.060
 2127DPPC   GL247212  17.630  24.710  29.740
 2127DPPC   C1A47213  17.490  25.350  29.960
 2127DPPC   C2A47214  17.510  25.830  30.040
 2127DPPC   C3A47215  17.390  26.310  30.180
 2127DPPC   C4A47216  17.740   0.070  30.420
 2127DPPC   C1B47217  17.740  25.060  29.620
 2127DPPC   C2B47218  17.640  25.390  29.490
 2127DPPC   C3B47219  17.430  25.790  29.550
 2127DPPC   C4B47220  17.450  26.180  29.590
 2128DPPC   NC347221  22.550   9.840  38.450
 2128DPPC   PO447222  22.150   9.610  38.350
 2128DPPC   GL147223  21.910   9.240  38.460
 2128DPPC   GL247224  21.700   9.350  38.600
 2128DPPC   C1A47225  22.080   8.840  38.560
 2128DPPC   C2A47226  21.920   8.410  38.500
 2128DPPC   C3A47227  21.490   8.320  38.410
 2128DPPC   C4A47228  21.280   8.070  38.250
 2128DPPC   C1B47229  21.720   9.190  38.960
 2128DPPC   C2B47230  21.800   9.060  39.330
 2128DPPC   C3B47231  21.760   8.800  39.660
 2128DPPC   C4B47232  21.730   8.480  40.070
 2129DPPC   NC347233  22.090  21.720  25.920
 2129DPPC   PO447234  22.100  21.630  25.520
 2129DPPC   GL147235  22.260  21.980  25.500
 2129DPPC   GL247236  22.160  22.180  25.340
 2129DPPC   C1A47237  22.600  22.330  25.570
 2129DPPC   C2A47238  22.920  22.590  25.780
 2129DPPC   C3A47239  23.320  22.870  25.740
 2129DPPC   C4A47240  23.380  23.250  25.550
 2129DPPC   C1B47241  22.320  22.420  25.070
 2129DPPC   C2B47242  22.550  22.720  25.190
 2129DPPC   C3B47243  22.910  22.930  25.360
 2129DPPC   C4B47244  23.350  22.880  25.130
 2130DPPC   NC347245  23.570  21.260  34.160
 2130DPPC   PO447246  23.950  21.090  34.250
 2130DPPC   GL147247  24.280  21.410  34.190
 2130DPPC   GL247248  24.530  21.610  34.330
 2130DPPC   C1A47249  24.390  21.760  33.880
 2130DPPC   C2A47250  24.620  21.920  33.490
 2130DPPC   C3A47251  24.670  22.280  33.270
 2130DPPC   C4A47252  24.890  22.680  33.410
 2130DPPC   C1B47253  24.780  21.930  34.200
 2130DPPC   C2B47254  25.170  22.120  34.250
 2130DPPC   C3B47255  25.640  22.180  34.270
 2130DPPC   C4B47256  26.050  22.080  34.330
 2131DPPC   NC347257  24.410   7.420  33.230
 2131DPPC   PO447258  24.300   7.140  33.630
 2131DPPC   GL147259  24.320   6.720  33.580
 2131DPPC   GL247260  24.440   6.520  33.470
 2131DPPC   C1A47261  23.970   6.420  33.640
 2131DPPC   C2A47262  24.020   6.000  33.940
 2131DPPC   C3A47263  24.290   5.670  34.190
 2131DPPC   C4A47264  24.470   5.500  34.620
 2131DPPC   C1B47265  24.660   6.210  33.390
 2131DPPC   C2B47266  24.670   5.780  33.420
 2131DPPC   C3B47267  24.960   5.450  33.580
 2131DPPC   C4B47268  25.150   5.100  33.510
 2132DPPC   NC347269  26.360   3.320  36.530
 2132DPPC   PO447270  26.140   3.650  36.570
 2132DPPC   GL147271  26.070   4.110  36.560
 2132DPPC   GL247272  25.880   4.250  36.790
 2132DPPC   C1A47273  25.920   4.390  36.150
 2132DPPC   C2A47274  25.600   4.260  35.870
 2132DPPC   C3A47275  25.080   4.180  35.720
 2132DPPC   C4A47276  24.730   4.260  35.560
 2132DPPC   C1B47277  25.860   4.610  36.910
 2132DPPC   C2B47278  25.830   5.040  36.770
 2132DPPC   C3B47279  25.570   5.340  36.480
 2132DPPC   C4B47280  25.460   5.520  36.020
 2133DPPC   NC347281  22.840   0.380  26.340
 2133DPPC   PO447282  22.550   0.600  26.670
 2133DPPC   GL147283  22.380   0.190  26.890
 2133DPPC   GL247284  22.090   0.210  27.140
 2133DPPC   C1A47285  22.210  26.300  26.800
 2133DPPC   C2A47286  22.210  25.960  26.440
 2133DPPC   C3A47287  22.500  25.830  26.190
 2133DPPC   C4A47288  22.830  25.470  26.180
 2133DPPC   C1B47289  22.080  26.350  27.470
 2133DPPC   C2B47290  22.010  25.990  27.490
 2133DPPC   C3B47291  22.060  25.560  27.520
 2133DPPC   C4B47292  22.220  25.350  27.170
 2134DPPC   NC347293  21.110  16.040  47.610
 2134DPPC   PO447294  21.490  15.800  47.470
 2134DPPC   GL147295  21.570  15.800  47.020
 2134DPPC   GL247296  21.930  15.690  46.980
 2134DPPC   C1A47297  21.560  15.490  46.540
 2134DPPC   C2A47298  21.630  15.560  46.090
 2134DPPC   C3A47299  21.970  15.560  45.790
 2134DPPC   C4A47300  22.420  15.630  45.630
 2134DPPC   C1B47301  22.090  15.660  46.570
 2134DPPC   C2B47302  22.250  15.470  46.200
 2134DPPC   C3B47303  22.260  15.190  45.980
 2134DPPC   C4B47304  21.840  15.060  45.750
 2135DPPC   NC347305  18.920   6.470  39.210
 2135DPPC   PO447306  18.930   6.410  39.680
 2135DPPC   GL147307  19.240   6.770  39.510
 2135DPPC   GL247308  19.650   6.770  39.470
 2135DPPC   C1A47309  19.400   7.120  39.270
 2135DPPC   C2A47310  19.600   7.480  38.980
 2135DPPC   C3A47311  19.720   7.740  38.690
 2135DPPC   C4A47312  19.870   7.890  38.310
 2135DPPC   C1B47313  19.810   7.150  39.500
 2135DPPC   C2B47314  19.930   7.480  39.340
 2135DPPC   C3B47315  20.100   7.650  39.030
 2135DPPC   C4B47316  20.180   8.000  38.740
 2136DPPC   NC347317  23.690  20.740  26.170
 2136DPPC   PO447318  23.780  20.550  26.580
 2136DPPC   GL147319  24.040  21.010  26.530
 2136DPPC   GL247320  23.890  21.290  26.710
 2136DPPC   C1A47321  24.300  21.320  26.460
 2136DPPC   C2A47322  24.630  21.640  26.190
 2136DPPC   C3A47323  24.620  21.990  25.870
 2136DPPC   C4A47324  24.890  22.190  25.680
 2136DPPC   C1B47325  24.070  21.670  26.660
 2136DPPC   C2B47326  24.200  21.910  26.470
 2136DPPC   C3B47327  24.650  22.130  26.380
 2136DPPC   C4B47328  24.900  22.510  26.600
 2137DPPC   NC347329  22.750  23.480  45.150
 2137DPPC   PO447330  22.780  23.150  45.060
 2137DPPC   GL147331  22.890  22.840  44.810
 2137DPPC   GL247332  23.040  22.580  44.790
 2137DPPC   C1A47333  22.750  22.610  44.380
 2137DPPC   C2A47334  22.540  22.640  43.950
 2137DPPC   C3A47335  22.200  22.390  43.780
 2137DPPC   C4A47336  21.950  22.060  43.570
 2137DPPC   C1B47337  22.740  22.230  44.820
 2137DPPC   C2B47338  22.420  21.950  44.590
 2137DPPC   C3B47339  22.150  21.750  44.340
 2137DPPC   C4B47340  21.970  21.580  44.040
 2138DPPC   NC347341  23.970   0.690  36.510
 2138DPPC   PO447342  23.620   0.920  36.330
 2138DPPC   GL147343  23.570   0.520  36.210
 2138DPPC   GL247344  23.930   0.390  36.130
 2138DPPC   C1A47345  23.580   0.220  35.860
 2138DPPC   C2A47346  23.400  26.445  35.520
 2138DPPC   C3A47347  23.190  25.980  35.340
 2138DPPC   C4A47348  22.800  25.840  35.370
 2138DPPC   C1B47349  24.070   0.040  36.340
 2138DPPC   C2B47350  23.840  26.110  36.320
 2138DPPC   C3B47351  23.740  25.690  36.470
 2138DPPC   C4B47352  23.900  25.620  36.830
 2139DPPC   NC347353  27.765  21.930  31.560
 2139DPPC   PO447354  27.335  21.760  31.360
 2139DPPC   GL147355  27.065  21.520  31.570
 2139DPPC   GL247356  27.145  21.330  31.750
 2139DPPC   C1A47357  26.685  21.550  31.710
 2139DPPC   C2A47358  26.270  21.570  31.590
 2139DPPC   C3A47359  25.980  21.230  31.700
 2139DPPC   C4A47360  25.710  20.920  31.670
 2139DPPC   C1B47361  26.825  21.120  31.780
 2139DPPC   C2B47362  26.370  20.960  31.850
 2139DPPC   C3B47363  26.130  20.950  32.170
 2139DPPC   C4B47364  26.060  21.070  32.580
 2140DPPC   NC347365  18.120  26.270  41.480
 2140DPPC   PO447366  18.010  26.390  41.020
 2140DPPC   GL147367  18.310  26.050  40.870
 2140DPPC   GL247368  18.550  26.110  41.010
 2140DPPC   C1A47369  18.470  25.650  40.690
 2140DPPC   C2A47370  18.640  25.330  40.480
 2140DPPC   C3A47371  18.980  25.000  40.340
 2140DPPC   C4A47372  19.250  24.760  40.690
 2140DPPC   C1B47373  18.740  25.750  41.120
 2140DPPC   C2B47374  18.880  25.390  40.990
 2140DPPC   C3B47375  18.780  24.960  40.820
 2140DPPC   C4B47376  18.740  24.460  40.920
 2141DPPC   NC347377  18.450   2.230  28.460
 2141DPPC   PO447378  18.920   2.220  28.420
 2141DPPC   GL147379  18.830   1.760  28.390
 2141DPPC   GL247380  18.480   1.700  28.230
 2141DPPC   C1A47381  18.910   1.430  28.180
 2141DPPC   C2A47382  18.580   1.070  28.180
 2141DPPC   C3A47383  18.400   0.640  28.140
 2141DPPC   C4A47384  18.180   0.260  28.050
 2141DPPC   C1B47385  18.260   1.450  28.340
 2141DPPC   C2B47386  17.950   1.390  28.700
 2141DPPC   C3B47387  17.730   0.980  28.770
 2141DPPC   C4B47388  17.670   0.590  28.930
 2142DPPC   NC347389  21.410   8.570  31.550
 2142DPPC   PO447390  21.470   8.350  31.880
 2142DPPC   GL147391  21.360   7.890  31.780
 2142DPPC   GL247392  21.290   7.860  31.390
 2142DPPC   C1A47393  21.310   7.490  31.990
 2142DPPC   C2A47394  21.040   7.320  32.330
 2142DPPC   C3A47395  20.670   7.310  32.560
 2142DPPC   C4A47396  20.210   7.440  32.750
 2142DPPC   C1B47397  20.980   7.570  31.550
 2142DPPC   C2B47398  20.830   7.170  31.610
 2142DPPC   C3B47399  20.390   6.940  31.740
 2142DPPC   C4B47400  20.210   6.760  31.430
 2143DPPC   NC347401  24.370  24.760  23.890
 2143DPPC   PO447402  24.380  25.050  24.270
 2143DPPC   GL147403  23.930  24.760  24.150
 2143DPPC   GL247404  23.940  24.480  23.890
 2143DPPC   C1A47405  23.540  24.530  24.210
 2143DPPC   C2A47406  23.360  24.220  24.110
 2143DPPC   C3A47407  22.980  23.920  24.070
 2143DPPC   C4A47408  22.700  23.840  24.370
 2143DPPC   C1B47409  23.900  24.060  23.980
 2143DPPC   C2B47410  23.930  23.600  23.860
 2143DPPC   C3B47411  23.660  23.330  23.780
 2143DPPC   C4B47412  23.670  22.880  23.740
 2144DPPC   NC347413  19.230   5.050  29.740
 2144DPPC   PO447414  19.490   5.020  30.020
 2144DPPC   GL147415  19.670   5.390  29.850
 2144DPPC   GL247416  19.710   5.480  29.510
 2144DPPC   C1A47417  20.110   5.580  29.770
 2144DPPC   C2A47418  20.380   5.860  29.880
 2144DPPC   C3A47419  20.320   6.150  30.190
 2144DPPC   C4A47420  20.230   6.390  30.550
 2144DPPC   C1B47421  19.810   5.770  29.330
 2144DPPC   C2B47422  19.950   6.220  29.490
 2144DPPC   C3B47423  20.010   6.600  29.330
 2144DPPC   C4B47424  20.010   6.980  29.060
 2145DPPC   NC347425  16.040  23.290  43.740
 2145DPPC   PO447426  16.430  23.330  43.860
 2145DPPC   GL147427  16.680  23.340  43.500
 2145DPPC   GL247428  16.820  23.020  43.620
 2145DPPC   C1A47429  17.050  23.330  43.210
 2145DPPC   C2A47430  17.210  23.160  42.900
 2145DPPC   C3A47431  17.560  22.880  42.840
 2145DPPC   C4A47432  17.570  22.470  43.030
 2145DPPC   C1B47433  16.770  22.870  43.300
 2145DPPC   C2B47434  16.990  22.770  42.890
 2145DPPC   C3B47435  17.250  22.500  42.660
 2145DPPC   C4B47436  17.520  22.230  42.430
 2146DPPC   NC347437  16.410   2.650  35.970
 2146DPPC   PO447438  16.690   2.290  35.840
 2146DPPC   GL147439  16.650   1.820  35.850
 2146DPPC   GL247440  16.530   1.590  35.600
 2146DPPC   C1A47441  16.780   1.520  36.080
 2146DPPC   C2A47442  17.110   1.200  36.380
 2146DPPC   C3A47443  17.410   0.930  36.210
 2146DPPC   C4A47444  17.560   0.690  35.930
 2146DPPC   C1B47445  16.930   1.730  35.460
 2146DPPC   C2B47446  17.410   1.690  35.390
 2146DPPC   C3B47447  17.770   1.810  35.720
 2146DPPC   C4B47448  18.260   1.710  35.710
 2147DPPC   NC347449  16.800  16.490  46.040
 2147DPPC   PO447450  16.870  16.940  45.830
 2147DPPC   GL147451  17.180  17.140  45.620
 2147DPPC   GL247452  17.210  17.410  45.720
 2147DPPC   C1A47453  17.530  17.250  45.330
 2147DPPC   C2A47454  17.780  17.420  45.230
 2147DPPC   C3A47455  17.800  17.990  45.310
 2147DPPC   C4A47456  17.520  18.350  45.340
 2147DPPC   C1B47457  17.320  17.650  45.460
 2147DPPC   C2B47458  17.360  17.730  45.070
 2147DPPC   C3B47459  17.480  17.720  44.640
 2147DPPC   C4B47460  17.660  18.140  44.850
 2148DPPC   NC347461  26.020  17.580  25.580
 2148DPPC   PO447462  26.050  17.480  25.140
 2148DPPC   GL147463  26.310  17.850  25.120
 2148DPPC   GL247464  26.440  17.920  25.470
 2148DPPC   C1A47465  26.695  18.150  25.140
 2148DPPC   C2A47466  27.005  18.330  25.020
 2148DPPC   C3A47467  27.145  18.750  24.980
 2148DPPC   C4A47468  27.165  19.220  24.900
 2148DPPC   C1B47469  26.845  17.730  25.340
 2148DPPC   C2B47470  27.175  17.700  25.260
 2148DPPC   C3B47471  27.585  17.910  25.080
 2148DPPC   C4B47472  28.005  17.700  25.110
 2149DPPC   NC347473  21.310   1.650  28.220
 2149DPPC   PO447474  21.110   1.310  28.370
 2149DPPC   GL147475  20.940   1.110  28.600
 2149DPPC   GL247476  20.480   1.140  28.620
 2149DPPC   C1A47477  20.740   0.960  29.010
 2149DPPC   C2A47478  20.750   0.860  29.470
 2149DPPC   C3A47479  20.450   0.690  29.910
 2149DPPC   C4A47480  20.170   0.400  30.100
 2149DPPC   C1B47481  20.160   0.910  28.860
 2149DPPC   C2B47482  19.870   0.640  28.960
 2149DPPC   C3B47483  19.560   0.300  28.880
 2149DPPC   C4B47484  19.290   0.030  28.980
 2150DPPC   NC347485  10.010  21.510  35.440
 2150DPPC   PO447486   9.900  21.700  35.080
 2150DPPC   GL147487  10.370  21.550  35.070
 2150DPPC   GL247488  10.340  21.470  34.680
 2150DPPC   C1A47489  10.820  21.550  35.190
 2150DPPC   C2A47490  11.250  21.510  35.330
 2150DPPC   C3A47491  11.640  21.300  35.340
 2150DPPC   C4A47492  12.050  21.110  35.170
 2150DPPC   C1B47493  10.590  21.120  35.070
 2150DPPC   C2B47494  10.740  20.580  35.220
 2150DPPC   C3B47495  11.040  20.300  35.160
 2150DPPC   C4B47496  11.040  19.870  35.160
 2151DPPC   NC347497  29.315   4.720  33.280
 2151DPPC   PO447498  28.965   4.440  33.090
 2151DPPC   GL147499  28.825   4.850  33.190
 2151DPPC   GL247500  29.055   4.990  32.910
 2151DPPC   C1A47501  28.705   5.250  33.090
 2151DPPC   C2A47502  28.765   5.650  33.290
 2151DPPC   C3A47503  28.505   5.860  33.300
 2151DPPC   C4A47504  28.245   5.600  33.530
 2151DPPC   C1B47505  29.495   5.190  32.810
 2151DPPC   C2B47506  29.845   5.440  32.720
 2151DPPC   C3B47507  30.035   5.730  32.800
 2151DPPC   C4B47508  30.445   5.980  32.950
 2152DPPC   NC347509  28.905  21.240  42.700
 2152DPPC   PO447510  28.555  21.280  42.710
 2152DPPC   GL147511  28.355  20.980  42.330
 2152DPPC   GL247512  28.245  21.120  42.060
 2152DPPC   C1A47513  28.275  20.530  42.340
 2152DPPC   C2A47514  27.905  20.320  42.490
 2152DPPC   C3A47515  27.525  20.070  42.560
 2152DPPC   C4A47516  27.065  20.140  42.610
 2152DPPC   C1B47517  27.875  20.710  42.140
 2152DPPC   C2B47518  27.545  20.620  42.310
 2152DPPC   C3B47519  27.195  20.230  42.180
 2152DPPC   C4B47520  27.165  19.770  42.110
 2153DPPC   NC347521  19.070  11.570  25.830
 2153DPPC   PO447522  18.920  11.410  26.140
 2153DPPC   GL147523  18.760  11.110  25.890
 2153DPPC   GL247524  18.530  11.130  25.580
 2153DPPC   C1A47525  18.370  10.840  25.970
 2153DPPC   C2A47526  18.030  10.850  25.740
 2153DPPC   C3A47527  17.690  10.680  25.460
 2153DPPC   C4A47528  17.330  10.710  25.370
 2153DPPC   C1B47529  18.530  10.640  25.490
 2153DPPC   C2B47530  18.490  10.320  25.230
 2153DPPC   C3B47531  18.520   9.750  25.100
 2153DPPC   C4B47532  18.520   9.340  24.910
 2154DPPC   NC347533  28.245  16.550  35.020
 2154DPPC   PO447534  28.365  16.620  34.560
 2154DPPC   GL147535  28.705  16.590  34.320
 2154DPPC   GL247536  28.955  16.530  34.590
 2154DPPC   C1A47537  28.895  16.990  34.040
 2154DPPC   C2A47538  29.045  17.360  33.790
 2154DPPC   C3A47539  29.165  17.720  33.490
 2154DPPC   C4A47540  29.165  18.090  33.800
 2154DPPC   C1B47541  29.215  16.970  34.620
 2154DPPC   C2B47542  29.495  17.140  34.330
 2154DPPC   C3B47543  29.895  17.040  34.100
 2154DPPC   C4B47544  29.725  16.500  34.020
 2155DPPC   NC347545  25.010   7.670  30.400
 2155DPPC   PO447546  25.070   7.240  30.550
 2155DPPC   GL147547  25.040   6.940  30.280
 2155DPPC   GL247548  24.700   6.870  30.270
 2155DPPC   C1A47549  25.390   6.720  30.150
 2155DPPC   C2A47550  25.430   6.250  30.080
 2155DPPC   C3A47551  25.490   5.790  30.140
 2155DPPC   C4A47552  25.300   5.470  29.990
 2155DPPC   C1B47553  24.790   6.540  30.520
 2155DPPC   C2B47554  24.680   6.100  30.510
 2155DPPC   C3B47555  24.260   5.870  30.380
 2155DPPC   C4B47556  24.200   5.460  30.440
 2156DPPC   NC347557  10.180  18.910  23.380
 2156DPPC   PO447558  10.440  19.170  23.310
 2156DPPC   GL147559  10.840  19.370  23.520
 2156DPPC   GL247560  10.900  19.240  23.760
 2156DPPC   C1A47561  11.280  19.640  23.720
 2156DPPC   C2A47562  11.620  19.880  23.930
 2156DPPC   C3A47563  11.680  20.310  23.920
 2156DPPC   C4A47564  12.020  20.620  24.070
 2156DPPC   C1B47565  11.240  19.230  24.020
 2156DPPC   C2B47566  11.530  19.500  24.180
 2156DPPC   C3B47567  11.930  19.700  24.420
 2156DPPC   C4B47568  12.080  19.470  24.770
 2157DPPC   NC347569   9.310  19.690  27.300
 2157DPPC   PO447570   9.530  19.950  26.980
 2157DPPC   GL147571   9.870  20.190  27.200
 2157DPPC   GL247572  10.110  20.200  27.130
 2157DPPC   C1A47573   9.860  20.400  27.540
 2157DPPC   C2A47574   9.920  20.320  28.010
 2157DPPC   C3A47575   9.870  20.260  28.380
 2157DPPC   C4A47576   9.700  20.580  28.680
 2157DPPC   C1B47577  10.390  19.970  27.290
 2157DPPC   C2B47578  10.870  20.010  27.190
 2157DPPC   C3B47579  11.330  20.140  27.230
 2157DPPC   C4B47580  11.700  19.970  27.270
 2158DPPC   NC347581  14.200  17.020  29.830
 2158DPPC   PO447582  14.400  17.190  29.520
 2158DPPC   GL147583  13.990  17.000  29.330
 2158DPPC   GL247584  14.040  16.650  29.150
 2158DPPC   C1A47585  13.600  17.010  29.040
 2158DPPC   C2A47586  13.140  16.820  29.190
 2158DPPC   C3A47587  12.760  16.520  29.290
 2158DPPC   C4A47588  12.330  16.380  29.240
 2158DPPC   C1B47589  13.620  16.490  29.080
 2158DPPC   C2B47590  13.210  16.350  29.120
 2158DPPC   C3B47591  13.010  16.100  29.120
 2158DPPC   C4B47592  12.490  16.000  28.890
 2159DPPC   NC347593  26.555  11.870  45.620
 2159DPPC   PO447594  26.250  11.760  45.330
 2159DPPC   GL147595  26.100  11.930  45.050
 2159DPPC   GL247596  26.000  11.850  44.700
 2159DPPC   C1A47597  26.270  12.230  44.750
 2159DPPC   C2A47598  26.090  12.220  44.200
 2159DPPC   C3A47599  26.300  12.180  43.890
 2159DPPC   C4A47600  26.180  12.270  43.440
 2159DPPC   C1B47601  25.980  11.750  44.210
 2159DPPC   C2B47602  25.900  11.910  43.870
 2159DPPC   C3B47603  25.760  12.050  43.520
 2159DPPC   C4B47604  25.810  12.280  43.080
 2160DPPC   NC347605  14.450   0.370  24.930
 2160DPPC   PO447606  14.920   0.410  24.890
 2160DPPC   GL147607  15.360   0.200  25.010
 2160DPPC   GL247608  15.690   0.310  24.830
 2160DPPC   C1A47609  15.570   0.130  25.350
 2160DPPC   C2A47610  15.900  26.350  25.460
 2160DPPC   C3A47611  16.260  26.130  25.400
 2160DPPC   C4A47612  16.690  26.180  25.410
 2160DPPC   C1B47613  16.060   0.010  24.960
 2160DPPC   C2B47614  16.430  26.210  24.890
 2160DPPC   C3B47615  16.680  25.950  24.850
 2160DPPC   C4B47616  16.990  25.740  25.180
 2161DPPC   NC347617  18.910  22.290  46.250
 2161DPPC   PO447618  19.090  21.930  46.180
 2161DPPC   GL147619  19.120  21.740  45.770
 2161DPPC   GL247620  19.370  21.940  45.630
 2161DPPC   C1A47621  19.230  21.440  45.480
 2161DPPC   C2A47622  19.510  21.190  45.210
 2161DPPC   C3A47623  19.790  21.140  44.900
 2161DPPC   C4A47624  20.160  20.910  44.690
 2161DPPC   C1B47625  19.620  21.810  45.260
 2161DPPC   C2B47626  20.020  21.580  45.130
 2161DPPC   C3B47627  20.370  21.590  44.810
 2161DPPC   C4B47628  20.740  21.410  44.660
 2162DPPC   NC347629  23.180  22.050  39.450
 2162DPPC   PO447630  23.490  22.000  39.800
 2162DPPC   GL147631  23.660  22.360  39.930
 2162DPPC   GL247632  23.570  22.540  40.180
 2162DPPC   C1A47633  24.000  22.660  39.950
 2162DPPC   C2A47634  24.270  23.010  40.100
 2162DPPC   C3A47635  24.460  22.960  40.570
 2162DPPC   C4A47636  24.360  22.680  40.900
 2162DPPC   C1B47637  23.360  22.730  40.600
 2162DPPC   C2B47638  23.400  22.800  41.040
 2162DPPC   C3B47639  23.640  22.970  41.390
 2162DPPC   C4B47640  23.960  23.130  41.680
 2163DPPC   NC347641   8.990  20.890  29.570
 2163DPPC   PO447642   9.170  21.270  29.710
 2163DPPC   GL147643   9.560  21.120  29.570
 2163DPPC   GL247644   9.950  21.370  29.620
 2163DPPC   C1A47645   9.990  20.900  29.360
 2163DPPC   C2A47646  10.410  20.910  29.620
 2163DPPC   C3A47647  10.610  20.820  30.040
 2163DPPC   C4A47648  11.000  20.890  30.140
 2163DPPC   C1B47649  10.290  21.270  29.290
 2163DPPC   C2B47650  10.800  21.420  29.240
 2163DPPC   C3B47651  11.160  21.620  29.210
 2163DPPC   C4B47652  11.610  21.540  29.230
 2164DPPC   NC347653  23.030  24.790  43.390
 2164DPPC   PO447654  22.810  25.020  43.060
 2164DPPC   GL147655  22.690  24.620  43.000
 2164DPPC   GL247656  22.410  24.470  43.170
 2164DPPC   C1A47657  22.710  24.240  42.690
 2164DPPC   C2A47658  22.610  24.190  42.260
 2164DPPC   C3A47659  22.460  23.840  42.020
 2164DPPC   C4A47660  22.320  23.560  41.770
 2164DPPC   C1B47661  22.190  24.330  42.770
 2164DPPC   C2B47662  22.170  24.070  42.430
 2164DPPC   C3B47663  21.970  23.800  42.130
 2164DPPC   C4B47664  21.620  23.660  42.140
 2165DPPC   NC347665  15.370   1.100  26.030
 2165DPPC   PO447666  14.950   1.180  26.090
 2165DPPC   GL147667  15.030   0.760  26.110
 2165DPPC   GL247668  14.950   0.640  26.400
 2165DPPC   C1A47669  15.070   0.480  25.940
 2165DPPC   C2A47670  15.020   0.120  25.920
 2165DPPC   C3A47671  14.790  26.160  26.090
 2165DPPC   C4A47672  14.730  25.830  26.090
 2165DPPC   C1B47673  14.660   0.240  26.310
 2165DPPC   C2B47674  14.590  26.300  26.550
 2165DPPC   C3B47675  14.350  25.950  26.390
 2165DPPC   C4B47676  14.290  25.540  26.560
 2166DPPC   NC347677  10.360  23.970  26.960
 2166DPPC   PO447678  10.290  23.660  27.310
 2166DPPC   GL147679  10.710  23.460  27.500
 2166DPPC   GL247680  10.980  23.620  27.370
 2166DPPC   C1A47681  11.180  23.340  27.740
 2166DPPC   C2A47682  11.570  23.160  27.840
 2166DPPC   C3A47683  12.000  23.260  27.890
 2166DPPC   C4A47684  12.470  23.310  27.880
 2166DPPC   C1B47685  11.370  23.740  27.590
 2166DPPC   C2B47686  11.810  23.710  27.720
 2166DPPC   C3B47687  12.180  23.730  27.990
 2166DPPC   C4B47688  12.440  23.800  28.340
 2167DPPC   NC347689  10.650  15.310  26.690
 2167DPPC   PO447690  10.570  15.320  27.180
 2167DPPC   GL147691  11.010  15.490  27.180
 2167DPPC   GL247692  11.230  15.470  27.480
 2167DPPC   C1A47693  11.210  15.780  27.080
 2167DPPC   C2A47694  11.550  16.220  27.060
 2167DPPC   C3A47695  11.730  16.490  27.260
 2167DPPC   C4A47696  11.960  16.680  27.050
 2167DPPC   C1B47697  11.570  15.400  27.220
 2167DPPC   C2B47698  11.960  15.610  27.240
 2167DPPC   C3B47699  12.340  15.760  27.150
 2167DPPC   C4B47700  12.500  15.950  26.840
 2168DPPC   NC347701  16.950  23.870  26.880
 2168DPPC   PO447702  17.170  24.170  26.970
 2168DPPC   GL147703  17.150  24.530  26.960
 2168DPPC   GL247704  17.210  24.640  26.570
 2168DPPC   C1A47705  17.490  24.860  27.230
 2168DPPC   C2A47706  17.410  25.280  27.220
 2168DPPC   C3A47707  17.300  25.600  26.930
 2168DPPC   C4A47708  17.000  25.770  26.630
 2168DPPC   C1B47709  17.000  24.970  26.310
 2168DPPC   C2B47710  17.050  25.240  26.000
 2168DPPC   C3B47711  17.220  25.460  25.690
 2168DPPC   C4B47712  17.330  25.290  25.250
 2169DPPC   NC347713  15.830  13.580  32.300
 2169DPPC   PO447714  15.820  13.470  32.690
 2169DPPC   GL147715  15.500  13.240  32.780
 2169DPPC   GL247716  15.460  13.040  32.930
 2169DPPC   C1A47717  15.040  13.200  32.750
 2169DPPC   C2A47718  14.740  12.950  32.590
 2169DPPC   C3A47719  14.530  12.590  32.550
 2169DPPC   C4A47720  14.560  12.420  32.170
 2169DPPC   C1B47721  15.140  12.650  32.850
 2169DPPC   C2B47722  14.900  12.380  32.910
 2169DPPC   C3B47723  14.560  12.220  32.880
 2169DPPC   C4B47724  14.250  12.090  33.130
 2170DPPC   NC347725  11.530  25.870  36.710
 2170DPPC   PO447726  11.870  25.530  36.580
 2170DPPC   GL147727  12.320  25.250  36.570
 2170DPPC   GL247728  12.280  25.080  36.290
 2170DPPC   C1A47729  12.730  25.100  36.660
 2170DPPC   C2A47730  13.040  24.770  36.510
 2170DPPC   C3A47731  13.220  24.400  36.480
 2170DPPC   C4A47732  13.450  24.090  36.740
 2170DPPC   C1B47733  12.460  24.820  36.400
 2170DPPC   C2B47734  12.680  24.530  36.250
 2170DPPC   C3B47735  13.000  24.200  36.120
 2170DPPC   C4B47736  13.350  23.770  36.120
 2171DPPC   NC347737  11.090  12.700  34.270
 2171DPPC   PO447738  11.310  12.460  34.030
 2171DPPC   GL147739  11.680  12.610  33.990
 2171DPPC   GL247740  11.680  12.940  34.000
 2171DPPC   C1A47741  12.090  12.620  33.850
 2171DPPC   C2A47742  12.420  12.980  33.800
 2171DPPC   C3A47743  12.830  13.150  33.880
 2171DPPC   C4A47744  13.300  13.240  34.050
 2171DPPC   C1B47745  11.930  13.330  33.970
 2171DPPC   C2B47746  12.070  13.640  33.960
 2171DPPC   C3B47747  12.230  14.040  33.820
 2171DPPC   C4B47748  12.460  14.300  33.860
 2172DPPC   NC347749  22.460   9.930  18.820
 2172DPPC   PO447750  22.610   9.790  19.130
 2172DPPC   GL147751  22.450  10.230  19.270
 2172DPPC   GL247752  22.140  10.260  19.450
 2172DPPC   C1A47753  22.540  10.530  19.580
 2172DPPC   C2A47754  22.440  10.660  19.960
 2172DPPC   C3A47755  22.490  10.880  20.290
 2172DPPC   C4A47756  22.820  10.810  20.560
 2172DPPC   C1B47757  22.010  10.590  19.660
 2172DPPC   C2B47758  21.880  10.700  20.080
 2172DPPC   C3B47759  21.960  10.880  20.390
 2172DPPC   C4B47760  22.240  10.850  20.780
 2173DPPC   NC347761  24.950  24.080  42.860
 2173DPPC   PO447762  25.130  24.410  42.620
 2173DPPC   GL147763  24.770  24.120  42.340
 2173DPPC   GL247764  24.960  23.760  42.520
 2173DPPC   C1A47765  24.780  23.630  42.040
 2173DPPC   C2A47766  25.030  23.310  41.840
 2173DPPC   C3A47767  24.900  23.050  41.410
 2173DPPC   C4A47768  24.860  22.750  41.120
 2173DPPC   C1B47769  25.010  23.320  42.510
 2173DPPC   C2B47770  24.730  23.120  42.220
 2173DPPC   C3B47771  24.780  22.810  41.830
 2173DPPC   C4B47772  24.810  22.520  41.590
 2174DPPC   NC347773  28.645  21.900  32.650
 2174DPPC   PO447774  28.695  21.740  33.010
 2174DPPC   GL147775  28.435  21.430  33.230
 2174DPPC   GL247776  28.495  21.430  33.520
 2174DPPC   C1A47777  28.425  21.000  33.250
 2174DPPC   C2A47778  28.075  20.840  33.400
 2174DPPC   C3A47779  27.755  20.770  33.510
 2174DPPC   C4A47780  27.435  20.350  33.620
 2174DPPC   C1B47781  28.145  21.480  33.690
 2174DPPC   C2B47782  27.795  21.250  33.760
 2174DPPC   C3B47783  27.425  20.900  33.860
 2174DPPC   C4B47784  27.045  20.740  33.930
 2175DPPC   NC347785  18.630  12.430  37.990
 2175DPPC   PO447786  18.340  12.210  38.230
 2175DPPC   GL147787  18.170  11.840  38.400
 2175DPPC   GL247788  17.970  11.880  38.730
 2175DPPC   C1A47789  18.050  11.440  38.520
 2175DPPC   C2A47790  17.800  11.410  38.800
 2175DPPC   C3A47791  17.700  11.370  39.150
 2175DPPC   C4A47792  17.490  11.080  39.450
 2175DPPC   C1B47793  17.540  11.870  38.980
 2175DPPC   C2B47794  17.350  11.800  39.330
 2175DPPC   C3B47795  17.130  11.600  39.690
 2175DPPC   C4B47796  17.090  11.140  39.870
 2176DPPC   NC347797  15.770   7.230  28.490
 2176DPPC   PO447798  16.000   7.490  28.660
 2176DPPC   GL147799  16.180   7.910  28.650
 2176DPPC   GL247800  16.020   8.220  28.560
 2176DPPC   C1A47801  16.510   8.020  29.060
 2176DPPC   C2A47802  16.900   8.150  29.180
 2176DPPC   C3A47803  17.240   8.380  29.070
 2176DPPC   C4A47804  17.420   8.780  29.200
 2176DPPC   C1B47805  16.390   8.380  28.310
 2176DPPC   C2B47806  16.850   8.560  28.440
 2176DPPC   C3B47807  17.030   8.740  28.720
 2176DPPC   C4B47808  17.370   9.130  28.840
 2177DPPC   NC347809  10.120  23.320  27.560
 2177DPPC   PO447810  10.180  22.940  27.620
 2177DPPC   GL147811  10.640  22.840  27.500
 2177DPPC   GL247812  10.700  22.510  27.650
 2177DPPC   C1A47813  11.080  22.880  27.410
 2177DPPC   C2A47814  11.490  22.730  27.550
 2177DPPC   C3A47815  11.910  22.810  27.840
 2177DPPC   C4A47816  12.300  22.910  28.090
 2177DPPC   C1B47817  11.140  22.360  27.480
 2177DPPC   C2B47818  11.490  22.390  27.180
 2177DPPC   C3B47819  11.870  22.280  26.930
 2177DPPC   C4B47820  12.050  21.940  26.810
 2178DPPC   NC347821  32.395  16.070  30.240
 2178DPPC   PO447822  32.465  16.250  30.700
 2178DPPC   GL147823  31.985  16.010  30.520
 2178DPPC   GL247824  31.875  16.340  30.410
 2178DPPC   C1A47825  31.745  15.660  30.540
 2178DPPC   C2A47826  31.405  15.330  30.520
 2178DPPC   C3A47827  31.015  15.210  30.640
 2178DPPC   C4A47828  30.725  14.990  30.870
 2178DPPC   C1B47829  31.765  16.160  29.990
 2178DPPC   C2B47830  31.445  15.990  29.750
 2178DPPC   C3B47831  31.185  15.720  29.580
 2178DPPC   C4B47832  30.785  15.680  29.350
 2179DPPC   NC347833  12.890  19.340  28.440
 2179DPPC   PO447834  13.050  19.490  28.840
 2179DPPC   GL147835  12.590  19.460  28.830
 2179DPPC   GL247836  12.440  19.440  29.160
 2179DPPC   C1A47837  12.310  19.470  28.580
 2179DPPC   C2A47838  12.130  19.850  28.450
 2179DPPC   C3A47839  11.830  19.950  28.330
 2179DPPC   C4A47840  11.440  19.950  28.580
 2179DPPC   C1B47841  12.100  19.580  29.100
 2179DPPC   C2B47842  11.800  19.760  29.090
 2179DPPC   C3B47843  11.500  19.990  29.140
 2179DPPC   C4B47844  11.280  20.170  29.500
 2180DPPC   NC347845  10.120  22.340  37.470
 2180DPPC   PO447846  10.580  22.290  37.660
 2180DPPC   GL147847  11.060  22.100  37.670
 2180DPPC   GL247848  11.140  22.090  38.040
 2180DPPC   C1A47849  11.510  22.100  37.650
 2180DPPC   C2A47850  11.870  22.220  37.730
 2180DPPC   C3A47851  12.290  22.020  37.630
 2180DPPC   C4A47852  12.720  21.910  37.660
 2180DPPC   C1B47853  11.630  22.060  38.150
 2180DPPC   C2B47854  11.900  21.730  38.050
 2180DPPC   C3B47855  12.360  21.710  38.080
 2180DPPC   C4B47856  12.760  21.570  38.060
 2181DPPC   NC347857  23.060   2.970  34.390
 2181DPPC   PO447858  22.830   3.430  34.580
 2181DPPC   GL147859  22.870   3.740  34.340
 2181DPPC   GL247860  22.730   3.890  34.410
 2181DPPC   C1A47861  23.130   4.060  34.160
 2181DPPC   C2A47862  23.410   4.440  34.190
 2181DPPC   C3A47863  23.380   4.790  33.810
 2181DPPC   C4A47864  22.980   4.930  33.630
 2181DPPC   C1B47865  22.570   4.320  34.440
 2181DPPC   C2B47866  22.530   4.720  34.630
 2181DPPC   C3B47867  22.790   5.020  34.730
 2181DPPC   C4B47868  22.800   5.380  34.560
 2182DPPC   NC347869  23.560  18.190  42.550
 2182DPPC   PO447870  23.990  18.140  42.610
 2182DPPC   GL147871  24.290  18.400  42.890
 2182DPPC   GL247872  24.130  18.610  43.170
 2182DPPC   C1A47873  24.640  18.470  43.220
 2182DPPC   C2A47874  24.990  18.620  43.460
 2182DPPC   C3A47875  25.400  18.600  43.680
 2182DPPC   C4A47876  25.740  18.880  43.750
 2182DPPC   C1B47877  24.130  19.040  43.300
 2182DPPC   C2B47878  24.040  19.340  43.650
 2182DPPC   C3B47879  23.920  19.490  43.980
 2182DPPC   C4B47880  24.110  19.440  44.430
 2183DPPC   NC347881  24.150  13.010  17.740
 2183DPPC   PO447882  24.520  12.640  17.720
 2183DPPC   GL147883  24.360  12.800  18.170
 2183DPPC   GL247884  24.470  12.720  18.450
 2183DPPC   C1A47885  23.950  12.710  18.290
 2183DPPC   C2A47886  23.500  12.680  18.520
 2183DPPC   C3A47887  23.160  12.760  18.770
 2183DPPC   C4A47888  22.900  12.690  19.000
 2183DPPC   C1B47889  24.330  12.920  18.710
 2183DPPC   C2B47890  24.300  12.930  19.210
 2183DPPC   C3B47891  24.510  13.050  19.510
 2183DPPC   C4B47892  24.420  13.130  19.890
 2184DPPC   NC347893  11.110  14.410  29.710
 2184DPPC   PO447894  10.850  14.500  30.070
 2184DPPC   GL147895  11.220  14.720  30.220
 2184DPPC   GL247896  11.430  14.800  29.970
 2184DPPC   C1A47897  11.550  15.070  30.430
 2184DPPC   C2A47898  11.910  15.090  30.720
 2184DPPC   C3A47899  12.280  15.260  31.030
 2184DPPC   C4A47900  12.530  15.570  31.130
 2184DPPC   C1B47901  11.770  14.640  29.870
 2184DPPC   C2B47902  12.110  14.320  30.040
 2184DPPC   C3B47903  12.230  14.310  30.410
 2184DPPC   C4B47904  12.450  14.290  30.780
 2185DPPC   NC347905  26.230  18.650  40.340
 2185DPPC   PO447906  25.940  18.980  40.520
 2185DPPC   GL147907  26.080  19.440  40.630
 2185DPPC   GL247908  26.475  19.570  40.590
 2185DPPC   C1A47909  26.400  19.540  41.150
 2185DPPC   C2A47910  26.645  19.510  41.490
 2185DPPC   C3A47911  26.775  19.440  41.940
 2185DPPC   C4A47912  27.115  19.270  42.100
 2185DPPC   C1B47913  26.775  19.590  40.820
 2185DPPC   C2B47914  27.185  19.590  40.910
 2185DPPC   C3B47915  27.475  19.720  41.220
 2185DPPC   C4B47916  27.755  19.760  41.550
 2186DPPC   NC347917  15.860  14.790  35.640
 2186DPPC   PO447918  15.390  14.570  35.690
 2186DPPC   GL147919  15.030  14.380  35.730
 2186DPPC   GL247920  14.730  14.380  35.910
 2186DPPC   C1A47921  14.740  14.080  35.520
 2186DPPC   C2A47922  14.250  13.880  35.520
 2186DPPC   C3A47923  13.970  13.650  35.410
 2186DPPC   C4A47924  13.510  13.670  35.410
 2186DPPC   C1B47925  14.350  14.290  36.210
 2186DPPC   C2B47926  14.280  13.930  36.390
 2186DPPC   C3B47927  14.270  13.640  36.780
 2186DPPC   C4B47928  13.880  13.410  36.790
 2187DPPC   NC347929  33.705  13.820  31.060
 2187DPPC   PO447930  33.665  13.500  30.760
 2187DPPC   GL147931  33.245  13.520  30.900
 2187DPPC   GL247932  33.105  13.760  31.030
 2187DPPC   C1A47933  32.875  13.470  30.690
 2187DPPC   C2A47934  32.425  13.200  30.480
 2187DPPC   C3A47935  31.975  13.380  30.530
 2187DPPC   C4A47936  31.485  13.320  30.650
 2187DPPC   C1B47937  32.715  13.530  31.150
 2187DPPC   C2B47938  32.625  13.410  31.600
 2187DPPC   C3B47939  32.695  13.330  31.960
 2187DPPC   C4B47940  32.875  13.620  32.290
 2188DPPC   NC347941  31.445  18.600  27.790
 2188DPPC   PO447942  31.215  18.240  27.730
 2188DPPC   GL147943  30.855  18.040  27.590
 2188DPPC   GL247944  30.545  18.180  27.650
 2188DPPC   C1A47945  30.585  17.700  27.530
 2188DPPC   C2A47946  30.225  17.460  27.340
 2188DPPC   C3A47947  30.215  16.920  27.260
 2188DPPC   C4A47948  30.225  16.480  27.140
 2188DPPC   C1B47949  30.115  17.970  27.610
 2188DPPC   C2B47950  29.765  17.890  27.410
 2188DPPC   C3B47951  29.485  18.140  27.110
 2188DPPC   C4B47952  29.385  18.410  26.730
 2189DPPC   NC347953  25.880  12.840  23.140
 2189DPPC   PO447954  26.180  12.530  23.150
 2189DPPC   GL147955  26.440  12.650  22.910
 2189DPPC   GL247956  26.655  12.770  23.140
 2189DPPC   C1A47957  26.745  12.530  22.730
 2189DPPC   C2A47958  26.985  12.110  22.650
 2189DPPC   C3A47959  27.495  12.150  22.770
 2189DPPC   C4A47960  27.875  12.340  22.770
 2189DPPC   C1B47961  26.895  12.460  23.340
 2189DPPC   C2B47962  27.125  12.030  23.130
 2189DPPC   C3B47963  26.975  11.740  23.320
 2189DPPC   C4B47964  27.015  11.280  23.400
 2190DPPC   NC347965  31.935  14.980  24.600
 2190DPPC   PO447966  31.775  14.770  24.210
 2190DPPC   GL147967  31.365  14.640  24.330
 2190DPPC   GL247968  31.155  15.000  24.450
 2190DPPC   C1A47969  30.915  14.590  24.470
 2190DPPC   C2A47970  30.435  14.660  24.470
 2190DPPC   C3A47971  29.945  14.580  24.350
 2190DPPC   C4A47972  29.555  14.750  24.310
 2190DPPC   C1B47973  30.825  15.130  24.720
 2190DPPC   C2B47974  30.505  15.170  25.060
 2190DPPC   C3B47975  30.075  14.970  25.230
 2190DPPC   C4B47976  29.725  15.050  25.250
 2191DPPC   NC347977  29.155  22.330  39.710
 2191DPPC   PO447978  29.105  22.530  40.170
 2191DPPC   GL147979  28.815  22.240  40.180
 2191DPPC   GL247980  28.775  21.990  40.010
 2191DPPC   C1A47981  28.515  22.050  40.520
 2191DPPC   C2A47982  28.115  21.850  40.620
 2191DPPC   C3A47983  27.805  21.900  40.380
 2191DPPC   C4A47984  27.765  22.160  40.020
 2191DPPC   C1B47985  28.555  21.790  40.030
 2191DPPC   C2B47986  28.185  21.740  40.040
 2191DPPC   C3B47987  27.775  21.600  39.980
 2191DPPC   C4B47988  27.575  21.750  39.800
 2192DPPC   NC347989  33.535  10.900  28.770
 2192DPPC   PO447990  33.265  11.310  28.640
 2192DPPC   GL147991  32.795  11.270  28.650
 2192DPPC   GL247992  32.725  11.490  28.910
 2192DPPC   C1A47993  32.295  11.330  28.580
 2192DPPC   C2A47994  31.895  11.130  28.800
 2192DPPC   C3A47995  31.475  11.120  28.900
 2192DPPC   C4A47996  31.045  11.300  28.720
 2192DPPC   C1B47997  32.315  11.620  29.090
 2192DPPC   C2B47998  32.035  11.860  29.130
 2192DPPC   C3B47999  31.775  12.340  29.220
 2192DPPC   C4B48000  31.385  12.410  29.210
 2193DPPC   NC348001  23.160  24.290  21.720
 2193DPPC   PO448002  22.820  24.590  22.030
 2193DPPC   GL148003  22.420  24.310  22.100
 2193DPPC   GL248004  22.350  24.560  22.360
 2193DPPC   C1A48005  22.080  23.910  22.290
 2193DPPC   C2A48006  22.020  23.560  22.520
 2193DPPC   C3A48007  21.560  23.500  22.760
 2193DPPC   C4A48008  21.170  23.230  22.590
 2193DPPC   C1B48009  21.990  24.550  22.690
 2193DPPC   C2B48010  21.600  24.330  22.790
 2193DPPC   C3B48011  21.110  24.350  22.820
 2193DPPC   C4B48012  20.950  24.700  22.750
 2194DPPC   NC348013  15.400  11.640  21.580
 2194DPPC   PO448014  15.310  11.380  21.960
 2194DPPC   GL148015  15.560  11.590  22.210
 2194DPPC   GL248016  15.770  11.390  22.460
 2194DPPC   C1A48017  15.770  11.870  22.630
 2194DPPC   C2A48018  16.050  12.100  22.870
 2194DPPC   C3A48019  16.470  12.380  22.920
 2194DPPC   C4A48020  16.600  12.610  23.340
 2194DPPC   C1B48021  16.230  11.460  22.650
 2194DPPC   C2B48022  16.560  11.330  22.950
 2194DPPC   C3B48023  16.790  11.500  23.250
 2194DPPC   C4B48024  16.930  11.720  23.610
 2195DPPC   NC348025  21.110  15.330  17.080
 2195DPPC   PO448026  20.970  14.920  17.280
 2195DPPC   GL148027  21.240  15.150  17.540
 2195DPPC   GL248028  21.360  15.540  17.630
 2195DPPC   C1A48029  21.020  15.320  17.880
 2195DPPC   C2A48030  20.970  15.510  18.230
 2195DPPC   C3A48031  21.100  15.550  18.650
 2195DPPC   C4A48032  21.010  15.690  19.100
 2195DPPC   C1B48033  21.240  15.900  18.000
 2195DPPC   C2B48034  21.250  15.950  18.360
 2195DPPC   C3B48035  21.350  15.970  18.820
 2195DPPC   C4B48036  21.440  15.840  19.300
 2196DPPC   NC348037  28.975   6.330  25.090
 2196DPPC   PO448038  28.585   6.340  24.930
 2196DPPC   GL148039  28.365   6.650  25.250
 2196DPPC   GL248040  28.415   6.640  25.490
 2196DPPC   C1A48041  28.165   7.050  25.280
 2196DPPC   C2A48042  27.755   7.230  25.200
 2196DPPC   C3A48043  27.425   7.410  25.330
 2196DPPC   C4A48044  27.235   7.540  25.690
 2196DPPC   C1B48045  28.405   7.000  25.750
 2196DPPC   C2B48046  28.595   7.360  25.970
 2196DPPC   C3B48047  28.735   7.700  26.200
 2196DPPC   C4B48048  28.925   8.100  26.360
 2197DPPC   NC348049  13.610  22.500  32.090
 2197DPPC   PO448050  13.680  22.490  32.440
 2197DPPC   GL148051  13.300  22.520  32.460
 2197DPPC   GL248052  13.230  22.700  32.340
 2197DPPC   C1A48053  13.210  22.770  32.890
 2197DPPC   C2A48054  12.900  23.030  33.090
 2197DPPC   C3A48055  12.610  23.380  32.930
 2197DPPC   C4A48056  12.320  23.800  32.850
 2197DPPC   C1B48057  12.810  22.960  32.520
 2197DPPC   C2B48058  12.480  23.010  32.670
 2197DPPC   C3B48059  12.290  22.930  33.030
 2197DPPC   C4B48060  11.960  22.690  33.040
 2198DPPC   NC348061  13.370  20.800  43.040
 2198DPPC   PO448062  13.660  20.530  42.900
 2198DPPC   GL148063  14.110  20.650  42.670
 2198DPPC   GL248064  13.960  20.360  42.490
 2198DPPC   C1A48065  14.470  20.750  42.710
 2198DPPC   C2A48066  14.810  20.690  42.330
 2198DPPC   C3A48067  15.050  20.550  41.990
 2198DPPC   C4A48068  15.360  20.320  41.680
 2198DPPC   C1B48069  14.430  20.290  42.340
 2198DPPC   C2B48070  14.540  20.190  41.920
 2198DPPC   C3B48071  14.650  19.810  41.790
 2198DPPC   C4B48072  14.950  19.880  41.460
 2199DPPC   NC348073  17.370  22.940  23.990
 2199DPPC   PO448074  17.210  22.680  23.720
 2199DPPC   GL148075  17.180  23.030  23.540
 2199DPPC   GL248076  16.880  22.990  23.280
 2199DPPC   C1A48077  17.110  23.420  23.240
 2199DPPC   C2A48078  17.070  24.000  23.220
 2199DPPC   C3A48079  17.390  24.390  23.270
 2199DPPC   C4A48080  17.680  24.710  23.180
 2199DPPC   C1B48081  17.010  23.110  22.860
 2199DPPC   C2B48082  16.940  23.190  22.440
 2199DPPC   C3B48083  16.820  23.080  22.050
 2199DPPC   C4B48084  16.950  22.820  21.660
 2200DPPC   NC348085  15.840  17.670  24.130
 2200DPPC   PO448086  15.320  17.690  24.160
 2200DPPC   GL148087  15.000  17.430  23.850
 2200DPPC   GL248088  15.090  17.370  23.520
 2200DPPC   C1A48089  14.600  17.370  23.610
 2200DPPC   C2A48090  14.320  17.360  23.440
 2200DPPC   C3A48091  13.940  17.200  23.190
 2200DPPC   C4A48092  13.660  16.930  23.090
 2200DPPC   C1B48093  14.820  17.440  23.130
 2200DPPC   C2B48094  14.530  17.250  22.930
 2200DPPC   C3B48095  14.320  16.920  22.870
 2200DPPC   C4B48096  13.860  16.640  22.700
 2201DPPC   NC348097  11.390  14.190  24.710
 2201DPPC   PO448098  11.500  14.520  24.930
 2201DPPC   GL148099  11.780  14.910  24.790
 2201DPPC   GL248100  11.680  15.230  24.760
 2201DPPC   C1A48101  12.280  14.970  24.890
 2201DPPC   C2A48102  12.680  15.140  24.920
 2201DPPC   C3A48103  13.000  15.210  25.110
 2201DPPC   C4A48104  13.190  15.250  25.520
 2201DPPC   C1B48105  11.950  15.310  25.110
 2201DPPC   C2B48106  12.350  15.420  25.240
 2201DPPC   C3B48107  12.750  15.660  25.370
 2201DPPC   C4B48108  13.140  15.710  25.220
 2202DPPC   NC348109  21.340  23.560  19.930
 2202DPPC   PO448110  21.080  23.640  20.260
 2202DPPC   GL148111  20.670  23.640  20.430
 2202DPPC   GL248112  20.750  23.840  20.660
 2202DPPC   C1A48113  20.290  23.710  20.760
 2202DPPC   C2A48114  19.890  23.460  20.680
 2202DPPC   C3A48115  19.520  23.270  20.810
 2202DPPC   C4A48116  19.230  22.960  20.870
 2202DPPC   C1B48117  20.840  23.560  21.080
 2202DPPC   C2B48118  20.650  23.370  21.430
 2202DPPC   C3B48119  20.210  23.130  21.730
 2202DPPC   C4B48120  19.830  22.920  21.710
 2203DPPC   NC348121  25.470  25.540  32.620
 2203DPPC   PO448122  25.130  25.920  32.760
 2203DPPC   GL148123  24.940  25.590  32.470
 2203DPPC   GL248124  25.130  25.330  32.340
 2203DPPC   C1A48125  24.540  25.480  32.390
 2203DPPC   C2A48126  24.180  25.300  32.710
 2203DPPC   C3A48127  24.230  25.510  33.050
 2203DPPC   C4A48128  23.960  25.440  33.460
 2203DPPC   C1B48129  25.150  24.910  32.600
 2203DPPC   C2B48130  24.930  24.640  32.620
 2203DPPC   C3B48131  24.620  24.320  32.720
 2203DPPC   C4B48132  24.470  24.020  32.960
 2204DPPC   NC348133  25.000   0.300  36.630
 2204DPPC   PO448134  24.760   0.010  36.340
 2204DPPC   GL148135  24.460  26.240  36.430
 2204DPPC   GL248136  24.380  26.150  36.140
 2204DPPC   C1A48137  24.130  26.110  36.710
 2204DPPC   C2A48138  23.570  26.060  36.790
 2204DPPC   C3A48139  23.240  26.290  36.780
 2204DPPC   C4A48140  23.060   0.170  36.660
 2204DPPC   C1B48141  24.340  25.740  36.260
 2204DPPC   C2B48142  24.120  25.370  36.370
 2204DPPC   C3B48143  23.700  25.170  36.390
 2204DPPC   C4B48144  23.560  24.830  36.000
 2205DPPC   NC348145  32.225  17.690  29.570
 2205DPPC   PO448146  31.865  17.720  29.450
 2205DPPC   GL148147  31.465  17.830  29.420
 2205DPPC   GL248148  31.355  17.890  29.720
 2205DPPC   C1A48149  31.025  17.830  29.250
 2205DPPC   C2A48150  30.775  17.710  28.970
 2205DPPC   C3A48151  30.415  17.810  28.850
 2205DPPC   C4A48152  30.065  17.610  28.730
 2205DPPC   C1B48153  31.085  17.560  29.910
 2205DPPC   C2B48154  30.845  17.340  30.310
 2205DPPC   C3B48155  30.575  17.000  30.350
 2205DPPC   C4B48156  30.515  16.640  30.520
 2206DPPC   NC348157  26.745  10.720  45.190
 2206DPPC   PO448158  26.705  10.310  45.050
 2206DPPC   GL148159  26.495  10.650  44.720
 2206DPPC   GL248160  26.595  11.000  44.650
 2206DPPC   C1A48161  26.575  10.670  44.270
 2206DPPC   C2A48162  26.515  10.890  43.900
 2206DPPC   C3A48163  26.370  11.080  43.490
 2206DPPC   C4A48164  25.960  11.210  43.230
 2206DPPC   C1B48165  26.475  11.270  44.210
 2206DPPC   C2B48166  26.100  11.360  43.990
 2206DPPC   C3B48167  25.920  11.520  43.600
 2206DPPC   C4B48168  25.690  11.620  43.290
 2207DPPC   NC348169  17.250  21.170  39.830
 2207DPPC   PO448170  17.220  21.610  39.670
 2207DPPC   GL148171  17.210  21.850  40.090
 2207DPPC   GL248172  16.910  21.870  40.230
 2207DPPC   C1A48173  17.230  22.270  40.350
 2207DPPC   C2A48174  17.030  22.460  40.620
 2207DPPC   C3A48175  17.100  22.730  40.960
 2207DPPC   C4A48176  17.400  22.730  41.250
 2207DPPC   C1B48177  16.690  22.260  40.250
 2207DPPC   C2B48178  16.260  22.440  40.330
 2207DPPC   C3B48179  16.010  22.770  40.310
 2207DPPC   C4B48180  16.190  23.120  40.270
 2208DPPC   NC348181  33.105  16.270  31.920
 2208DPPC   PO448182  33.235  15.900  31.740
 2208DPPC   GL148183  32.835  15.850  31.930
 2208DPPC   GL248184  32.875  15.470  32.130
 2208DPPC   C1A48185  32.395  15.860  31.930
 2208DPPC   C2A48186  31.945  15.890  31.920
 2208DPPC   C3A48187  31.435  15.800  31.840
 2208DPPC   C4A48188  30.995  15.750  31.790
 2208DPPC   C1B48189  32.405  15.370  32.230
 2208DPPC   C2B48190  31.995  15.190  32.260
 2208DPPC   C3B48191  31.605  15.000  32.150
 2208DPPC   C4B48192  31.255  14.800  32.230
 2209DPPC   NC348193  16.440   6.690  32.650
 2209DPPC   PO448194  16.210   6.980  32.500
 2209DPPC   GL148195  16.310   7.260  32.170
 2209DPPC   GL248196  16.610   7.310  32.340
 2209DPPC   C1A48197  16.510   7.760  32.050
 2209DPPC   C2A48198  16.870   8.010  32.020
 2209DPPC   C3A48199  17.150   8.140  32.030
 2209DPPC   C4A48200  17.500   8.350  31.990
 2209DPPC   C1B48201  16.970   7.470  32.100
 2209DPPC   C2B48202  17.210   7.640  31.900
 2209DPPC   C3B48203  17.460   7.890  31.660
 2209DPPC   C4B48204  17.700   8.330  31.600
 2210DPPC   NC348205  20.290  10.260  37.050
 2210DPPC   PO448206  19.860  10.380  37.070
 2210DPPC   GL148207  19.590  10.340  37.400
 2210DPPC   GL248208  19.700  10.420  37.720
 2210DPPC   C1A48209  19.240  10.130  37.520
 2210DPPC   C2A48210  18.990   9.940  37.860
 2210DPPC   C3A48211  18.640   9.620  37.800
 2210DPPC   C4A48212  18.510   9.140  37.870
 2210DPPC   C1B48213  19.670   9.940  37.690
 2210DPPC   C2B48214  19.400   9.590  37.740
 2210DPPC   C3B48215  19.150   9.350  38.060
 2210DPPC   C4B48216  18.890   9.220  38.260
 2211DPPC   NC348217  15.300  22.140  24.730
 2211DPPC   PO448218  15.240  22.600  24.970
 2211DPPC   GL148219  14.880  22.800  24.710
 2211DPPC   GL248220  14.710  22.640  24.820
 2211DPPC   C1A48221  14.650  23.190  24.620
 2211DPPC   C2A48222  14.340  23.360  24.540
 2211DPPC   C3A48223  13.990  23.720  24.420
 2211DPPC   C4A48224  13.720  23.890  24.810
 2211DPPC   C1B48225  14.560  22.990  25.090
 2211DPPC   C2B48226  14.580  23.410  25.050
 2211DPPC   C3B48227  14.330  23.810  24.940
 2211DPPC   C4B48228  14.220  24.230  25.200
 2212DPPC   NC348229  32.445   8.440  39.710
 2212DPPC   PO448230  32.195   8.700  39.360
 2212DPPC   GL148231  31.845   8.870  39.030
 2212DPPC   GL248232  31.695   8.730  38.700
 2212DPPC   C1A48233  31.435   9.110  39.000
 2212DPPC   C2A48234  31.105   9.420  38.740
 2212DPPC   C3A48235  30.705   9.650  38.560
 2212DPPC   C4A48236  30.545  10.090  38.420
 2212DPPC   C1B48237  31.245   8.860  38.630
 2212DPPC   C2B48238  30.835   8.940  38.590
 2212DPPC   C3B48239  30.505   9.190  38.500
 2212DPPC   C4B48240  30.355   9.500  38.270
 2213DPPC   NC348241  17.880   1.570  25.570
 2213DPPC   PO448242  17.490   1.420  25.720
 2213DPPC   GL148243  17.880   1.110  25.780
 2213DPPC   GL248244  18.180   1.180  25.870
 2213DPPC   C1A48245  17.930   0.820  26.220
 2213DPPC   C2A48246  18.150   0.950  26.590
 2213DPPC   C3A48247  18.360   0.900  26.880
 2213DPPC   C4A48248  18.680   0.980  27.230
 2213DPPC   C1B48249  18.120   0.670  25.810
 2213DPPC   C2B48250  18.270   0.320  25.970
 2213DPPC   C3B48251  18.480  26.360  25.910
 2213DPPC   C4B48252  18.840  26.170  26.030
 2214DPPC   NC348253  23.250   9.680  19.400
 2214DPPC   PO448254  23.710   9.810  19.370
 2214DPPC   GL148255  23.840   9.740  19.740
 2214DPPC   GL248256  24.200   9.840  19.850
 2214DPPC   C1A48257  23.530   9.770  20.000
 2214DPPC   C2A48258  23.220  10.120  19.990
 2214DPPC   C3A48259  22.810  10.310  20.230
 2214DPPC   C4A48260  22.390  10.430  20.450
 2214DPPC   C1B48261  24.000   9.870  20.200
 2214DPPC   C2B48262  23.890   9.940  20.530
 2214DPPC   C3B48263  24.210  10.140  20.910
 2214DPPC   C4B48264  24.440  10.150  21.240
 2215DPPC   NC348265  26.000  18.110  25.560
 2215DPPC   PO448266  25.930  18.400  25.760
 2215DPPC   GL148267  25.910  18.830  25.940
 2215DPPC   GL248268  26.210  18.670  26.160
 2215DPPC   C1A48269  26.090  19.200  25.950
 2215DPPC   C2A48270  26.350  19.500  25.740
 2215DPPC   C3A48271  26.675  19.770  25.580
 2215DPPC   C4A48272  27.045  19.650  25.750
 2215DPPC   C1B48273  26.440  19.070  26.240
 2215DPPC   C2B48274  26.555  19.460  26.540
 2215DPPC   C3B48275  26.715  19.520  26.920
 2215DPPC   C4B48276  27.125  19.360  27.110
 2216DPPC   NC348277  16.540  23.860  30.780
 2216DPPC   PO448278  16.760  24.250  30.960
 2216DPPC   GL148279  16.770  24.650  30.760
 2216DPPC   GL248280  16.450  24.930  30.750
 2216DPPC   C1A48281  16.890  25.030  30.560
 2216DPPC   C2A48282  17.160  25.210  30.530
 2216DPPC   C3A48283  17.360  25.630  30.460
 2216DPPC   C4A48284  17.570  26.000  30.530
 2216DPPC   C1B48285  16.400  25.270  30.440
 2216DPPC   C2B48286  16.590  25.640  30.410
 2216DPPC   C3B48287  16.820  25.720  30.770
 2216DPPC   C4B48288  16.790  26.020  31.090
 2217DPPC   NC348289  25.700  23.700  43.430
 2217DPPC   PO448290  25.610  23.390  43.200
 2217DPPC   GL148291  25.170  23.210  43.160
 2217DPPC   GL248292  25.220  23.040  42.980
 2217DPPC   C1A48293  24.670  23.250  42.890
 2217DPPC   C2A48294  24.530  22.900  42.680
 2217DPPC   C3A48295  24.550  22.650  42.240
 2217DPPC   C4A48296  24.460  22.400  41.890
 2217DPPC   C1B48297  25.070  22.840  42.550
 2217DPPC   C2B48298  25.010  22.600  42.280
 2217DPPC   C3B48299  24.890  22.230  42.120
 2217DPPC   C4B48300  24.960  21.760  42.120
 2218DPPC   NC348301  22.240  22.870  31.610
 2218DPPC   PO448302  22.090  22.870  32.040
 2218DPPC   GL148303  22.620  22.990  31.870
 2218DPPC   GL248304  22.890  23.080  32.090
 2218DPPC   C1A48305  23.070  23.100  31.610
 2218DPPC   C2A48306  23.530  23.070  31.550
 2218DPPC   C3A48307  23.730  22.780  31.280
 2218DPPC   C4A48308  24.050  22.590  31.020
 2218DPPC   C1B48309  23.010  23.460  31.970
 2218DPPC   C2B48310  23.220  23.670  31.690
 2218DPPC   C3B48311  23.160  24.030  31.390
 2218DPPC   C4B48312  23.230  24.390  31.240
 2219DPPC   NC348313  18.470  19.470  17.340
 2219DPPC   PO448314  18.460  19.900  17.610
 2219DPPC   GL148315  18.800  19.900  17.930
 2219DPPC   GL248316  18.460  19.960  18.150
 2219DPPC   C1A48317  18.860  19.750  18.360
 2219DPPC   C2A48318  18.840  19.780  18.790
 2219DPPC   C3A48319  18.860  19.940  19.200
 2219DPPC   C4A48320  18.840  20.220  19.550
 2219DPPC   C1B48321  18.430  19.930  18.610
 2219DPPC   C2B48322  18.420  19.740  19.040
 2219DPPC   C3B48323  18.390  20.020  19.400
 2219DPPC   C4B48324  18.470  19.880  19.890
 2220DPPC   NC348325  20.970  21.550  23.850
 2220DPPC   PO448326  21.190  21.630  24.230
 2220DPPC   GL148327  21.510  21.840  23.900
 2220DPPC   GL248328  21.350  21.780  23.540
 2220DPPC   C1A48329  21.690  22.280  23.780
 2220DPPC   C2A48330  21.870  22.630  23.620
 2220DPPC   C3A48331  22.210  22.950  23.710
 2220DPPC   C4A48332  22.120  23.380  23.750
 2220DPPC   C1B48333  21.400  22.150  23.320
 2220DPPC   C2B48334  21.470  22.470  23.120
 2220DPPC   C3B48335  21.420  23.000  23.030
 2220DPPC   C4B48336  21.280  23.400  23.120
 2221DPPC   NC348337  12.040  15.640  40.930
 2221DPPC   PO448338  12.400  15.630  41.130
 2221DPPC   GL148339  12.560  15.810  40.790
 2221DPPC   GL248340  12.530  15.490  40.550
 2221DPPC   C1A48341  12.910  16.140  40.780
 2221DPPC   C2A48342  13.310  16.190  40.600
 2221DPPC   C3A48343  13.750  16.150  40.500
 2221DPPC   C4A48344  14.160  15.980  40.700
 2221DPPC   C1B48345  12.980  15.390  40.640
 2221DPPC   C2B48346  13.290  15.340  40.420
 2221DPPC   C3B48347  13.790  15.450  40.330
 2221DPPC   C4B48348  14.110  15.740  40.160
 2222DPPC   NC348349  22.390  14.080  16.970
 2222DPPC   PO448350  22.510  13.980  17.360
 2222DPPC   GL148351  22.430  14.100  17.820
 2222DPPC   GL248352  22.520  13.820  17.950
 2222DPPC   C1A48353  22.500  14.350  18.110
 2222DPPC   C2A48354  22.620  14.290  18.530
 2222DPPC   C3A48355  22.900  14.150  18.880
 2222DPPC   C4A48356  23.030  14.120  19.220
 2222DPPC   C1B48357  22.460  13.800  18.360
 2222DPPC   C2B48358  22.210  14.010  18.740
 2222DPPC   C3B48359  21.910  14.250  18.960
 2222DPPC   C4B48360  21.960  14.580  19.250
 2223DPPC   NC348361  29.565   9.640  42.000
 2223DPPC   PO448362  29.795   9.980  42.060
 2223DPPC   GL148363  29.395  10.100  42.030
 2223DPPC   GL248364  29.195  10.150  42.160
 2223DPPC   C1A48365  29.115   9.910  41.650
 2223DPPC   C2A48366  29.015  10.120  41.310
 2223DPPC   C3A48367  28.935  10.550  41.240
 2223DPPC   C4A48368  28.775  11.030  41.150
 2223DPPC   C1B48369  29.115  10.400  41.810
 2223DPPC   C2B48370  28.915  10.750  41.730
 2223DPPC   C3B48371  28.895  11.200  41.650
 2223DPPC   C4B48372  29.085  11.390  41.940
 2224DPPC   NC348373  18.460  22.030  23.510
 2224DPPC   PO448374  18.520  21.910  23.110
 2224DPPC   GL148375  18.740  22.210  23.000
 2224DPPC   GL248376  18.970  22.240  22.670
 2224DPPC   C1A48377  18.830  22.660  22.880
 2224DPPC   C2A48378  18.900  23.080  22.990
 2224DPPC   C3A48379  18.790  23.350  23.280
 2224DPPC   C4A48380  18.740  23.840  23.280
 2224DPPC   C1B48381  18.850  22.410  22.240
 2224DPPC   C2B48382  18.880  22.370  21.810
 2224DPPC   C3B48383  18.850  22.260  21.410
 2224DPPC   C4B48384  18.750  22.150  21.000
 2225DPPC   NC348385  21.450  19.750  17.760
 2225DPPC   PO448386  21.530  20.210  17.960
 2225DPPC   GL148387  21.390  20.280  18.420
 2225DPPC   GL248388  21.680  20.130  18.450
 2225DPPC   C1A48389  21.390  20.630  18.750
 2225DPPC   C2A48390  21.130  20.740  19.060
 2225DPPC   C3A48391  20.930  20.630  19.370
 2225DPPC   C4A48392  20.570  20.500  19.610
 2225DPPC   C1B48393  21.600  19.750  18.660
 2225DPPC   C2B48394  21.320  19.580  19.000
 2225DPPC   C3B48395  21.020  19.300  19.230
 2225DPPC   C4B48396  20.550  19.320  19.390
 2226DPPC   NC348397  32.655  11.870  39.540
 2226DPPC   PO448398  32.645  11.400  39.540
 2226DPPC   GL148399  32.295  11.320  39.340
 2226DPPC   GL248400  32.395  11.120  39.060
 2226DPPC   C1A48401  31.815  11.570  39.360
 2226DPPC   C2A48402  31.475  11.860  39.410
 2226DPPC   C3A48403  31.365  12.100  39.800
 2226DPPC   C4A48404  31.215  12.040  40.170
 2226DPPC   C1B48405  32.055  11.090  38.770
 2226DPPC   C2B48406  31.785  11.330  38.540
 2226DPPC   C3B48407  31.605  11.480  38.200
 2226DPPC   C4B48408  31.195  11.620  38.070
 2227DPPC   NC348409  24.110  21.890  19.230
 2227DPPC   PO448410  24.290  21.890  19.590
 2227DPPC   GL148411  24.210  21.830  20.020
 2227DPPC   GL248412  23.960  21.860  20.090
 2227DPPC   C1A48413  24.210  21.370  20.190
 2227DPPC   C2A48414  24.260  20.990  20.500
 2227DPPC   C3A48415  24.080  20.630  20.780
 2227DPPC   C4A48416  23.810  20.450  21.230
 2227DPPC   C1B48417  23.670  21.420  20.220
 2227DPPC   C2B48418  23.380  21.190  20.490
 2227DPPC   C3B48419  22.930  20.950  20.570
 2227DPPC   C4B48420  22.660  20.990  20.920
 2228DPPC   NC348421  20.610  24.080  32.860
 2228DPPC   PO448422  20.220  24.050  33.030
 2228DPPC   GL148423  20.300  24.340  33.360
 2228DPPC   GL248424  20.180  24.340  33.630
 2228DPPC   C1A48425  20.330  24.790  33.250
 2228DPPC   C2A48426  20.110  25.160  33.070
 2228DPPC   C3A48427  20.090  25.570  33.200
 2228DPPC   C4A48428  20.090  25.990  33.190
 2228DPPC   C1B48429  20.130  24.740  33.720
 2228DPPC   C2B48430  20.190  25.160  33.610
 2228DPPC   C3B48431  20.230  25.530  33.780
 2228DPPC   C4B48432  20.370  25.890  33.960
 2229DPPC   NC348433  20.220  21.480  24.070
 2229DPPC   PO448434  20.350  21.730  23.850
 2229DPPC   GL148435  20.650  22.010  23.710
 2229DPPC   GL248436  21.060  22.090  23.800
 2229DPPC   C1A48437  20.480  22.440  23.490
 2229DPPC   C2A48438  20.610  22.870  23.380
 2229DPPC   C3A48439  21.010  23.070  23.470
 2229DPPC   C4A48440  21.370  23.280  23.730
 2229DPPC   C1B48441  20.880  22.220  23.320
 2229DPPC   C2B48442  20.950  22.640  23.170
 2229DPPC   C3B48443  20.890  23.000  22.980
 2229DPPC   C4B48444  20.730  23.350  22.940
 2230DPPC   NC348445  16.160  22.590  23.970
 2230DPPC   PO448446  16.020  22.870  23.700
 2230DPPC   GL148447  15.830  22.870  23.280
 2230DPPC   GL248448  15.620  22.620  23.250
 2230DPPC   C1A48449  15.500  23.100  23.060
 2230DPPC   C2A48450  15.480  23.160  22.650
 2230DPPC   C3A48451  15.450  22.960  22.320
 2230DPPC   C4A48452  15.600  22.490  22.150
 2230DPPC   C1B48453  15.120  22.560  23.210
 2230DPPC   C2B48454  14.740  22.500  23.060
 2230DPPC   C3B48455  14.830  22.470  22.600
 2230DPPC   C4B48456  15.080  22.640  22.220
 2231DPPC   NC348457  18.650  10.770  44.740
 2231DPPC   PO448458  18.590  11.210  44.600
 2231DPPC   GL148459  18.730  11.570  44.480
 2231DPPC   GL248460  19.020  11.560  44.580
 2231DPPC   C1A48461  18.680  11.950  44.260
 2231DPPC   C2A48462  18.750  12.150  43.900
 2231DPPC   C3A48463  18.690  12.400  43.470
 2231DPPC   C4A48464  18.410  12.570  43.150
 2231DPPC   C1B48465  19.000  12.000  44.670
 2231DPPC   C2B48466  18.730  12.300  44.780
 2231DPPC   C3B48467  18.750  12.750  44.660
 2231DPPC   C4B48468  18.610  13.140  44.750
 2232DPPC   NC348469  27.685  12.400  26.430
 2232DPPC   PO448470  28.045  12.510  26.580
 2232DPPC   GL148471  28.405  12.520  26.460
 2232DPPC   GL248472  28.525  12.510  26.200
 2232DPPC   C1A48473  28.815  12.460  26.560
 2232DPPC   C2A48474  29.065  12.230  26.380
 2232DPPC   C3A48475  29.335  12.240  25.980
 2232DPPC   C4A48476  29.705  12.490  25.810
 2232DPPC   C1B48477  29.085  12.690  26.120
 2232DPPC   C2B48478  29.465  12.820  26.120
 2232DPPC   C3B48479  29.885  12.960  25.890
 2232DPPC   C4B48480  30.005  13.420  25.780
 2233DPPC   NC348481  26.380  25.040  40.860
 2233DPPC   PO448482  26.000  24.910  41.150
 2233DPPC   GL148483  25.770  24.450  41.200
 2233DPPC   GL248484  25.500  24.370  41.310
 2233DPPC   C1A48485  25.760  24.030  41.150
 2233DPPC   C2A48486  25.570  23.710  41.200
 2233DPPC   C3A48487  25.530  23.330  41.010
 2233DPPC   C4A48488  25.750  23.080  40.740
 2233DPPC   C1B48489  25.230  24.070  41.100
 2233DPPC   C2B48490  24.760  24.170  40.920
 2233DPPC   C3B48491  24.390  24.080  41.110
 2233DPPC   C4B48492  23.950  23.990  41.170
 2234DPPC   NC348493  25.210  18.150  24.190
 2234DPPC   PO448494  24.770  18.370  24.190
 2234DPPC   GL148495  25.110  18.610  23.970
 2234DPPC   GL248496  25.010  18.890  23.890
 2234DPPC   C1A48497  25.460  18.960  23.930
 2234DPPC   C2A48498  25.560  19.260  23.630
 2234DPPC   C3A48499  25.730  19.640  23.680
 2234DPPC   C4A48500  26.060  19.860  23.470
 2234DPPC   C1B48501  25.090  19.300  23.730
 2234DPPC   C2B48502  25.260  19.700  23.520
 2234DPPC   C3B48503  25.600  20.100  23.530
 2234DPPC   C4B48504  25.670  20.440  23.700
 2235DPPC   NC348505  15.490  23.770  31.870
 2235DPPC   PO448506  15.910  24.010  31.680
 2235DPPC   GL148507  15.680  24.330  31.680
 2235DPPC   GL248508  15.330  24.310  31.590
 2235DPPC   C1A48509  15.580  24.750  31.460
 2235DPPC   C2A48510  15.450  25.090  31.350
 2235DPPC   C3A48511  15.160  25.360  31.420
 2235DPPC   C4A48512  15.180  25.810  31.450
 2235DPPC   C1B48513  15.130  24.610  31.540
 2235DPPC   C2B48514  14.800  24.820  31.720
 2235DPPC   C3B48515  14.580  25.100  31.470
 2235DPPC   C4B48516  14.610  25.380  31.110
 2236DPPC   NC348517  16.450   7.550  37.480
 2236DPPC   PO448518  16.690   7.260  37.350
 2236DPPC   GL148519  16.900   7.650  37.220
 2236DPPC   GL248520  17.190   7.660  37.270
 2236DPPC   C1A48521  17.100   8.150  37.050
 2236DPPC   C2A48522  17.360   8.570  37.090
 2236DPPC   C3A48523  17.630   8.970  37.180
 2236DPPC   C4A48524  17.620   9.250  37.550
 2236DPPC   C1B48525  17.640   7.740  37.240
 2236DPPC   C2B48526  18.080   7.800  37.070
 2236DPPC   C3B48527  18.180   8.230  37.100
 2236DPPC   C4B48528  18.560   8.420  37.190
 2237DPPC   NC348529  32.925  12.220  27.330
 2237DPPC   PO448530  32.685  11.860  27.610
 2237DPPC   GL148531  32.285  12.060  27.690
 2237DPPC   GL248532  32.245  12.180  27.410
 2237DPPC   C1A48533  31.905  12.160  27.970
 2237DPPC   C2A48534  31.565  11.940  28.120
 2237DPPC   C3A48535  31.215  12.050  28.140
 2237DPPC   C4A48536  30.975  12.180  27.890
 2237DPPC   C1B48537  31.805  12.390  27.560
 2237DPPC   C2B48538  31.445  12.320  27.740
 2237DPPC   C3B48539  31.275  12.550  28.090
 2237DPPC   C4B48540  31.475  12.880  28.380
 2238DPPC   NC348541  33.335  13.200  38.160
 2238DPPC   PO448542  33.515  13.620  38.290
 2238DPPC   GL148543  32.965  13.510  38.360
 2238DPPC   GL248544  32.715  13.730  38.560
 2238DPPC   C1A48545  32.555  13.600  38.090
 2238DPPC   C2A48546  32.155  13.830  38.160
 2238DPPC   C3A48547  31.795  13.770  38.240
 2238DPPC   C4A48548  31.465  13.500  38.400
 2238DPPC   C1B48549  32.485  13.970  38.880
 2238DPPC   C2B48550  31.945  14.120  38.950
 2238DPPC   C3B48551  31.775  14.550  38.940
 2238DPPC   C4B48552  31.445  14.900  39.110
 2239DPPC   NC348553  22.600  18.370  47.570
 2239DPPC   PO448554  22.690  17.950  47.300
 2239DPPC   GL148555  22.860  17.660  46.990
 2239DPPC   GL248556  22.950  17.350  47.180
 2239DPPC   C1A48557  22.980  17.780  46.560
 2239DPPC   C2A48558  22.900  17.600  46.150
 2239DPPC   C3A48559  22.740  17.390  45.810
 2239DPPC   C4A48560  22.540  17.300  45.400
 2239DPPC   C1B48561  22.500  17.390  47.040
 2239DPPC   C2B48562  22.310  17.480  46.710
 2239DPPC   C3B48563  21.920  17.290  46.580
 2239DPPC   C4B48564  21.570  17.230  46.150
 2240DPPC   NC348565  10.020  18.920  24.740
 2240DPPC   PO448566  10.360  18.670  24.890
 2240DPPC   GL148567  10.820  18.690  24.930
 2240DPPC   GL248568  10.990  18.420  24.710
 2240DPPC   C1A48569  11.060  18.400  25.250
 2240DPPC   C2A48570  11.210  18.110  25.640
 2240DPPC   C3A48571  11.340  17.670  25.660
 2240DPPC   C4A48572  11.400  17.390  25.970
 2240DPPC   C1B48573  11.400  18.530  24.900
 2240DPPC   C2B48574  11.850  18.510  24.910
 2240DPPC   C3B48575  12.360  18.530  25.010
 2240DPPC   C4B48576  12.740  18.250  25.020
 2241DPPC   NC348577  33.295  10.070  34.220
 2241DPPC   PO448578  33.405   9.950  33.770
 2241DPPC   GL148579  33.045   9.880  33.580
 2241DPPC   GL248580  32.875   9.620  33.640
 2241DPPC   C1A48581  32.855  10.150  33.330
 2241DPPC   C2A48582  32.475  10.360  33.260
 2241DPPC   C3A48583  32.355  10.790  33.150
 2241DPPC   C4A48584  32.335  11.280  33.270
 2241DPPC   C1B48585  32.385   9.620  33.640
 2241DPPC   C2B48586  32.015   9.510  33.640
 2241DPPC   C3B48587  31.655   9.360  33.310
 2241DPPC   C4B48588  31.435   9.440  32.900
 2242DPPC   NC348589  25.980  12.880  46.680
 2242DPPC   PO448590  25.610  13.100  46.700
 2242DPPC   GL148591  25.340  13.410  46.430
 2242DPPC   GL248592  25.170  13.340  46.460
 2242DPPC   C1A48593  25.230  13.440  45.900
 2242DPPC   C2A48594  24.950  13.650  45.600
 2242DPPC   C3A48595  25.000  13.570  45.160
 2242DPPC   C4A48596  25.240  13.700  44.840
 2242DPPC   C1B48597  24.860  13.300  46.260
 2242DPPC   C2B48598  24.690  13.340  45.910
 2242DPPC   C3B48599  24.680  13.150  45.400
 2242DPPC   C4B48600  25.020  13.090  45.200
 2243DPPC   NC348601  26.040  15.970  23.630
 2243DPPC   PO448602  25.810  16.460  23.460
 2243DPPC   GL148603  26.190  16.440  23.320
 2243DPPC   GL248604  26.190  16.510  23.010
 2243DPPC   C1A48605  26.585  16.810  23.140
 2243DPPC   C2A48606  26.430  17.210  22.990
 2243DPPC   C3A48607  26.485  17.590  22.790
 2243DPPC   C4A48608  26.370  18.010  22.750
 2243DPPC   C1B48609  26.320  16.720  22.600
 2243DPPC   C2B48610  26.310  17.040  22.390
 2243DPPC   C3B48611  26.605  17.080  22.090
 2243DPPC   C4B48612  26.885  17.450  22.070
 2244DPPC   NC348613  16.030  23.780  28.330
 2244DPPC   PO448614  15.670  23.760  28.150
 2244DPPC   GL148615  15.530  24.190  28.130
 2244DPPC   GL248616  15.540  24.140  28.570
 2244DPPC   C1A48617  15.440  24.710  28.400
 2244DPPC   C2A48618  15.390  25.180  28.410
 2244DPPC   C3A48619  15.160  25.410  28.410
 2244DPPC   C4A48620  14.900  25.600  28.220
 2244DPPC   C1B48621  15.640  24.490  28.820
 2244DPPC   C2B48622  15.520  24.930  28.830
 2244DPPC   C3B48623  15.420  25.330  28.870
 2244DPPC   C4B48624  15.490  25.610  29.180
 2245DPPC   NC348625  27.625  24.740  36.320
 2245DPPC   PO448626  27.395  24.490  36.320
 2245DPPC   GL148627  27.475  24.070  36.410
 2245DPPC   GL248628  27.215  24.060  36.700
 2245DPPC   C1A48629  27.215  23.790  36.240
 2245DPPC   C2A48630  26.815  23.710  36.240
 2245DPPC   C3A48631  26.440  23.760  36.490
 2245DPPC   C4A48632  26.150  23.450  36.500
 2245DPPC   C1B48633  26.895  23.830  36.740
 2245DPPC   C2B48634  26.825  23.320  36.650
 2245DPPC   C3B48635  26.865  22.850  36.490
 2245DPPC   C4B48636  26.535  22.520  36.680
 2246DPPC   NC348637  25.900  12.050  40.480
 2246DPPC   PO448638  26.210  11.790  40.580
 2246DPPC   GL148639  26.300  11.340  40.740
 2246DPPC   GL248640  26.280  11.370  41.060
 2246DPPC   C1A48641  26.705  11.080  40.860
 2246DPPC   C2A48642  26.965  10.680  40.730
 2246DPPC   C3A48643  27.435  10.680  40.840
 2246DPPC   C4A48644  27.715  10.700  41.150
 2246DPPC   C1B48645  26.190  11.390  41.500
 2246DPPC   C2B48646  26.170  11.230  41.870
 2246DPPC   C3B48647  26.380  10.780  41.790
 2246DPPC   C4B48648  26.655  10.410  41.680
 2247DPPC   NC348649  20.180  20.400  22.150
 2247DPPC   PO448650  19.860  20.670  22.370
 2247DPPC   GL148651  19.900  20.840  21.970
 2247DPPC   GL248652  20.000  20.640  21.670
 2247DPPC   C1A48653  19.770  21.150  21.610
 2247DPPC   C2A48654  20.050  21.480  21.410
 2247DPPC   C3A48655  20.350  21.780  21.410
 2247DPPC   C4A48656  20.260  22.140  21.270
 2247DPPC   C1B48657  20.050  20.770  21.380
 2247DPPC   C2B48658  20.010  21.030  21.200
 2247DPPC   C3B48659  20.440  21.330  21.100
 2247DPPC   C4B48660  20.580  21.680  20.790
 2248DPPC   NC348661  24.740  11.500  18.510
 2248DPPC   PO448662  25.090  11.430  18.750
 2248DPPC   GL148663  24.810  11.340  19.140
 2248DPPC   GL248664  24.590  11.330  18.950
 2248DPPC   C1A48665  24.570  11.630  19.470
 2248DPPC   C2A48666  24.610  11.860  19.790
 2248DPPC   C3A48667  24.570  11.900  20.210
 2248DPPC   C4A48668  24.440  11.650  20.620
 2248DPPC   C1B48669  24.330  11.200  19.390
 2248DPPC   C2B48670  24.040  11.350  19.680
 2248DPPC   C3B48671  23.740  11.470  20.010
 2248DPPC   C4B48672  23.930  11.840  20.170
 2249DPPC   NC348673  16.590   7.370  36.290
 2249DPPC   PO448674  16.980   7.010  36.380
 2249DPPC   GL148675  17.100   7.350  36.300
 2249DPPC   GL248676  17.320   7.540  36.460
 2249DPPC   C1A48677  17.490   7.550  35.890
 2249DPPC   C2A48678  17.400   7.620  35.460
 2249DPPC   C3A48679  17.730   7.960  35.140
 2249DPPC   C4A48680  18.120   8.110  34.880
 2249DPPC   C1B48681  17.320   7.890  36.730
 2249DPPC   C2B48682  17.620   8.120  36.920
 2249DPPC   C3B48683  17.820   8.490  36.910
 2249DPPC   C4B48684  18.010   8.720  36.590
 2250DPPC   NC348685  20.720  18.030  21.450
 2250DPPC   PO448686  20.540  17.650  21.290
 2250DPPC   GL148687  20.490  17.550  20.860
 2250DPPC   GL248688  20.470  17.220  20.820
 2250DPPC   C1A48689  20.430  17.600  20.430
 2250DPPC   C2A48690  20.390  17.560  20.020
 2250DPPC   C3A48691  20.170  17.770  19.720
 2250DPPC   C4A48692  19.790  17.640  19.480
 2250DPPC   C1B48693  20.230  17.160  20.440
 2250DPPC   C2B48694  20.360  16.910  20.060
 2250DPPC   C3B48695  20.470  16.610  19.870
 2250DPPC   C4B48696  20.710  16.360  19.590
 2251DPPC   NC348697  17.610   8.010  23.910
 2251DPPC   PO448698  17.570   7.700  24.250
 2251DPPC   GL148699  17.670   8.090  24.430
 2251DPPC   GL248700  17.580   8.210  24.760
 2251DPPC   C1A48701  17.950   8.450  24.460
 2251DPPC   C2A48702  18.250   8.730  24.570
 2251DPPC   C3A48703  18.300   8.880  24.970
 2251DPPC   C4A48704  18.360   8.930  25.340
 2251DPPC   C1B48705  17.820   8.310  25.220
 2251DPPC   C2B48706  18.210   8.430  25.410
 2251DPPC   C3B48707  18.410   8.510  25.760
 2251DPPC   C4B48708  18.620   8.840  25.850
 2252DPPC   NC348709  17.010  12.060  29.240
 2252DPPC   PO448710  16.710  12.520  29.100
 2252DPPC   GL148711  16.240  12.380  29.070
 2252DPPC   GL248712  16.240  12.310  28.790
 2252DPPC   C1A48713  15.930  12.180  29.390
 2252DPPC   C2A48714  15.610  11.900  29.220
 2252DPPC   C3A48715  15.170  11.790  29.140
 2252DPPC   C4A48716  14.760  11.950  29.170
 2252DPPC   C1B48717  16.170  11.860  28.760
 2252DPPC   C2B48718  16.020  11.480  28.620
 2252DPPC   C3B48719  16.240  11.210  28.310
 2252DPPC   C4B48720  16.150  11.400  27.930
 2253DPPC   NC348721  16.190  20.440  23.300
 2253DPPC   PO448722  16.170  20.890  23.210
 2253DPPC   GL148723  16.020  20.760  22.900
 2253DPPC   GL248724  15.720  20.960  22.870
 2253DPPC   C1A48725  16.070  20.770  22.440
 2253DPPC   C2A48726  15.720  20.740  22.190
 2253DPPC   C3A48727  15.260  20.660  22.060
 2253DPPC   C4A48728  14.880  20.340  22.080
 2253DPPC   C1B48729  15.780  21.220  22.520
 2253DPPC   C2B48730  15.860  21.290  22.140
 2253DPPC   C3B48731  15.820  21.450  21.710
 2253DPPC   C4B48732  15.580  21.720  21.490
 2254DPPC   NC348733  27.315  10.730  45.180
 2254DPPC   PO448734  26.995  11.090  45.020
 2254DPPC   GL148735  26.765  11.430  44.780
 2254DPPC   GL248736  26.485  11.650  44.860
 2254DPPC   C1A48737  26.915  11.510  44.360
 2254DPPC   C2A48738  26.945  11.660  44.020
 2254DPPC   C3A48739  26.825  11.950  43.690
 2254DPPC   C4A48740  26.735  12.370  43.620
 2254DPPC   C1B48741  26.430  11.760  44.390
 2254DPPC   C2B48742  26.465  11.740  43.950
 2254DPPC   C3B48743  26.410  11.880  43.520
 2254DPPC   C4B48744  26.120  11.860  43.150
 2255DPPC   NC348745  21.030  20.360  23.500
 2255DPPC   PO448746  21.330  20.770  23.630
 2255DPPC   GL148747  21.610  21.140  23.480
 2255DPPC   GL248748  21.670  21.400  23.680
 2255DPPC   C1A48749  21.540  21.510  23.180
 2255DPPC   C2A48750  21.810  21.790  22.900
 2255DPPC   C3A48751  22.030  22.130  22.690
 2255DPPC   C4A48752  22.060  22.260  22.360
 2255DPPC   C1B48753  21.800  21.780  23.460
 2255DPPC   C2B48754  21.930  22.200  23.290
 2255DPPC   C3B48755  21.870  22.700  23.120
 2255DPPC   C4B48756  21.970  23.080  22.800
 2256DPPC   NC348757  25.330  17.440  28.630
 2256DPPC   PO448758  25.510  17.820  28.570
 2256DPPC   GL148759  25.670  18.210  28.690
 2256DPPC   GL248760  25.970  18.270  28.560
 2256DPPC   C1A48761  25.540  18.380  29.060
 2256DPPC   C2A48762  25.790  18.660  29.220
 2256DPPC   C3A48763  25.940  18.920  29.470
 2256DPPC   C4A48764  25.910  18.970  29.920
 2256DPPC   C1B48765  26.360  18.500  28.770
 2256DPPC   C2B48766  26.775  18.730  28.910
 2256DPPC   C3B48767  27.135  19.060  28.940
 2256DPPC   C4B48768  27.435  19.350  29.000
 2257DPPC   NC348769  30.275  21.860  38.720
 2257DPPC   PO448770  29.855  22.110  38.700
 2257DPPC   GL148771  29.645  21.810  38.840
 2257DPPC   GL248772  29.545  21.580  39.090
 2257DPPC   C1A48773  29.055  21.870  38.780
 2257DPPC   C2A48774  28.685  21.980  38.750
 2257DPPC   C3A48775  28.335  22.040  38.590
 2257DPPC   C4A48776  28.095  22.200  38.850
 2257DPPC   C1B48777  29.215  21.360  39.320
 2257DPPC   C2B48778  28.905  21.050  39.590
 2257DPPC   C3B48779  29.035  20.700  39.840
 2257DPPC   C4B48780  29.465  20.470  39.930
 2258DPPC   NC348781  23.740  21.630  35.480
 2258DPPC   PO448782  23.850  22.030  35.170
 2258DPPC   GL148783  24.050  22.340  35.430
 2258DPPC   GL248784  24.260  22.490  35.280
 2258DPPC   C1A48785  24.040  22.870  35.340
 2258DPPC   C2A48786  24.330  23.100  35.250
 2258DPPC   C3A48787  24.790  23.090  35.340
 2258DPPC   C4A48788  25.110  22.910  35.400
 2258DPPC   C1B48789  24.730  22.540  35.440
 2258DPPC   C2B48790  25.140  22.430  35.710
 2258DPPC   C3B48791  25.500  22.610  35.900
 2258DPPC   C4B48792  25.850  22.820  36.180
 2259DPPC   NC348793  31.755  18.790  31.730
 2259DPPC   PO448794  31.655  18.500  31.410
 2259DPPC   GL148795  31.295  18.390  31.260
 2259DPPC   GL248796  31.045  18.460  31.460
 2259DPPC   C1A48797  31.085  18.060  31.210
 2259DPPC   C2A48798  30.675  17.890  31.130
 2259DPPC   C3A48799  30.325  17.540  31.160
 2259DPPC   C4A48800  30.255  17.090  31.040
 2259DPPC   C1B48801  30.615  18.160  31.570
 2259DPPC   C2B48802  30.425  17.770  31.640
 2259DPPC   C3B48803  30.635  17.400  31.920
 2259DPPC   C4B48804  30.645  17.440  32.370
 2260DPPC   NC348805  26.330  18.300  46.400
 2260DPPC   PO448806  26.735  18.340  46.150
 2260DPPC   GL148807  26.565  18.300  45.750
 2260DPPC   GL248808  26.320  18.490  45.820
 2260DPPC   C1A48809  26.400  18.040  45.480
 2260DPPC   C2A48810  26.020  17.890  45.250
 2260DPPC   C3A48811  25.680  17.890  45.030
 2260DPPC   C4A48812  25.260  18.130  45.020
 2260DPPC   C1B48813  26.350  18.520  45.390
 2260DPPC   C2B48814  26.380  18.270  45.030
 2260DPPC   C3B48815  26.300  17.990  44.750
 2260DPPC   C4B48816  26.595  18.090  44.290
 2261DPPC   NC348817  25.450  18.620  25.920
 2261DPPC   PO448818  25.440  18.460  25.460
 2261DPPC   GL148819  25.800  18.710  25.360
 2261DPPC   GL248820  26.190  18.650  25.390
 2261DPPC   C1A48821  25.970  19.150  25.410
 2261DPPC   C2A48822  26.230  19.430  25.210
 2261DPPC   C3A48823  26.645  19.440  25.090
 2261DPPC   C4A48824  27.025  19.680  25.210
 2261DPPC   C1B48825  26.465  18.950  25.680
 2261DPPC   C2B48826  26.725  19.410  26.030
 2261DPPC   C3B48827  27.035  19.670  26.310
 2261DPPC   C4B48828  27.185  19.720  26.720
 2262DPPC   NC348829  25.960  13.780  23.500
 2262DPPC   PO448830  26.070  14.200  23.470
 2262DPPC   GL148831  26.370  13.930  23.250
 2262DPPC   GL248832  26.495  13.990  22.990
 2262DPPC   C1A48833  26.835  13.730  23.360
 2262DPPC   C2A48834  27.115  13.530  23.150
 2262DPPC   C3A48835  27.485  13.420  22.950
 2262DPPC   C4A48836  27.745  13.230  22.770
 2262DPPC   C1B48837  26.855  13.970  22.880
 2262DPPC   C2B48838  27.215  14.020  22.770
 2262DPPC   C3B48839  27.525  14.300  22.770
 2262DPPC   C4B48840  27.915  14.300  22.800
 2263DPPC   NC348841  25.830   7.870  29.020
 2263DPPC   PO448842  26.070   7.880  28.640
 2263DPPC   GL148843  26.310   7.530  28.720
 2263DPPC   GL248844  26.685   7.540  28.510
 2263DPPC   C1A48845  26.410   7.160  28.710
 2263DPPC   C2A48846  26.695   6.980  28.430
 2263DPPC   C3A48847  26.915   6.760  28.110
 2263DPPC   C4A48848  26.655   6.600  27.690
 2263DPPC   C1B48849  26.845   7.380  28.110
 2263DPPC   C2B48850  26.665   7.130  27.800
 2263DPPC   C3B48851  26.765   7.050  27.390
 2263DPPC   C4B48852  26.565   7.150  26.960
 2264DPPC   NC348853  18.160  12.890  18.610
 2264DPPC   PO448854  18.400  12.520  18.790
 2264DPPC   GL148855  18.850  12.560  19.050
 2264DPPC   GL248856  18.920  12.870  19.270
 2264DPPC   C1A48857  18.850  12.430  19.510
 2264DPPC   C2A48858  19.010  12.620  19.860
 2264DPPC   C3A48859  19.240  12.590  20.240
 2264DPPC   C4A48860  19.330  12.490  20.580
 2264DPPC   C1B48861  19.360  12.720  19.300
 2264DPPC   C2B48862  19.670  12.990  19.370
 2264DPPC   C3B48863  19.970  13.080  19.620
 2264DPPC   C4B48864  20.350  13.050  19.980
 2265DPPC   NC348865  26.050  23.750  25.310
 2265DPPC   PO448866  26.110  23.690  24.930
 2265DPPC   GL148867  25.700  23.580  24.780
 2265DPPC   GL248868  25.740  23.210  24.740
 2265DPPC   C1A48869  25.210  23.420  24.830
 2265DPPC   C2A48870  24.800  23.410  24.620
 2265DPPC   C3A48871  24.490  23.050  24.670
 2265DPPC   C4A48872  24.380  22.940  25.100
 2265DPPC   C1B48873  25.370  22.920  24.890
 2265DPPC   C2B48874  25.030  22.610  25.040
 2265DPPC   C3B48875  24.750  22.640  25.370
 2265DPPC   C4B48876  24.280  22.580  25.370
 2266DPPC   NC348877  25.900  25.890  38.700
 2266DPPC   PO448878  25.660  25.600  38.650
 2266DPPC   GL148879  25.250  25.500  38.860
 2266DPPC   GL248880  25.080  25.420  38.570
 2266DPPC   C1A48881  25.030  25.110  39.020
 2266DPPC   C2A48882  24.810  24.680  39.080
 2266DPPC   C3A48883  24.780  24.350  39.170
 2266DPPC   C4A48884  24.700  23.910  39.260
 2266DPPC   C1B48885  25.070  25.240  38.250
 2266DPPC   C2B48886  25.210  25.410  37.830
 2266DPPC   C3B48887  24.970  25.640  37.530
 2266DPPC   C4B48888  24.610  25.610  37.360
 2267DPPC   NC348889  15.560  23.980  43.400
 2267DPPC   PO448890  15.670  23.570  43.450
 2267DPPC   GL148891  15.920  23.610  43.180
 2267DPPC   GL248892  16.130  23.440  43.250
 2267DPPC   C1A48893  16.090  23.390  42.770
 2267DPPC   C2A48894  16.180  23.130  42.510
 2267DPPC   C3A48895  16.490  22.740  42.300
 2267DPPC   C4A48896  16.520  22.390  42.090
 2267DPPC   C1B48897  16.420  23.160  43.010
 2267DPPC   C2B48898  16.500  22.650  42.790
 2267DPPC   C3B48899  16.790  22.430  42.560
 2267DPPC   C4B48900  17.020  22.500  42.200
 2268DPPC   NC348901  29.555  12.220  43.640
 2268DPPC   PO448902  29.935  12.120  43.370
 2268DPPC   GL148903  29.595  12.360  43.000
 2268DPPC   GL248904  29.385  12.090  42.930
 2268DPPC   C1A48905  29.725  12.440  42.640
 2268DPPC   C2A48906  29.655  12.720  42.340
 2268DPPC   C3A48907  29.465  12.840  42.000
 2268DPPC   C4A48908  29.275  13.200  41.730
 2268DPPC   C1B48909  29.025  11.680  42.740
 2268DPPC   C2B48910  28.805  11.300  42.600
 2268DPPC   C3B48911  28.765  10.820  42.620
 2268DPPC   C4B48912  28.675  10.580  42.240
 2269DPPC   NC348913  22.580  20.870  32.430
 2269DPPC   PO448914  22.880  21.270  32.330
 2269DPPC   GL148915  23.290  21.200  32.220
 2269DPPC   GL248916  23.410  21.400  32.010
 2269DPPC   C1A48917  23.530  20.940  31.900
 2269DPPC   C2A48918  23.830  20.600  31.860
 2269DPPC   C3A48919  24.110  20.270  31.910
 2269DPPC   C4A48920  24.110  19.930  32.200
 2269DPPC   C1B48921  23.750  21.560  31.850
 2269DPPC   C2B48922  24.220  21.710  31.740
 2269DPPC   C3B48923  24.570  21.660  31.350
 2269DPPC   C4B48924  25.020  21.520  31.160
 2270DPPC   NC348925  18.890  24.330  26.860
 2270DPPC   PO448926  18.610  24.120  26.780
 2270DPPC   GL148927  18.440  24.490  26.670
 2270DPPC   GL248928  18.640  24.490  26.390
 2270DPPC   C1A48929  18.420  24.860  26.590
 2270DPPC   C2A48930  18.250  25.260  26.520
 2270DPPC   C3A48931  18.070  25.460  26.170
 2270DPPC   C4A48932  18.030  25.890  26.070
 2270DPPC   C1B48933  18.690  24.710  26.190
 2270DPPC   C2B48934  18.660  25.120  26.260
 2270DPPC   C3B48935  18.580  25.520  26.200
 2270DPPC   C4B48936  18.500  25.760  25.890
 2271DPPC   NC348937  29.725  21.540  34.380
 2271DPPC   PO448938  30.035  21.690  34.620
 2271DPPC   GL148939  29.615  21.530  34.870
 2271DPPC   GL248940  29.705  21.250  34.800
 2271DPPC   C1A48941  29.155  21.390  34.820
 2271DPPC   C2A48942  28.955  20.980  34.730
 2271DPPC   C3A48943  28.855  20.550  34.840
 2271DPPC   C4A48944  28.675  20.310  35.170
 2271DPPC   C1B48945  29.425  20.970  34.570
 2271DPPC   C2B48946  29.125  20.710  34.330
 2271DPPC   C3B48947  28.735  20.400  34.360
 2271DPPC   C4B48948  28.465  20.330  34.580
 2272DPPC   NC348949  23.380   3.090  27.820
 2272DPPC   PO448950  23.380   3.580  27.790
 2272DPPC   GL148951  23.650   3.960  27.980
 2272DPPC   GL248952  23.970   4.070  27.930
 2272DPPC   C1A48953  23.580   4.300  28.290
 2272DPPC   C2A48954  23.300   4.680  28.480
 2272DPPC   C3A48955  23.270   5.110  28.720
 2272DPPC   C4A48956  23.400   5.410  29.030
 2272DPPC   C1B48957  24.220   4.470  27.850
 2272DPPC   C2B48958  24.310   4.880  27.810
 2272DPPC   C3B48959  24.380   5.360  27.740
 2272DPPC   C4B48960  24.340   5.840  27.660
 2273DPPC   NC348961  17.730  24.830  30.580
 2273DPPC   PO448962  17.490  24.760  30.960
 2273DPPC   GL148963  17.210  24.990  31.010
 2273DPPC   GL248964  17.150  25.060  31.410
 2273DPPC   C1A48965  17.270  25.390  30.910
 2273DPPC   C2A48966  17.290  25.830  30.940
 2273DPPC   C3A48967  17.110  26.200  30.680
 2273DPPC   C4A48968  16.970   0.050  30.350
 2273DPPC   C1B48969  16.990  25.390  31.330
 2273DPPC   C2B48970  17.140  25.840  31.400
 2273DPPC   C3B48971  17.020  26.310  31.500
 2273DPPC   C4B48972  16.820   0.200  31.440
 2274DPPC   NC348973  21.460   9.530  26.670
 2274DPPC   PO448974  21.210   9.520  27.070
 2274DPPC   GL148975  21.160   9.160  26.870
 2274DPPC   GL248976  21.020   9.130  26.570
 2274DPPC   C1A48977  21.270   8.800  27.020
 2274DPPC   C2A48978  21.350   8.280  26.950
 2274DPPC   C3A48979  21.310   7.760  26.730
 2274DPPC   C4A48980  21.370   7.330  26.770
 2274DPPC   C1B48981  20.810   8.740  26.780
 2274DPPC   C2B48982  20.600   8.420  26.770
 2274DPPC   C3B48983  20.230   8.160  26.660
 2274DPPC   C4B48984  19.880   7.860  26.560
 2275DPPC   NC348985  30.225  18.500  23.740
 2275DPPC   PO448986  30.095  18.630  24.100
 2275DPPC   GL148987  29.685  18.440  24.150
 2275DPPC   GL248988  29.475  18.620  24.370
 2275DPPC   C1A48989  29.375  18.510  23.820
 2275DPPC   C2A48990  28.985  18.240  23.780
 2275DPPC   C3A48991  28.615  18.250  23.920
 2275DPPC   C4A48992  28.215  18.360  23.810
 2275DPPC   C1B48993  29.075  18.700  24.160
 2275DPPC   C2B48994  28.635  18.730  24.200
 2275DPPC   C3B48995  28.265  18.390  24.350
 2275DPPC   C4B48996  28.045  17.960  24.160
 2276DPPC   NC348997  26.210  23.820  31.090
 2276DPPC   PO448998  26.080  23.700  31.490
 2276DPPC   GL148999  25.640  23.680  31.610
 2276DPPC   GL249000  25.660  23.690  32.010
 2276DPPC   C1A49001  25.370  23.360  31.800
 2276DPPC   C2A49002  25.120  22.990  31.880
 2276DPPC   C3A49003  25.140  22.600  31.710
 2276DPPC   C4A49004  24.960  22.190  31.700
 2276DPPC   C1B49005  25.280  23.510  32.280
 2276DPPC   C2B49006  25.170  23.110  32.600
 2276DPPC   C3B49007  25.440  23.090  32.990
 2276DPPC   C4B49008  25.710  23.380  33.080
 2277DPPC   NC349009  25.760  23.900  23.870
 2277DPPC   PO449010  25.640  24.000  24.290
 2277DPPC   GL149011  25.410  23.660  24.170
 2277DPPC   GL249012  25.530  23.470  24.180
 2277DPPC   C1A49013  25.040  23.490  24.110
 2277DPPC   C2A49014  24.720  23.290  24.150
 2277DPPC   C3A49015  24.340  23.200  23.890
 2277DPPC   C4A49016  24.110  23.050  23.550
 2277DPPC   C1B49017  25.370  23.200  24.390
 2277DPPC   C2B49018  25.020  22.960  24.530
 2277DPPC   C3B49019  24.710  22.620  24.620
 2277DPPC   C4B49020  24.480  22.450  24.890
 2278DPPC   NC349021  20.890  23.800  34.810
 2278DPPC   PO449022  21.190  23.810  34.370
 2278DPPC   GL149023  21.400  24.140  34.140
 2278DPPC   GL249024  21.770  24.120  34.070
 2278DPPC   C1A49025  21.490  24.520  33.990
 2278DPPC   C2A49026  21.580  24.980  33.830
 2278DPPC   C3A49027  21.680  25.260  33.660
 2278DPPC   C4A49028  21.570  25.700  33.330
 2278DPPC   C1B49029  21.940  24.490  34.220
 2278DPPC   C2B49030  22.070  24.890  34.150
 2278DPPC   C3B49031  22.200  25.220  33.900
 2278DPPC   C4B49032  22.240  25.610  34.120
 2279DPPC   NC349033  12.230  25.670  35.180
 2279DPPC   PO449034  11.950  25.370  35.080
 2279DPPC   GL149035  11.910  25.260  34.650
 2279DPPC   GL249036  11.780  25.440  34.450
 2279DPPC   C1A49037  12.000  24.930  34.340
 2279DPPC   C2A49038  12.210  24.600  34.340
 2279DPPC   C3A49039  12.640  24.500  34.260
 2279DPPC   C4A49040  13.010  24.410  34.240
 2279DPPC   C1B49041  11.770  25.320  34.130
 2279DPPC   C2B49042  11.670  25.260  33.750
 2279DPPC   C3B49043  11.960  25.230  33.370
 2279DPPC   C4B49044  12.300  25.250  33.130
 2280DPPC   NC349045  22.030   1.700  37.180
 2280DPPC   PO449046  21.740   1.940  37.060
 2280DPPC   GL149047  21.640   1.480  37.020
 2280DPPC   GL249048  21.600   1.370  36.880
 2280DPPC   C1A49049  21.460   1.150  37.300
 2280DPPC   C2A49050  21.440   0.800  37.580
 2280DPPC   C3A49051  21.460   0.600  38.000
 2280DPPC   C4A49052  21.370   0.290  38.310
 2280DPPC   C1B49053  21.590   1.040  36.800
 2280DPPC   C2B49054  21.700   0.710  36.700
 2280DPPC   C3B49055  21.620   0.480  36.300
 2280DPPC   C4B49056  21.640   0.120  36.170
 2281DPPC   NC349057  22.430   7.950  33.700
 2281DPPC   PO449058  22.600   8.040  33.280
 2281DPPC   GL149059  22.510   7.570  33.300
 2281DPPC   GL249060  22.780   7.390  33.200
 2281DPPC   C1A49061  22.210   7.360  33.590
 2281DPPC   C2A49062  22.000   7.000  33.770
 2281DPPC   C3A49063  22.010   6.550  33.790
 2281DPPC   C4A49064  22.200   6.130  33.680
 2281DPPC   C1B49065  22.520   7.110  33.230
 2281DPPC   C2B49066  22.560   6.620  33.360
 2281DPPC   C3B49067  22.700   6.220  33.570
 2281DPPC   C4B49068  22.670   5.890  33.840
 2282DPPC   NC349069  17.370  24.930  34.450
 2282DPPC   PO449070  17.660  25.150  34.180
 2282DPPC   GL149071  17.690  25.520  34.080
 2282DPPC   GL249072  17.990  25.460  33.930
 2282DPPC   C1A49073  17.460  25.910  34.270
 2282DPPC   C2A49074  17.260  26.320  34.480
 2282DPPC   C3A49075  17.140   0.250  34.640
 2282DPPC   C4A49076  16.760   0.650  34.530
 2282DPPC   C1B49077  18.090  25.890  34.110
 2282DPPC   C2B49078  18.050  26.320  34.140
 2282DPPC   C3B49079  17.950   0.290  34.140
 2282DPPC   C4B49080  17.750   0.700  34.040
 2283DPPC   NC349081  31.715  18.990  36.080
 2283DPPC   PO449082  31.995  18.580  36.180
 2283DPPC   GL149083  31.605  18.400  36.210
 2283DPPC   GL249084  31.335  18.610  36.320
 2283DPPC   C1A49085  31.345  18.230  35.990
 2283DPPC   C2A49086  30.895  17.950  35.960
 2283DPPC   C3A49087  30.675  17.850  36.290
 2283DPPC   C4A49088  30.265  17.860  36.680
 2283DPPC   C1B49089  31.245  18.150  36.460
 2283DPPC   C2B49090  31.505  17.780  36.670
 2283DPPC   C3B49091  31.765  17.440  36.770
 2283DPPC   C4B49092  31.785  17.290  37.130
 2284DPPC   NC349093  28.265  13.770  28.380
 2284DPPC   PO449094  28.665  14.060  28.090
 2284DPPC   GL149095  29.075  14.290  28.190
 2284DPPC   GL249096  29.105  14.520  28.290
 2284DPPC   C1A49097  29.555  14.450  28.040
 2284DPPC   C2A49098  29.805  14.250  27.680
 2284DPPC   C3A49099  30.065  14.290  27.300
 2284DPPC   C4A49100  30.325  14.260  26.930
 2284DPPC   C1B49101  29.295  14.800  28.540
 2284DPPC   C2B49102  29.755  14.770  28.500
 2284DPPC   C3B49103  30.245  14.840  28.400
 2284DPPC   C4B49104  30.575  15.020  28.500
 2285DPPC   NC349105  12.960  10.470  32.110
 2285DPPC   PO449106  13.150  10.260  31.760
 2285DPPC   GL149107  13.460  10.240  31.500
 2285DPPC   GL249108  13.720  10.300  31.670
 2285DPPC   C1A49109  13.600  10.360  31.140
 2285DPPC   C2A49110  13.730  10.620  30.660
 2285DPPC   C3A49111  13.940  11.030  30.530
 2285DPPC   C4A49112  14.240  11.460  30.420
 2285DPPC   C1B49113  13.890  10.660  31.620
 2285DPPC   C2B49114  14.020  10.940  31.310
 2285DPPC   C3B49115  14.200  11.320  31.140
 2285DPPC   C4B49116  14.600  11.470  31.140
 2286DPPC   NC349117  23.880  16.000  21.950
 2286DPPC   PO449118  24.330  16.050  21.800
 2286DPPC   GL149119  24.740  15.740  21.710
 2286DPPC   GL249120  25.090  15.980  21.740
 2286DPPC   C1A49121  25.040  15.630  21.400
 2286DPPC   C2A49122  25.200  15.530  20.950
 2286DPPC   C3A49123  25.390  15.410  20.540
 2286DPPC   C4A49124  25.550  15.090  20.350
 2286DPPC   C1B49125  25.450  16.010  21.390
 2286DPPC   C2B49126  25.670  15.920  21.070
 2286DPPC   C3B49127  25.780  15.680  20.790
 2286DPPC   C4B49128  25.920  15.320  20.580
 2287DPPC   NC349129  30.755  17.910  24.940
 2287DPPC   PO449130  30.845  17.560  25.050
 2287DPPC   GL149131  30.645  17.200  25.420
 2287DPPC   GL249132  30.775  17.230  25.760
 2287DPPC   C1A49133  30.355  16.990  25.710
 2287DPPC   C2A49134  30.335  16.580  25.830
 2287DPPC   C3A49135  30.335  16.270  26.140
 2287DPPC   C4A49136  30.245  15.850  26.290
 2287DPPC   C1B49137  30.855  16.760  25.630
 2287DPPC   C2B49138  30.785  16.420  25.800
 2287DPPC   C3B49139  30.805  15.960  25.970
 2287DPPC   C4B49140  30.635  15.570  25.970
 2288DPPC   NC349141  20.810   1.800  30.270
 2288DPPC   PO449142  20.540   1.470  30.170
 2288DPPC   GL149143  20.680   1.220  29.890
 2288DPPC   GL249144  20.490   1.240  29.620
 2288DPPC   C1A49145  21.090   0.940  29.920
 2288DPPC   C2A49146  21.290   0.540  30.040
 2288DPPC   C3A49147  20.950   0.170  30.150
 2288DPPC   C4A49148  20.750  26.370  29.980
 2288DPPC   C1B49149  20.300   1.010  29.300
 2288DPPC   C2B49150  20.200   0.750  29.370
 2288DPPC   C3B49151  20.240   0.330  29.520
 2288DPPC   C4B49152  20.470  26.390  29.430
 2289DPPC   NC349153  32.905  16.050  30.140
 2289DPPC   PO449154  32.755  15.860  30.540
 2289DPPC   GL149155  32.425  15.700  30.670
 2289DPPC   GL249156  32.305  15.840  30.940
 2289DPPC   C1A49157  31.995  15.290  30.730
 2289DPPC   C2A49158  31.635  15.240  30.950
 2289DPPC   C3A49159  31.385  15.040  31.010
 2289DPPC   C4A49160  31.145  14.720  30.800
 2289DPPC   C1B49161  31.815  15.850  31.010
 2289DPPC   C2B49162  31.415  15.670  30.930
 2289DPPC   C3B49163  31.015  15.680  30.560
 2289DPPC   C4B49164  30.665  15.550  30.350
 2290DPPC   NC349165  30.495  12.640  42.790
 2290DPPC   PO449166  30.635  12.310  42.870
 2290DPPC   GL149167  30.395  12.310  42.420
 2290DPPC   GL249168  30.115  12.140  42.370
 2290DPPC   C1A49169  30.095  12.540  42.090
 2290DPPC   C2A49170  29.915  12.570  41.710
 2290DPPC   C3A49171  29.445  12.360  41.740
 2290DPPC   C4A49172  29.055  12.490  42.060
 2290DPPC   C1B49173  29.745  12.200  42.190
 2290DPPC   C2B49174  29.345  12.090  42.290
 2290DPPC   C3B49175  28.915  11.860  42.260
 2290DPPC   C4B49176  28.605  11.610  42.280
 2291DPPC   NC349177  12.270  10.730  33.330
 2291DPPC   PO449178  12.200  10.850  32.920
 2291DPPC   GL149179  12.530  11.190  33.050
 2291DPPC   GL249180  12.760  11.410  32.880
 2291DPPC   C1A49181  12.720  11.480  33.410
 2291DPPC   C2A49182  13.160  11.510  33.510
 2291DPPC   C3A49183  13.220  11.470  33.960
 2291DPPC   C4A49184  13.390  11.860  34.190
 2291DPPC   C1B49185  13.000  11.740  33.100
 2291DPPC   C2B49186  13.080  12.180  33.040
 2291DPPC   C3B49187  13.470  12.380  32.950
 2291DPPC   C4B49188  13.690  12.450  32.680
 2292DPPC   NC349189  28.165  12.070  26.230
 2292DPPC   PO449190  28.065  12.480  26.060
 2292DPPC   GL149191  28.325  12.590  25.690
 2292DPPC   GL249192  28.145  12.810  25.330
 2292DPPC   C1A49193  28.775  12.530  25.610
 2292DPPC   C2A49194  29.195  12.490  25.550
 2292DPPC   C3A49195  29.555  12.500  25.330
 2292DPPC   C4A49196  29.905  12.560  25.410
 2292DPPC   C1B49197  28.495  12.630  25.130
 2292DPPC   C2B49198  28.895  12.480  25.140
 2292DPPC   C3B49199  29.305  12.220  25.030
 2292DPPC   C4B49200  29.435  11.970  24.770
 2293DPPC   NC349201  13.280  16.540  20.290
 2293DPPC   PO449202  13.290  16.050  20.310
 2293DPPC   GL149203  13.590  15.920  20.720
 2293DPPC   GL249204  13.280  15.860  21.010
 2293DPPC   C1A49205  13.830  16.200  20.980
 2293DPPC   C2A49206  14.010  16.410  21.330
 2293DPPC   C3A49207  14.140  16.830  21.510
 2293DPPC   C4A49208  14.110  17.220  21.200
 2293DPPC   C1B49209  13.640  15.810  21.220
 2293DPPC   C2B49210  14.080  15.780  21.440
 2293DPPC   C3B49211  14.440  16.070  21.620
 2293DPPC   C4B49212  14.800  16.150  21.870
 2294DPPC   NC349213  21.200  23.470  28.980
 2294DPPC   PO449214  20.910  23.730  28.940
 2294DPPC   GL149215  21.240  24.070  28.870
 2294DPPC   GL249216  21.410  24.090  28.640
 2294DPPC   C1A49217  21.630  24.380  28.900
 2294DPPC   C2A49218  21.800  24.740  29.060
 2294DPPC   C3A49219  22.040  25.050  28.840
 2294DPPC   C4A49220  22.350  24.800  29.010
 2294DPPC   C1B49221  21.130  24.510  28.670
 2294DPPC   C2B49222  21.040  24.890  28.550
 2294DPPC   C3B49223  20.890  25.110  28.250
 2294DPPC   C4B49224  20.680  25.490  28.120
 2295DPPC   NC349225  20.920  20.240  17.430
 2295DPPC   PO449226  20.930  19.800  17.580
 2295DPPC   GL149227  20.760  19.790  17.920
 2295DPPC   GL249228  20.620  19.530  17.880
 2295DPPC   C1A49229  20.750  19.880  18.380
 2295DPPC   C2A49230  21.040  19.910  18.640
 2295DPPC   C3A49231  21.250  20.090  18.860
 2295DPPC   C4A49232  21.370  20.360  19.280
 2295DPPC   C1B49233  20.880  19.420  18.290
 2295DPPC   C2B49234  20.810  19.470  18.740
 2295DPPC   C3B49235  20.760  19.710  19.130
 2295DPPC   C4B49236  21.050  19.910  19.270
 2296DPPC   NC349237  19.060  10.380  33.660
 2296DPPC   PO449238  19.250  10.320  34.130
 2296DPPC   GL149239  19.010   9.950  34.070
 2296DPPC   GL249240  18.840   9.970  33.740
 2296DPPC   C1A49241  18.960   9.510  34.120
 2296DPPC   C2A49242  18.720   9.260  34.450
 2296DPPC   C3A49243  18.630   8.850  34.580
 2296DPPC   C4A49244  18.450   8.620  34.780
 2296DPPC   C1B49245  18.510   9.660  33.560
 2296DPPC   C2B49246  18.250   9.330  33.460
 2296DPPC   C3B49247  17.980   8.980  33.460
 2296DPPC   C4B49248  17.690   9.070  33.770
 2297DPPC   NC349249  29.545  13.590  33.020
 2297DPPC   PO449250  29.725  13.640  32.640
 2297DPPC   GL149251  30.015  13.840  32.880
 2297DPPC   GL249252  30.255  13.620  32.830
 2297DPPC   C1A49253  30.345  14.000  33.180
 2297DPPC   C2A49254  30.775  13.970  33.210
 2297DPPC   C3A49255  30.965  13.740  33.460
 2297DPPC   C4A49256  31.285  13.960  33.760
 2297DPPC   C1B49257  30.695  13.800  32.750
 2297DPPC   C2B49258  31.075  13.800  32.860
 2297DPPC   C3B49259  31.565  13.950  32.760
 2297DPPC   C4B49260  31.855  13.760  32.670
 2298DPPC   NC349261  20.530   1.830  28.900
 2298DPPC   PO449262  20.250   1.780  28.540
 2298DPPC   GL149263  20.060   1.430  28.510
 2298DPPC   GL249264  20.100   1.230  28.230
 2298DPPC   C1A49265  19.710   1.050  28.600
 2298DPPC   C2A49266  19.430   0.730  28.570
 2298DPPC   C3A49267  19.070   0.530  28.720
 2298DPPC   C4A49268  18.590   0.740  28.640
 2298DPPC   C1B49269  20.140   0.790  28.400
 2298DPPC   C2B49270  20.040   0.470  28.520
 2298DPPC   C3B49271  19.740   0.120  28.420
 2298DPPC   C4B49272  19.750  26.220  28.810
 2299DPPC   NC349273  27.515   3.580  27.960
 2299DPPC   PO449274  27.445   3.970  27.980
 2299DPPC   GL149275  27.115   4.370  27.950
 2299DPPC   GL249276  27.215   4.610  27.780
 2299DPPC   C1A49277  27.025   4.640  28.350
 2299DPPC   C2A49278  26.865   4.970  28.420
 2299DPPC   C3A49279  26.735   5.310  28.690
 2299DPPC   C4A49280  26.765   5.750  28.750
 2299DPPC   C1B49281  27.165   5.060  28.030
 2299DPPC   C2B49282  26.955   5.430  28.120
 2299DPPC   C3B49283  26.595   5.590  28.280
 2299DPPC   C4B49284  26.320   5.930  28.310
 2300DPPC   NC349285  13.190   9.390  35.710
 2300DPPC   PO449286  13.600   9.460  35.690
 2300DPPC   GL149287  13.900   9.760  35.760
 2300DPPC   GL249288  13.770  10.080  35.760
 2300DPPC   C1A49289  14.330  10.000  35.710
 2300DPPC   C2A49290  14.790  10.280  35.770
 2300DPPC   C3A49291  15.180  10.090  35.660
 2300DPPC   C4A49292  15.580   9.860  35.650
 2300DPPC   C1B49293  13.950  10.400  35.640
 2300DPPC   C2B49294  14.170  10.760  35.430
 2300DPPC   C3B49295  14.430  11.050  35.430
 2300DPPC   C4B49296  14.750  11.320  35.190
 2301DPPC   NC349297  27.105  23.780  29.510
 2301DPPC   PO449298  26.715  23.840  29.560
 2301DPPC   GL149299  26.440  23.720  29.320
 2301DPPC   GL249300  26.170  24.020  29.400
 2301DPPC   C1A49301  26.060  23.450  29.320
 2301DPPC   C2A49302  25.720  23.150  29.500
 2301DPPC   C3A49303  25.400  23.130  29.270
 2301DPPC   C4A49304  25.140  22.840  29.050
 2301DPPC   C1B49305  25.860  23.950  29.120
 2301DPPC   C2B49306  25.530  23.610  28.950
 2301DPPC   C3B49307  25.260  23.260  28.800
 2301DPPC   C4B49308  24.780  23.100  28.720
 2302DPPC   NC349309   8.850  19.130  33.260
 2302DPPC   PO449310   8.950  19.120  33.710
 2302DPPC   GL149311   9.450  19.440  33.680
 2302DPPC   GL249312   9.620  19.580  33.910
 2302DPPC   C1A49313   9.930  19.330  33.520
 2302DPPC   C2A49314  10.330  19.090  33.260
 2302DPPC   C3A49315  10.640  19.150  32.990
 2302DPPC   C4A49316  10.830  19.460  32.770
 2302DPPC   C1B49317  10.030  19.680  33.850
 2302DPPC   C2B49318  10.420  19.870  33.950
 2302DPPC   C3B49319  10.840  19.710  33.810
 2302DPPC   C4B49320  11.320  19.750  33.780
 2303DPPC   NC349321  25.190  18.690  34.240
 2303DPPC   PO449322  25.140  19.140  34.020
 2303DPPC   GL149323  25.600  19.360  33.930
 2303DPPC   GL249324  25.660  19.770  33.920
 2303DPPC   C1A49325  25.950  19.410  33.640
 2303DPPC   C2A49326  26.400  19.630  33.500
 2303DPPC   C3A49327  26.605  20.070  33.540
 2303DPPC   C4A49328  26.935  20.320  33.780
 2303DPPC   C1B49329  25.770  19.900  33.550
 2303DPPC   C2B49330  26.070  20.020  33.390
 2303DPPC   C3B49331  26.370  20.280  33.120
 2303DPPC   C4B49332  26.775  20.400  32.740
 2304DPPC   NC349333  18.190  23.630  19.310
 2304DPPC   PO449334  17.710  23.450  19.080
 2304DPPC   GL149335  17.590  23.280  19.430
 2304DPPC   GL249336  17.520  23.340  19.620
 2304DPPC   C1A49337  17.730  22.850  19.590
 2304DPPC   C2A49338  17.870  22.450  19.780
 2304DPPC   C3A49339  17.830  22.060  19.900
 2304DPPC   C4A49340  17.730  21.970  20.190
 2304DPPC   C1B49341  17.530  23.190  19.950
 2304DPPC   C2B49342  17.400  23.120  20.370
 2304DPPC   C3B49343  17.660  23.150  20.760
 2304DPPC   C4B49344  17.680  23.290  21.210
 2305DPPC   NC349345  28.445  12.250  27.070
 2305DPPC   PO449346  28.725  12.010  27.370
 2305DPPC   GL149347  28.945  12.130  27.100
 2305DPPC   GL249348  28.885  11.910  26.820
 2305DPPC   C1A49349  29.325  12.110  26.830
 2305DPPC   C2A49350  29.555  12.090  26.440
 2305DPPC   C3A49351  29.815  12.120  26.080
 2305DPPC   C4A49352  30.315  11.960  25.950
 2305DPPC   C1B49353  29.075  11.710  26.500
 2305DPPC   C2B49354  29.505  11.670  26.630
 2305DPPC   C3B49355  29.895  11.710  26.570
 2305DPPC   C4B49356  30.225  11.890  26.460
 2306DPPC   NC349357  13.990  15.060  20.620
 2306DPPC   PO449358  13.930  15.440  20.470
 2306DPPC   GL149359  14.330  15.340  20.680
 2306DPPC   GL249360  14.520  15.420  20.600
 2306DPPC   C1A49361  14.380  15.230  21.080
 2306DPPC   C2A49362  14.490  15.410  21.460
 2306DPPC   C3A49363  14.750  15.680  21.620
 2306DPPC   C4A49364  15.160  15.830  21.490
 2306DPPC   C1B49365  14.640  15.730  21.000
 2306DPPC   C2B49366  14.880  16.110  21.070
 2306DPPC   C3B49367  15.000  16.300  21.410
 2306DPPC   C4B49368  15.340  16.420  21.560
 2307DPPC   NC349369  13.080  22.170  41.250
 2307DPPC   PO449370  13.040  22.470  40.940
 2307DPPC   GL149371  12.990  22.030  40.720
 2307DPPC   GL249372  13.000  21.770  40.960
 2307DPPC   C1A49373  13.100  21.720  40.430
 2307DPPC   C2A49374  13.280  21.520  40.150
 2307DPPC   C3A49375  13.730  21.380  40.040
 2307DPPC   C4A49376  13.810  21.100  39.660
 2307DPPC   C1B49377  13.490  21.740  40.850
 2307DPPC   C2B49378  13.790  21.460  40.890
 2307DPPC   C3B49379  13.930  21.200  40.550
 2307DPPC   C4B49380  14.240  20.770  40.460
 2308DPPC   NC349381  18.940  11.140  27.210
 2308DPPC   PO449382  18.600  11.100  27.260
 2308DPPC   GL149383  18.470  10.760  27.300
 2308DPPC   GL249384  18.100  10.740  27.270
 2308DPPC   C1A49385  18.250  10.460  26.950
 2308DPPC   C2A49386  18.010  10.140  26.720
 2308DPPC   C3A49387  17.750  10.020  26.340
 2308DPPC   C4A49388  17.530   9.820  25.990
 2308DPPC   C1B49389  17.720  10.410  27.180
 2308DPPC   C2B49390  17.510  10.250  26.890
 2308DPPC   C3B49391  17.210   9.950  26.690
 2308DPPC   C4B49392  17.390   9.620  26.450
 2309DPPC   NC349393  22.300  20.760  18.020
 2309DPPC   PO449394  22.250  20.910  18.470
 2309DPPC   GL149395  22.390  20.730  18.790
 2309DPPC   GL249396  22.220  20.520  18.820
 2309DPPC   C1A49397  22.630  20.300  19.050
 2309DPPC   C2A49398  22.780  20.090  19.490
 2309DPPC   C3A49399  22.880  20.140  19.950
 2309DPPC   C4A49400  22.990  20.070  20.390
 2309DPPC   C1B49401  21.730  20.290  18.900
 2309DPPC   C2B49402  21.660  19.880  19.220
 2309DPPC   C3B49403  21.550  19.530  19.450
 2309DPPC   C4B49404  21.620  19.190  19.750
 2310DPPC   NC349405  25.930   9.000  20.200
 2310DPPC   PO449406  25.750   9.250  19.890
 2310DPPC   GL149407  25.900   9.610  20.140
 2310DPPC   GL249408  26.140   9.440  20.190
 2310DPPC   C1A49409  25.630   9.820  20.540
 2310DPPC   C2A49410  25.400  10.130  20.750
 2310DPPC   C3A49411  25.440  10.610  20.910
 2310DPPC   C4A49412  25.720  10.700  21.240
 2310DPPC   C1B49413  26.180   9.700  20.530
 2310DPPC   C2B49414  26.180  10.010  20.850
 2310DPPC   C3B49415  26.330  10.220  21.220
 2310DPPC   C4B49416  26.190  10.490  21.500
 2311DPPC   NC349417  14.990  23.880  42.080
 2311DPPC   PO449418  15.190  24.190  41.880
 2311DPPC   GL149419  15.260  23.790  41.670
 2311DPPC   GL249420  15.440  23.620  41.820
 2311DPPC   C1A49421  15.260  23.390  41.390
 2311DPPC   C2A49422  15.290  23.070  41.070
 2311DPPC   C3A49423  15.290  22.680  40.860
 2311DPPC   C4A49424  15.220  22.530  40.390
 2311DPPC   C1B49425  15.840  23.560  41.540
 2311DPPC   C2B49426  16.200  23.450  41.280
 2311DPPC   C3B49427  16.640  23.220  41.100
 2311DPPC   C4B49428  16.930  23.050  41.360
 2312DPPC   NC349429  20.920  23.120  19.090
 2312DPPC   PO449430  20.750  23.110  19.380
 2312DPPC   GL149431  20.510  23.140  19.800
 2312DPPC   GL249432  20.800  23.250  20.030
 2312DPPC   C1A49433  20.370  22.900  20.210
 2312DPPC   C2A49434  20.150  22.610  20.520
 2312DPPC   C3A49435  19.970  22.340  20.720
 2312DPPC   C4A49436  19.700  22.170  20.910
 2312DPPC   C1B49437  21.000  22.900  20.390
 2312DPPC   C2B49438  21.150  22.550  20.680
 2312DPPC   C3B49439  21.370  22.280  20.950
 2312DPPC   C4B49440  21.650  21.890  21.150
 2313DPPC   NC349441  23.320  19.920  23.400
 2313DPPC   PO449442  23.570  19.770  23.650
 2313DPPC   GL149443  23.820  20.050  23.500
 2313DPPC   GL249444  24.070  19.800  23.570
 2313DPPC   C1A49445  23.940  20.380  23.340
 2313DPPC   C2A49446  24.210  20.680  23.180
 2313DPPC   C3A49447  24.440  21.140  23.390
 2313DPPC   C4A49448  24.780  21.450  23.250
 2313DPPC   C1B49449  24.320  20.160  23.640
 2313DPPC   C2B49450  24.570  20.360  23.360
 2313DPPC   C3B49451  24.730  20.700  23.070
 2313DPPC   C4B49452  24.660  21.000  22.850
 2314DPPC   NC349453  19.590  23.950  28.900
 2314DPPC   PO449454  19.800  24.070  28.550
 2314DPPC   GL149455  20.020  24.480  28.670
 2314DPPC   GL249456  20.040  24.810  28.460
 2314DPPC   C1A49457  20.290  24.830  28.960
 2314DPPC   C2A49458  20.400  25.070  29.290
 2314DPPC   C3A49459  20.380  25.400  29.500
 2314DPPC   C4A49460  20.380  25.900  29.510
 2314DPPC   C1B49461  20.110  25.060  28.200
 2314DPPC   C2B49462  20.190  25.590  28.190
 2314DPPC   C3B49463  20.420  25.880  28.500
 2314DPPC   C4B49464  20.250  26.070  28.860
 2315DPPC   NC349465  20.160  17.120  47.370
 2315DPPC   PO449466  20.600  17.140  47.520
 2315DPPC   GL149467  20.530  17.070  47.000
 2315DPPC   GL249468  20.230  17.100  46.830
 2315DPPC   C1A49469  20.740  16.930  46.620
 2315DPPC   C2A49470  20.620  16.850  46.190
 2315DPPC   C3A49471  20.390  16.980  45.800
 2315DPPC   C4A49472  20.200  16.910  45.440
 2315DPPC   C1B49473  20.520  17.330  46.470
 2315DPPC   C2B49474  20.720  17.590  46.150
 2315DPPC   C3B49475  20.920  17.860  45.840
 2315DPPC   C4B49476  20.880  18.250  45.510
 2316DPPC   NC349477  11.580  13.250  38.520
 2316DPPC   PO449478  11.640  12.980  38.250
 2316DPPC   GL149479  12.090  12.910  38.160
 2316DPPC   GL249480  12.130  12.990  37.810
 2316DPPC   C1A49481  12.470  13.110  38.330
 2316DPPC   C2A49482  12.790  13.280  38.500
 2316DPPC   C3A49483  13.160  13.490  38.570
 2316DPPC   C4A49484  13.340  13.770  38.240
 2316DPPC   C1B49485  12.490  12.960  37.700
 2316DPPC   C2B49486  12.930  13.120  37.540
 2316DPPC   C3B49487  13.240  13.240  37.310
 2316DPPC   C4B49488  13.660  13.160  37.220
 2317DPPC   NC349489  29.625  14.480  35.710
 2317DPPC   PO449490  29.485  14.180  35.890
 2317DPPC   GL149491  29.975  14.190  35.950
 2317DPPC   GL249492  30.155  14.390  35.780
 2317DPPC   C1A49493  30.375  14.050  36.130
 2317DPPC   C2A49494  30.715  13.920  36.360
 2317DPPC   C3A49495  30.685  13.920  36.740
 2317DPPC   C4A49496  31.115  13.770  36.920
 2317DPPC   C1B49497  30.515  14.510  36.130
 2317DPPC   C2B49498  30.915  14.350  36.310
 2317DPPC   C3B49499  31.195  14.090  36.510
 2317DPPC   C4B49500  31.695  13.860  36.480
 2318DPPC   NC349501  21.600  25.650  42.860
 2318DPPC   PO449502  21.670  25.630  42.540
 2318DPPC   GL149503  21.760  25.290  42.260
 2318DPPC   GL249504  22.070  25.070  42.250
 2318DPPC   C1A49505  21.530  25.180  41.870
 2318DPPC   C2A49506  21.610  25.040  41.470
 2318DPPC   C3A49507  21.510  24.880  41.020
 2318DPPC   C4A49508  21.340  24.620  40.810
 2318DPPC   C1B49509  21.790  24.800  41.980
 2318DPPC   C2B49510  21.330  24.710  42.010
 2318DPPC   C3B49511  21.000  24.670  41.670
 2318DPPC   C4B49512  21.190  24.580  41.290
 2319DPPC   NC349513  17.080   2.210  27.910
 2319DPPC   PO449514  17.250   1.930  28.190
 2319DPPC   GL149515  17.600   1.640  28.440
 2319DPPC   GL249516  17.640   1.750  28.730
 2319DPPC   C1A49517  17.670   1.200  28.320
 2319DPPC   C2A49518  18.060   0.950  28.380
 2319DPPC   C3A49519  18.110   0.520  28.510
 2319DPPC   C4A49520  17.970   0.050  28.480
 2319DPPC   C1B49521  17.390   1.340  28.750
 2319DPPC   C2B49522  17.240   0.830  28.960
 2319DPPC   C3B49523  17.290   0.460  29.190
 2319DPPC   C4B49524  17.480   0.070  29.220
 2320DPPC   NC349525  20.640   9.490  44.660
 2320DPPC   PO449526  20.360   9.150  44.440
 2320DPPC   GL149527  20.630   9.380  44.170
 2320DPPC   GL249528  20.790   9.300  43.910
 2320DPPC   C1A49529  20.740   9.830  44.060
 2320DPPC   C2A49530  20.600  10.050  43.640
 2320DPPC   C3A49531  20.270  10.400  43.600
 2320DPPC   C4A49532  20.080  10.650  43.250
 2320DPPC   C1B49533  20.950   9.570  43.550
 2320DPPC   C2B49534  21.280   9.770  43.300
 2320DPPC   C3B49535  21.510  10.000  43.000
 2320DPPC   C4B49536  21.900  10.250  42.820
 2321DPPC   NC349537  22.150  12.610  21.860
 2321DPPC   PO449538  22.150  12.250  22.040
 2321DPPC   GL149539  21.920  11.980  21.830
 2321DPPC   GL249540  22.110  11.690  21.890
 2321DPPC   C1A49541  21.800  11.720  21.490
 2321DPPC   C2A49542  21.730  11.550  21.150
 2321DPPC   C3A49543  21.600  11.250  20.790
 2321DPPC   C4A49544  21.600  11.170  20.330
 2321DPPC   C1B49545  22.270  11.790  21.400
 2321DPPC   C2B49546  22.290  11.750  20.900
 2321DPPC   C3B49547  22.680  11.640  20.720
 2321DPPC   C4B49548  22.930  11.530  20.400
 2322DPPC   NC349549  20.080  23.920  19.410
 2322DPPC   PO449550  19.590  23.920  19.600
 2322DPPC   GL149551  19.640  23.750  19.950
 2322DPPC   GL249552  20.000  23.760  19.980
 2322DPPC   C1A49553  19.680  23.330  20.190
 2322DPPC   C2A49554  19.830  23.040  20.420
 2322DPPC   C3A49555  20.030  22.950  20.900
 2322DPPC   C4A49556  20.320  23.200  21.090
 2322DPPC   C1B49557  20.220  23.450  20.320
 2322DPPC   C2B49558  20.420  23.160  20.630
 2322DPPC   C3B49559  20.530  22.680  20.830
 2322DPPC   C4B49560  20.900  22.490  21.140
 2323DPPC   NC349561  29.225  20.630  42.380
 2323DPPC   PO449562  29.155  20.300  42.600
 2323DPPC   GL149563  28.785  20.220  42.770
 2323DPPC   GL249564  28.735  20.280  42.400
 2323DPPC   C1A49565  28.335  20.080  42.820
 2323DPPC   C2A49566  27.975  20.130  43.030
 2323DPPC   C3A49567  27.755  19.890  43.410
 2323DPPC   C4A49568  27.475  19.520  43.490
 2323DPPC   C1B49569  28.405  20.040  42.300
 2323DPPC   C2B49570  27.995  19.810  42.490
 2323DPPC   C3B49571  27.635  19.570  42.520
 2323DPPC   C4B49572  27.205  19.670  42.560
 2324DPPC   NC349573  14.090  23.230  29.900
 2324DPPC   PO449574  14.030  22.920  29.500
 2324DPPC   GL149575  13.650  23.220  29.610
 2324DPPC   GL249576  13.450  22.960  29.550
 2324DPPC   C1A49577  13.310  23.460  29.730
 2324DPPC   C2A49578  12.910  23.450  29.590
 2324DPPC   C3A49579  12.440  23.240  29.350
 2324DPPC   C4A49580  12.030  23.130  29.240
 2324DPPC   C1B49581  13.070  22.930  29.260
 2324DPPC   C2B49582  12.780  23.120  28.940
 2324DPPC   C3B49583  12.310  23.320  28.870
 2324DPPC   C4B49584  12.060  23.550  28.710
 2325DPPC   NC349585  27.915  15.360  30.040
 2325DPPC   PO449586  28.005  15.480  29.640
 2325DPPC   GL149587  28.415  15.700  29.480
 2325DPPC   GL249588  28.195  16.000  29.330
 2325DPPC   C1A49589  28.855  15.720  29.470
 2325DPPC   C2A49590  29.215  15.980  29.300
 2325DPPC   C3A49591  29.435  16.390  29.160
 2325DPPC   C4A49592  29.905  16.420  29.090
 2325DPPC   C1B49593  28.375  16.470  29.160
 2325DPPC   C2B49594  28.555  16.860  29.300
 2325DPPC   C3B49595  28.975  17.010  29.450
 2325DPPC   C4B49596  29.355  17.350  29.290
 2326DPPC   NC349597  25.220  16.190  18.130
 2326DPPC   PO449598  24.940  16.490  18.380
 2326DPPC   GL149599  24.720  16.460  18.750
 2326DPPC   GL249600  24.770  16.820  18.800
 2326DPPC   C1A49601  24.540  16.250  19.000
 2326DPPC   C2A49602  24.390  15.990  19.430
 2326DPPC   C3A49603  24.490  15.890  19.940
 2326DPPC   C4A49604  24.480  16.070  20.400
 2326DPPC   C1B49605  24.940  16.870  19.220
 2326DPPC   C2B49606  25.060  16.970  19.580
 2326DPPC   C3B49607  25.260  16.750  20.000
 2326DPPC   C4B49608  25.300  16.740  20.480
 2327DPPC   NC349609  19.910  15.070  21.720
 2327DPPC   PO449610  19.880  14.660  21.470
 2327DPPC   GL149611  19.720  14.240  21.480
 2327DPPC   GL249612  20.040  14.050  21.470
 2327DPPC   C1A49613  19.610  13.930  21.430
 2327DPPC   C2A49614  19.560  13.630  21.140
 2327DPPC   C3A49615  19.630  13.350  20.700
 2327DPPC   C4A49616  19.480  13.390  20.260
 2327DPPC   C1B49617  20.030  13.900  21.050
 2327DPPC   C2B49618  19.900  13.820  20.640
 2327DPPC   C3B49619  19.640  13.940  20.280
 2327DPPC   C4B49620  19.690  13.870  19.790
 2328DPPC   NC349621  33.035  15.110  38.650
 2328DPPC   PO449622  32.775  15.400  38.860
 2328DPPC   GL149623  32.345  15.140  38.960
 2328DPPC   GL249624  32.315  14.910  38.910
 2328DPPC   C1A49625  31.885  15.120  39.000
 2328DPPC   C2A49626  31.505  15.120  38.650
 2328DPPC   C3A49627  31.055  14.910  38.370
 2328DPPC   C4A49628  30.675  14.690  38.360
 2328DPPC   C1B49629  32.215  14.490  38.690
 2328DPPC   C2B49630  31.985  14.250  38.390
 2328DPPC   C3B49631  31.585  14.280  38.100
 2328DPPC   C4B49632  31.485  14.470  37.710
 2329DPPC   NC349633  18.550  18.710  21.200
 2329DPPC   PO449634  18.790  18.610  21.620
 2329DPPC   GL149635  18.820  18.320  21.360
 2329DPPC   GL249636  18.840  18.020  21.310
 2329DPPC   C1A49637  18.790  18.220  20.790
 2329DPPC   C2A49638  18.680  18.290  20.390
 2329DPPC   C3A49639  18.740  18.130  19.970
 2329DPPC   C4A49640  18.490  17.950  19.560
 2329DPPC   C1B49641  18.590  17.810  20.890
 2329DPPC   C2B49642  18.600  17.780  20.560
 2329DPPC   C3B49643  18.620  17.690  20.080
 2329DPPC   C4B49644  18.610  17.490  19.750
 2330DPPC   NC349645  14.250   8.560  32.680
 2330DPPC   PO449646  14.150   8.840  33.050
 2330DPPC   GL149647  14.460   9.310  33.130
 2330DPPC   GL249648  14.550   9.130  33.290
 2330DPPC   C1A49649  14.790   9.540  33.160
 2330DPPC   C2A49650  15.140   9.500  33.040
 2330DPPC   C3A49651  15.530   9.590  33.030
 2330DPPC   C4A49652  15.880   9.330  33.130
 2330DPPC   C1B49653  14.950   9.060  33.180
 2330DPPC   C2B49654  15.410   9.080  33.150
 2330DPPC   C3B49655  15.550   9.180  32.760
 2330DPPC   C4B49656  15.810   9.440  32.590
 2331DPPC   NC349657  18.550  10.780  31.320
 2331DPPC   PO449658  18.670  10.380  31.560
 2331DPPC   GL149659  18.420  10.170  31.950
 2331DPPC   GL249660  18.670   9.990  32.150
 2331DPPC   C1A49661  17.970  10.000  31.910
 2331DPPC   C2A49662  17.750   9.590  31.880
 2331DPPC   C3A49663  17.510   9.250  31.970
 2331DPPC   C4A49664  17.570   8.880  31.850
 2331DPPC   C1B49665  18.320   9.700  32.200
 2331DPPC   C2B49666  18.360   9.340  32.130
 2331DPPC   C3B49667  18.050   9.150  31.910
 2331DPPC   C4B49668  17.940   8.770  31.550
 2332DPPC   NC349669  18.610  24.560  31.160
 2332DPPC   PO449670  18.340  24.550  31.490
 2332DPPC   GL149671  18.050  24.890  31.510
 2332DPPC   GL249672  17.720  24.960  31.410
 2332DPPC   C1A49673  18.020  25.390  31.510
 2332DPPC   C2A49674  18.150  25.800  31.270
 2332DPPC   C3A49675  18.070  26.190  31.360
 2332DPPC   C4A49676  17.860   0.100  31.530
 2332DPPC   C1B49677  17.520  25.410  31.420
 2332DPPC   C2B49678  17.710  25.820  31.520
 2332DPPC   C3B49679  17.490  26.210  31.650
 2332DPPC   C4B49680  17.310   0.310  31.740
 2333DPPC   NC349681  11.770   0.770  30.220
 2333DPPC   PO449682  11.870   0.370  30.600
 2333DPPC   GL149683  12.210   0.110  30.500
 2333DPPC   GL249684  12.090  26.240  30.470
 2333DPPC   C1A49685  12.630  26.240  30.460
 2333DPPC   C2A49686  12.920  25.770  30.720
 2333DPPC   C3A49687  13.200  25.370  30.840
 2333DPPC   C4A49688  13.670  25.400  31.040
 2333DPPC   C1B49689  12.260  25.840  30.330
 2333DPPC   C2B49690  12.460  25.440  30.420
 2333DPPC   C3B49691  12.870  25.300  30.380
 2333DPPC   C4B49692  13.330  25.250  30.330
 2334DPPC   NC349693  20.020  21.500  23.560
 2334DPPC   PO449694  19.670  21.720  23.550
 2334DPPC   GL149695  19.410  21.940  23.180
 2334DPPC   GL249696  19.270  22.290  23.220
 2334DPPC   C1A49697  19.450  22.300  22.810
 2334DPPC   C2A49698  19.310  22.680  22.490
 2334DPPC   C3A49699  19.420  23.120  22.260
 2334DPPC   C4A49700  19.530  23.280  21.880
 2334DPPC   C1B49701  19.400  22.780  23.160
 2334DPPC   C2B49702  19.580  23.050  22.780
 2334DPPC   C3B49703  19.450  23.500  22.720
 2334DPPC   C4B49704  19.450  23.970  22.750
 2335DPPC   NC349705  10.910  13.130  31.360
 2335DPPC   PO449706  10.740  13.550  31.550
 2335DPPC   GL149707  11.040  13.900  31.500
 2335DPPC   GL249708  11.220  14.030  31.220
 2335DPPC   C1A49709  11.530  13.910  31.540
 2335DPPC   C2A49710  11.930  14.080  31.640
 2335DPPC   C3A49711  12.440  14.130  31.800
 2335DPPC   C4A49712  12.760  14.490  31.770
 2335DPPC   C1B49713  11.670  14.080  31.090
 2335DPPC   C2B49714  11.900  14.260  30.770
 2335DPPC   C3B49715  12.110  14.680  30.840
 2335DPPC   C4B49716  12.510  14.800  30.970
 2336DPPC   NC349717  26.975   7.190  42.400
 2336DPPC   PO449718  26.645   7.120  42.120
 2336DPPC   GL149719  26.565   7.320  41.770
 2336DPPC   GL249720  26.725   7.600  41.930
 2336DPPC   C1A49721  26.210   7.480  41.510
 2336DPPC   C2A49722  26.070   7.900  41.250
 2336DPPC   C3A49723  25.800   7.930  40.870
 2336DPPC   C4A49724  25.950   8.170  40.460
 2336DPPC   C1B49725  26.785   7.940  41.520
 2336DPPC   C2B49726  26.795   8.140  41.100
 2336DPPC   C3B49727  26.755   8.090  40.650
 2336DPPC   C4B49728  26.525   7.930  40.250
 2337DPPC   NC349729  26.965  16.680  30.520
 2337DPPC   PO449730  26.905  16.780  30.130
 2337DPPC   GL149731  27.205  17.100  30.140
 2337DPPC   GL249732  27.455  16.990  30.150
 2337DPPC   C1A49733  27.215  17.490  30.010
 2337DPPC   C2A49734  27.035  17.830  29.790
 2337DPPC   C3A49735  27.065  18.260  29.870
 2337DPPC   C4A49736  27.175  18.610  30.140
 2337DPPC   C1B49737  27.645  17.430  30.280
 2337DPPC   C2B49738  27.825  17.810  30.450
 2337DPPC   C3B49739  27.865  18.250  30.460
 2337DPPC   C4B49740  27.615  18.690  30.360
 2338DPPC   NC349741  33.205   9.600  30.630
 2338DPPC   PO449742  32.945   9.460  30.340
 2338DPPC   GL149743  32.595   9.390  30.580
 2338DPPC   GL249744  32.535   9.270  30.300
 2338DPPC   C1A49745  32.465   9.400  30.930
 2338DPPC   C2A49746  32.245   9.490  31.210
 2338DPPC   C3A49747  31.895   9.480  31.510
 2338DPPC   C4A49748  31.565   9.260  31.530
 2338DPPC   C1B49749  32.165   9.610  30.200
 2338DPPC   C2B49750  31.855   9.870  30.430
 2338DPPC   C3B49751  31.685  10.060  30.700
 2338DPPC   C4B49752  31.405  10.080  31.000
 2339DPPC   NC349753  13.990   9.010  29.150
 2339DPPC   PO449754  14.260   8.780  29.360
 2339DPPC   GL149755  14.710   8.950  29.380
 2339DPPC   GL249756  14.640   9.320  29.540
 2339DPPC   C1A49757  15.020   9.180  29.260
 2339DPPC   C2A49758  15.240   9.270  29.600
 2339DPPC   C3A49759  15.680   9.490  29.500
 2339DPPC   C4A49760  16.050   9.780  29.500
 2339DPPC   C1B49761  14.950   9.620  29.560
 2339DPPC   C2B49762  15.350   9.840  29.610
 2339DPPC   C3B49763  15.660  10.160  29.680
 2339DPPC   C4B49764  15.800  10.510  29.360
 2340DPPC   NC349765   9.190  19.740  29.270
 2340DPPC   PO449766   9.320  19.770  28.730
 2340DPPC   GL149767   9.740  19.740  28.580
 2340DPPC   GL249768   9.850  19.550  28.810
 2340DPPC   C1A49769  10.130  19.780  28.230
 2340DPPC   C2A49770  10.430  19.620  27.980
 2340DPPC   C3A49771  10.760  19.400  27.860
 2340DPPC   C4A49772  11.060  19.170  28.090
 2340DPPC   C1B49773  10.180  19.470  29.040
 2340DPPC   C2B49774  10.470  19.160  28.980
 2340DPPC   C3B49775  10.780  18.800  28.980
 2340DPPC   C4B49776  10.940  18.630  29.390
 2341DPPC   NC349777  24.770  16.960  47.320
 2341DPPC   PO449778  24.980  16.740  47.080
 2341DPPC   GL149779  25.000  16.420  46.750
 2341DPPC   GL249780  25.180  16.040  46.710
 2341DPPC   C1A49781  24.810  16.170  46.370
 2341DPPC   C2A49782  24.370  16.100  46.410
 2341DPPC   C3A49783  23.990  16.330  46.410
 2341DPPC   C4A49784  23.580  16.590  46.410
 2341DPPC   C1B49785  25.070  15.630  46.590
 2341DPPC   C2B49786  25.050  15.420  46.140
 2341DPPC   C3B49787  24.860  15.530  45.750
 2341DPPC   C4B49788  24.620  15.300  45.440
 2342DPPC   NC349789   9.710  16.570  32.470
 2342DPPC   PO449790  10.010  16.480  32.800
 2342DPPC   GL149791  10.270  16.870  32.960
 2342DPPC   GL249792  10.090  17.000  33.380
 2342DPPC   C1A49793  10.610  16.950  33.050
 2342DPPC   C2A49794  10.980  17.070  33.190
 2342DPPC   C3A49795  11.380  17.000  33.270
 2342DPPC   C4A49796  11.420  16.820  33.740
 2342DPPC   C1B49797  10.430  17.140  33.500
 2342DPPC   C2B49798  10.790  17.140  33.610
 2342DPPC   C3B49799  11.160  17.410  33.580
 2342DPPC   C4B49800  11.580  17.670  33.590
 2343DPPC   NC349801  14.500  16.010  31.030
 2343DPPC   PO449802  14.250  15.780  31.250
 2343DPPC   GL149803  13.800  15.680  31.180
 2343DPPC   GL249804  13.480  15.650  31.180
 2343DPPC   C1A49805  13.730  15.240  31.120
 2343DPPC   C2A49806  13.690  14.870  30.970
 2343DPPC   C3A49807  13.390  14.550  30.740
 2343DPPC   C4A49808  13.000  14.250  30.560
 2343DPPC   C1B49809  13.240  15.240  31.010
 2343DPPC   C2B49810  13.050  14.920  30.770
 2343DPPC   C3B49811  12.810  14.770  30.530
 2343DPPC   C4B49812  12.690  14.590  30.150
 2344DPPC   NC349813  28.995   8.150  22.080
 2344DPPC   PO449814  28.675   8.330  22.300
 2344DPPC   GL149815  28.515   8.550  22.620
 2344DPPC   GL249816  28.265   8.560  22.450
 2344DPPC   C1A49817  28.465   8.840  22.920
 2344DPPC   C2A49818  28.305   9.090  23.190
 2344DPPC   C3A49819  28.205   9.490  23.240
 2344DPPC   C4A49820  27.995   9.930  23.310
 2344DPPC   C1B49821  28.015   8.590  22.770
 2344DPPC   C2B49822  27.815   8.560  23.080
 2344DPPC   C3B49823  27.695   8.590  23.510
 2344DPPC   C4B49824  27.755   8.520  23.880
 2345DPPC   NC349825  29.195  12.070  28.320
 2345DPPC   PO449826  29.135  12.470  28.140
 2345DPPC   GL149827  29.465  12.360  27.890
 2345DPPC   GL249828  29.665  12.340  28.240
 2345DPPC   C1A49829  29.945  12.350  27.830
 2345DPPC   C2A49830  30.395  12.300  27.600
 2345DPPC   C3A49831  30.615  12.440  27.290
 2345DPPC   C4A49832  30.725  12.560  26.900
 2345DPPC   C1B49833  29.965  12.630  28.270
 2345DPPC   C2B49834  30.335  12.740  28.100
 2345DPPC   C3B49835  30.655  12.660  27.840
 2345DPPC   C4B49836  31.035  12.590  27.550
 2346DPPC   NC349837  13.840  13.440  42.370
 2346DPPC   PO449838  13.890  13.460  41.990
 2346DPPC   GL149839  14.250  13.390  41.800
 2346DPPC   GL249840  14.140  13.100  41.770
 2346DPPC   C1A49841  14.600  13.340  41.430
 2346DPPC   C2A49842  14.710  13.400  40.940
 2346DPPC   C3A49843  14.670  13.720  40.530
 2346DPPC   C4A49844  14.810  14.100  40.260
 2346DPPC   C1B49845  14.490  12.840  41.580
 2346DPPC   C2B49846  14.790  12.950  41.180
 2346DPPC   C3B49847  15.190  13.060  41.010
 2346DPPC   C4B49848  15.330  13.430  40.820
 2347DPPC   NC349849  17.250  20.850  23.190
 2347DPPC   PO449850  17.120  21.300  22.940
 2347DPPC   GL149851  17.080  21.720  22.870
 2347DPPC   GL249852  16.800  21.920  22.890
 2347DPPC   C1A49853  16.890  21.830  22.430
 2347DPPC   C2A49854  16.700  21.910  22.030
 2347DPPC   C3A49855  16.380  22.110  21.700
 2347DPPC   C4A49856  16.010  21.980  21.700
 2347DPPC   C1B49857  16.410  21.740  22.610
 2347DPPC   C2B49858  16.040  21.730  22.640
 2347DPPC   C3B49859  15.760  21.750  22.390
 2347DPPC   C4B49860  15.600  21.980  22.080
 2348DPPC   NC349861  15.200  14.470  43.920
 2348DPPC   PO449862  15.260  14.240  43.620
 2348DPPC   GL149863  15.240  14.090  43.200
 2348DPPC   GL249864  15.220  14.390  43.090
 2348DPPC   C1A49865  15.380  13.980  42.850
 2348DPPC   C2A49866  15.390  13.710  42.520
 2348DPPC   C3A49867  15.560  13.850  42.190
 2348DPPC   C4A49868  15.640  14.240  42.010
 2348DPPC   C1B49869  15.360  14.750  42.830
 2348DPPC   C2B49870  15.410  14.980  42.410
 2348DPPC   C3B49871  15.120  15.150  42.150
 2348DPPC   C4B49872  14.940  15.130  41.790
 2349DPPC   NC349873  26.220  24.100  27.570
 2349DPPC   PO449874  26.160  23.830  27.210
 2349DPPC   GL149875  25.830  23.760  27.370
 2349DPPC   GL249876  25.710  23.880  27.710
 2349DPPC   C1A49877  25.410  23.540  27.380
 2349DPPC   C2A49878  25.170  23.300  27.130
 2349DPPC   C3A49879  25.000  22.730  27.060
 2349DPPC   C4A49880  24.740  22.430  27.170
 2349DPPC   C1B49881  25.340  23.680  27.880
 2349DPPC   C2B49882  24.880  23.470  28.030
 2349DPPC   C3B49883  24.580  23.660  27.860
 2349DPPC   C4B49884  24.380  23.920  27.800
 2350DPPC   NC349885  14.430  23.080  28.590
 2350DPPC   PO449886  14.410  23.230  29.020
 2350DPPC   GL149887  14.130  23.430  28.910
 2350DPPC   GL249888  13.960  23.200  28.660
 2350DPPC   C1A49889  13.850  23.890  28.870
 2350DPPC   C2A49890  13.410  23.960  28.750
 2350DPPC   C3A49891  13.300  24.420  28.800
 2350DPPC   C4A49892  12.890  24.560  28.810
 2350DPPC   C1B49893  13.620  23.450  28.690
 2350DPPC   C2B49894  13.310  23.570  28.400
 2350DPPC   C3B49895  12.960  23.640  28.140
 2350DPPC   C4B49896  13.050  23.670  27.650
 2351DPPC   NC349897  11.330  25.670  28.140
 2351DPPC   PO449898  11.620  25.950  27.910
 2351DPPC   GL149899  11.860  25.550  28.050
 2351DPPC   GL249900  12.190  25.590  28.190
 2351DPPC   C1A49901  12.000  25.180  27.980
 2351DPPC   C2A49902  12.140  24.860  28.130
 2351DPPC   C3A49903  12.480  24.650  28.050
 2351DPPC   C4A49904  12.370  24.200  28.070
 2351DPPC   C1B49905  12.460  25.250  28.090
 2351DPPC   C2B49906  12.800  25.000  27.930
 2351DPPC   C3B49907  12.970  24.610  28.100
 2351DPPC   C4B49908  12.900  24.190  27.960
 2352DPPC   NC349909  17.060  16.490  40.610
 2352DPPC   PO449910  16.920  16.610  40.200
 2352DPPC   GL149911  16.600  16.600  40.460
 2352DPPC   GL249912  16.310  16.740  40.550
 2352DPPC   C1A49913  16.310  16.210  40.610
 2352DPPC   C2A49914  16.440  15.980  40.980
 2352DPPC   C3A49915  16.610  15.850  41.450
 2352DPPC   C4A49916  16.790  15.450  41.600
 2352DPPC   C1B49917  15.990  16.750  40.830
 2352DPPC   C2B49918  15.470  16.710  40.930
 2352DPPC   C3B49919  15.350  16.450  41.260
 2352DPPC   C4B49920  15.090  16.310  41.670
 2353DPPC   NC349921  26.685  16.530  24.970
 2353DPPC   PO449922  26.725  16.640  24.570
 2353DPPC   GL149923  27.115  16.600  24.190
 2353DPPC   GL249924  26.995  16.650  23.830
 2353DPPC   C1A49925  27.495  16.590  23.950
 2353DPPC   C2A49926  27.595  16.860  23.650
 2353DPPC   C3A49927  27.795  16.920  23.250
 2353DPPC   C4A49928  28.095  17.230  23.160
 2353DPPC   C1B49929  27.125  16.880  23.460
 2353DPPC   C2B49930  27.275  16.920  23.090
 2353DPPC   C3B49931  27.135  17.070  22.650
 2353DPPC   C4B49932  26.745  17.330  22.510
 2354DPPC   NC349933  21.370  10.600  18.490
 2354DPPC   PO449934  21.250  10.990  18.350
 2354DPPC   GL149935  21.240  11.130  18.700
 2354DPPC   GL249936  21.130  11.430  18.720
 2354DPPC   C1A49937  21.470  11.300  19.100
 2354DPPC   C2A49938  21.780  11.390  19.310
 2354DPPC   C3A49939  22.170  11.570  19.690
 2354DPPC   C4A49940  22.600  11.840  19.860
 2354DPPC   C1B49941  21.230  11.730  19.050
 2354DPPC   C2B49942  21.210  12.150  19.310
 2354DPPC   C3B49943  21.050  12.310  19.670
 2354DPPC   C4B49944  21.090  12.680  19.930
 2355DPPC   NC349945  23.380   0.080  26.860
 2355DPPC   PO449946  23.700  26.260  26.700
 2355DPPC   GL149947  23.490  25.980  26.800
 2355DPPC   GL249948  23.180  26.080  26.800
 2355DPPC   C1A49949  23.380  25.800  27.230
 2355DPPC   C2A49950  23.280  25.340  27.290
 2355DPPC   C3A49951  23.120  25.090  27.550
 2355DPPC   C4A49952  23.000  25.230  28.000
 2355DPPC   C1B49953  22.940  25.940  27.150
 2355DPPC   C2B49954  22.750  25.570  27.250
 2355DPPC   C3B49955  22.750  25.070  27.160
 2355DPPC   C4B49956  22.950  24.790  27.180
 2356DPPC   NC349957  33.455  15.760  32.710
 2356DPPC   PO449958  33.115  16.200  32.690
 2356DPPC   GL149959  32.845  16.280  32.890
 2356DPPC   GL249960  32.505  16.270  32.750
 2356DPPC   C1A49961  32.565  15.890  33.100
 2356DPPC   C2A49962  32.545  15.420  33.220
 2356DPPC   C3A49963  32.635  15.060  33.540
 2356DPPC   C4A49964  32.795  15.140  33.920
 2356DPPC   C1B49965  32.155  15.890  32.840
 2356DPPC   C2B49966  32.035  15.680  32.500
 2356DPPC   C3B49967  31.625  15.500  32.450
 2356DPPC   C4B49968  31.375  15.510  32.800
 2357DPPC   NC349969  31.525  19.610  37.430
 2357DPPC   PO449970  31.235  19.920  37.470
 2357DPPC   GL149971  30.785  19.720  37.500
 2357DPPC   GL249972  30.615  19.940  37.450
 2357DPPC   C1A49973  30.575  19.340  37.310
 2357DPPC   C2A49974  30.305  19.160  36.980
 2357DPPC   C3A49975  30.195  19.230  36.530
 2357DPPC   C4A49976  29.755  19.210  36.540
 2357DPPC   C1B49977  30.335  19.700  37.010
 2357DPPC   C2B49978  29.925  19.510  36.940
 2357DPPC   C3B49979  29.795  19.080  37.030
 2357DPPC   C4B49980  29.595  18.790  37.310
 2358DPPC   NC349981  28.065  16.450  33.780
 2358DPPC   PO449982  28.075  16.960  33.670
 2358DPPC   GL149983  28.565  17.110  33.650
 2358DPPC   GL249984  28.635  17.330  33.470
 2358DPPC   C1A49985  28.995  16.830  33.600
 2358DPPC   C2A49986  29.265  16.790  33.200
 2358DPPC   C3A49987  29.705  16.860  33.030
 2358DPPC   C4A49988  30.055  16.890  32.640
 2358DPPC   C1B49989  28.995  17.260  33.270
 2358DPPC   C2B49990  29.345  17.220  32.960
 2358DPPC   C3B49991  29.615  17.250  32.660
 2358DPPC   C4B49992  29.805  17.340  32.310
 2359DPPC   NC349993  17.800  15.920  22.630
 2359DPPC   PO449994  17.840  15.820  23.020
 2359DPPC   GL149995  17.640  15.410  22.740
 2359DPPC   GL249996  17.640  15.460  22.520
 2359DPPC   C1A49997  17.100  15.210  22.700
 2359DPPC   C2A49998  17.030  14.880  22.380
 2359DPPC   C3A49999  16.630  14.630  22.370
 2359DPPC   C4A50000  16.270  14.460  22.760
 2359DPPC   C1B50001  17.280  15.350  22.220
 2359DPPC   C2B50002  17.070  15.070  21.910
 2359DPPC   C3B50003  16.720  14.830  21.760
 2359DPPC   C4B50004  16.210  14.770  21.930
 2360DPPC   NC350005  32.815  10.510  27.590
 2360DPPC   PO450006  32.635  10.170  27.500
 2360DPPC   GL150007  32.355   9.950  27.760
 2360DPPC   GL250008  32.275  10.000  28.090
 2360DPPC   C1A50009  31.875   9.850  27.750
 2360DPPC   C2A50010  31.455   9.680  27.490
 2360DPPC   C3A50011  31.115   9.540  27.890
 2360DPPC   C4A50012  30.755   9.400  27.920
 2360DPPC   C1B50013  31.845   9.910  28.280
 2360DPPC   C2B50014  31.525   9.810  28.510
 2360DPPC   C3B50015  31.385   9.590  28.880
 2360DPPC   C4B50016  31.725   9.610  29.300
 2361DPPC   NC350017  18.920  10.410  32.090
 2361DPPC   PO450018  19.160  10.140  32.470
 2361DPPC   GL150019  19.080   9.770  32.710
 2361DPPC   GL250020  19.100   9.650  33.020
 2361DPPC   C1A50021  18.790   9.470  32.470
 2361DPPC   C2A50022  18.650   9.040  32.500
 2361DPPC   C3A50023  18.650   8.610  32.330
 2361DPPC   C4A50024  18.680   8.150  32.420
 2361DPPC   C1B50025  18.870   9.400  33.120
 2361DPPC   C2B50026  18.780   9.060  33.060
 2361DPPC   C3B50027  18.530   8.880  33.430
 2361DPPC   C4B50028  18.410   8.640  33.650
 2362DPPC   NC350029  23.640  20.930  27.020
 2362DPPC   PO450030  23.640  20.420  27.120
 2362DPPC   GL150031  24.000  20.630  27.270
 2362DPPC   GL250032  24.140  20.630  27.000
 2362DPPC   C1A50033  24.470  20.730  27.390
 2362DPPC   C2A50034  24.770  20.850  27.170
 2362DPPC   C3A50035  25.000  21.030  26.920
 2362DPPC   C4A50036  25.330  21.050  26.740
 2362DPPC   C1B50037  24.290  21.010  26.970
 2362DPPC   C2B50038  24.380  21.390  26.940
 2362DPPC   C3B50039  24.600  21.690  26.670
 2362DPPC   C4B50040  25.030  21.840  26.400
 2363DPPC   NC350041  26.865  18.550  34.880
 2363DPPC   PO450042  26.675  18.810  35.120
 2363DPPC   GL150043  26.955  19.120  34.930
 2363DPPC   GL250044  27.095  19.140  35.330
 2363DPPC   C1A50045  27.305  19.470  34.890
 2363DPPC   C2A50046  27.625  19.810  34.800
 2363DPPC   C3A50047  27.915  20.160  34.710
 2363DPPC   C4A50048  28.135  20.240  34.250
 2363DPPC   C1B50049  27.535  19.310  35.360
 2363DPPC   C2B50050  27.805  19.660  35.290
 2363DPPC   C3B50051  28.075  19.940  35.140
 2363DPPC   C4B50052  28.495  19.800  34.960
 2364DPPC   NC350053  19.560  24.110  33.010
 2364DPPC   PO450054  19.800  24.460  33.120
 2364DPPC   GL150055  19.660  24.900  33.150
 2364DPPC   GL250056  19.370  25.020  33.180
 2364DPPC   C1A50057  19.760  25.250  33.350
 2364DPPC   C2A50058  19.770  25.610  33.590
 2364DPPC   C3A50059  19.870  25.920  33.820
 2364DPPC   C4A50060  20.040  26.260  33.790
 2364DPPC   C1B50061  19.320  25.340  33.130
 2364DPPC   C2B50062  19.440  25.660  33.200
 2364DPPC   C3B50063  19.570  26.070  33.230
 2364DPPC   C4B50064  19.850  26.440  33.380
 2365DPPC   NC350065  27.275  24.650  38.020
 2365DPPC   PO450066  26.765  24.730  37.960
 2365DPPC   GL150067  26.615  24.350  38.030
 2365DPPC   GL250068  26.905  24.130  38.120
 2365DPPC   C1A50069  26.505  23.880  38.200
 2365DPPC   C2A50070  26.635  23.440  38.010
 2365DPPC   C3A50071  26.665  23.100  37.920
 2365DPPC   C4A50072  26.665  22.590  37.860
 2365DPPC   C1B50073  26.765  23.980  37.740
 2365DPPC   C2B50074  26.465  24.140  37.560
 2365DPPC   C3B50075  26.140  23.940  37.340
 2365DPPC   C4B50076  25.750  23.740  37.220
 2366DPPC   NC350077  26.525  17.730  26.750
 2366DPPC   PO450078  26.110  18.020  26.700
 2366DPPC   GL150079  26.455  18.240  26.800
 2366DPPC   GL250080  26.420  18.550  26.830
 2366DPPC   C1A50081  26.925  18.370  26.670
 2366DPPC   C2A50082  27.145  18.450  26.360
 2366DPPC   C3A50083  27.415  18.810  26.380
 2366DPPC   C4A50084  27.745  19.070  26.160
 2366DPPC   C1B50085  26.705  18.800  26.570
 2366DPPC   C2B50086  26.945  19.140  26.450
 2366DPPC   C3B50087  27.305  19.310  26.360
 2366DPPC   C4B50088  27.705  19.490  26.590
 2367DPPC   NC350089  11.570  12.840  32.140
 2367DPPC   PO450090  11.680  12.440  31.960
 2367DPPC   GL150091  12.010  12.790  31.930
 2367DPPC   GL250092  12.190  12.620  31.580
 2367DPPC   C1A50093  12.420  13.000  32.110
 2367DPPC   C2A50094  12.800  13.120  32.030
 2367DPPC   C3A50095  13.020  13.380  32.250
 2367DPPC   C4A50096  13.420  13.610  32.210
 2367DPPC   C1B50097  12.540  12.830  31.580
 2367DPPC   C2B50098  12.930  12.780  31.490
 2367DPPC   C3B50099  13.270  13.100  31.230
 2367DPPC   C4B50100  13.610  13.380  31.400
 2368DPPC   NC350101  23.510   1.120  35.500
 2368DPPC   PO450102  23.730   1.220  35.150
 2368DPPC   GL150103  23.590   0.750  35.070
 2368DPPC   GL250104  23.630   0.270  34.980
 2368DPPC   C1A50105  23.200   0.400  35.070
 2368DPPC   C2A50106  23.160  26.420  35.100
 2368DPPC   C3A50107  22.800  26.200  34.960
 2368DPPC   C4A50108  22.620  26.110  34.560
 2368DPPC   C1B50109  23.620  26.300  34.880
 2368DPPC   C2B50110  23.260  26.040  34.790
 2368DPPC   C3B50111  23.050  25.660  34.630
 2368DPPC   C4B50112  22.680  25.490  34.470
 2369DPPC   NC350113  28.315  11.130  27.490
 2369DPPC   PO450114  28.825  11.250  27.730
 2369DPPC   GL150115  29.045  11.100  27.480
 2369DPPC   GL250116  29.205  10.770  27.670
 2369DPPC   C1A50117  29.065  10.770  27.170
 2369DPPC   C2A50118  29.115  10.660  26.760
 2369DPPC   C3A50119  29.475  10.650  26.700
 2369DPPC   C4A50120  29.815  10.410  26.580
 2369DPPC   C1B50121  29.575  10.690  27.320
 2369DPPC   C2B50122  29.745  10.330  27.120
 2369DPPC   C3B50123  30.035  10.020  26.840
 2369DPPC   C4B50124  30.215   9.610  26.690
 2370DPPC   NC350125  21.560  22.230  26.180
 2370DPPC   PO450126  21.440  22.390  25.750
 2370DPPC   GL150127  21.630  22.650  25.550
 2370DPPC   GL250128  21.710  22.430  25.260
 2370DPPC   C1A50129  21.420  22.990  25.380
 2370DPPC   C2A50130  21.380  23.410  25.320
 2370DPPC   C3A50131  21.500  23.820  25.120
 2370DPPC   C4A50132  21.400  24.180  24.860
 2370DPPC   C1B50133  21.840  22.820  25.020
 2370DPPC   C2B50134  21.740  23.330  25.020
 2370DPPC   C3B50135  22.020  23.650  25.100
 2370DPPC   C4B50136  22.210  24.050  25.110
 2371DPPC   NC350137  13.850  24.390  21.520
 2371DPPC   PO450138  13.450  24.430  21.750
 2371DPPC   GL150139  13.590  24.030  21.880
 2371DPPC   GL250140  13.720  23.850  21.550
 2371DPPC   C1A50141  13.480  23.710  21.990
 2371DPPC   C2A50142  13.340  23.210  21.980
 2371DPPC   C3A50143  13.050  22.990  22.170
 2371DPPC   C4A50144  12.860  22.670  22.370
 2371DPPC   C1B50145  13.990  23.780  22.010
 2371DPPC   C2B50146  14.380  23.580  22.310
 2371DPPC   C3B50147  14.730  23.530  22.460
 2371DPPC   C4B50148  15.050  23.370  22.680
 2372DPPC   NC350149  33.615  13.760  29.900
 2372DPPC   PO450150  33.745  13.350  29.770
 2372DPPC   GL150151  33.555  13.390  30.190
 2372DPPC   GL250152  33.525  13.120  30.430
 2372DPPC   C1A50153  33.135  13.350  30.250
 2372DPPC   C2A50154  32.775  13.070  30.140
 2372DPPC   C3A50155  32.635  12.680  30.240
 2372DPPC   C4A50156  32.735  12.330  30.210
 2372DPPC   C1B50157  33.145  12.920  30.750
 2372DPPC   C2B50158  32.645  13.030  30.890
 2372DPPC   C3B50159  32.615  13.040  31.310
 2372DPPC   C4B50160  32.575  12.900  31.640
 2373DPPC   NC350161  14.700   8.740  27.940
 2373DPPC   PO450162  14.450   8.520  28.330
 2373DPPC   GL150163  14.680   8.900  28.450
 2373DPPC   GL250164  14.920   8.720  28.470
 2373DPPC   C1A50165  14.970   9.190  28.700
 2373DPPC   C2A50166  15.370   9.250  28.760
 2373DPPC   C3A50167  15.710   9.450  28.970
 2373DPPC   C4A50168  15.960   9.820  28.920
 2373DPPC   C1B50169  15.340   8.930  28.280
 2373DPPC   C2B50170  15.730   9.130  28.310
 2373DPPC   C3B50171  16.030   9.500  28.420
 2373DPPC   C4B50172  16.380   9.810  28.440
 2374DPPC   NC350173  18.760  25.020  34.480
 2374DPPC   PO450174  19.190  24.870  34.620
 2374DPPC   GL150175  19.420  25.070  34.940
 2374DPPC   GL250176  19.140  25.350  34.840
 2374DPPC   C1A50177  19.510  25.440  35.110
 2374DPPC   C2A50178  19.780  25.820  35.200
 2374DPPC   C3A50179  19.990  26.200  35.140
 2374DPPC   C4A50180  20.350  26.440  35.190
 2374DPPC   C1B50181  19.070  25.730  34.930
 2374DPPC   C2B50182  19.320  25.930  35.100
 2374DPPC   C3B50183  19.200  26.350  35.000
 2374DPPC   C4B50184  19.200   0.180  35.360
 2375DPPC   NC350185  15.480  23.390  31.320
 2375DPPC   PO450186  15.180  23.450  31.610
 2375DPPC   GL150187  14.980  23.850  31.600
 2375DPPC   GL250188  14.720  23.710  31.730
 2375DPPC   C1A50189  14.800  24.270  31.740
 2375DPPC   C2A50190  14.610  24.480  32.030
 2375DPPC   C3A50191  14.390  24.730  32.270
 2375DPPC   C4A50192  14.060  24.850  32.580
 2375DPPC   C1B50193  14.380  23.990  31.810
 2375DPPC   C2B50194  14.150  24.310  31.950
 2375DPPC   C3B50195  13.930  24.540  32.260
 2375DPPC   C4B50196  13.550  24.940  32.350
 2376DPPC   NC350197  15.540  19.400  22.790
 2376DPPC   PO450198  15.840  19.670  22.630
 2376DPPC   GL150199  15.430  19.700  22.420
 2376DPPC   GL250200  15.240  19.360  22.430
 2376DPPC   C1A50201  15.010  19.830  22.280
 2376DPPC   C2A50202  14.610  20.050  22.330
 2376DPPC   C3A50203  14.450  20.600  22.240
 2376DPPC   C4A50204  14.720  20.870  22.000
 2376DPPC   C1B50205  14.960  19.160  22.170
 2376DPPC   C2B50206  14.630  19.060  22.180
 2376DPPC   C3B50207  14.260  19.110  22.440
 2376DPPC   C4B50208  13.920  19.100  22.550
 2377DPPC   NC350209  21.680  26.320  24.640
 2377DPPC   PO450210  21.400  26.280  24.430
 2377DPPC   GL150211  21.250  26.020  24.680
 2377DPPC   GL250212  21.560  25.840  24.610
 2377DPPC   C1A50213  21.130  25.680  24.760
 2377DPPC   C2A50214  21.250  25.250  24.860
 2377DPPC   C3A50215  21.190  25.010  25.140
 2377DPPC   C4A50216  21.220  24.630  25.510
 2377DPPC   C1B50217  21.450  25.400  24.440
 2377DPPC   C2B50218  21.710  25.070  24.660
 2377DPPC   C3B50219  22.070  24.750  24.730
 2377DPPC   C4B50220  22.430  24.470  24.760
 2378DPPC   NC350221  25.620  17.330  47.000
 2378DPPC   PO450222  25.640  17.730  46.730
 2378DPPC   GL150223  25.400  17.570  46.570
 2378DPPC   GL250224  25.480  17.280  46.490
 2378DPPC   C1A50225  25.080  17.650  46.390
 2378DPPC   C2A50226  24.870  17.820  46.080
 2378DPPC   C3A50227  24.630  17.930  45.750
 2378DPPC   C4A50228  24.460  18.110  45.310
 2378DPPC   C1B50229  25.550  17.040  46.220
 2378DPPC   C2B50230  25.560  16.860  45.810
 2378DPPC   C3B50231  25.750  16.920  45.490
 2378DPPC   C4B50232  25.970  16.780  45.130
 2379DPPC   NC350233  16.400   0.990  24.790
 2379DPPC   PO450234  16.230   1.120  25.210
 2379DPPC   GL150235  16.360   0.750  25.460
 2379DPPC   GL250236  16.160   0.660  25.800
 2379DPPC   C1A50237  16.700   0.570  25.590
 2379DPPC   C2A50238  16.660   0.200  25.810
 2379DPPC   C3A50239  16.750   0.100  26.250
 2379DPPC   C4A50240  17.010  26.190  26.370
 2379DPPC   C1B50241  16.160   0.230  25.780
 2379DPPC   C2B50242  16.440  26.260  25.850
 2379DPPC   C3B50243  16.600  25.880  26.130
 2379DPPC   C4B50244  16.680  25.490  26.290
 2380DPPC   NC350245  25.460  17.550  32.130
 2380DPPC   PO450246  25.450  18.000  32.050
 2380DPPC   GL150247  25.540  18.430  32.010
 2380DPPC   GL250248  25.820  18.550  31.790
 2380DPPC   C1A50249  25.500  18.900  31.920
 2380DPPC   C2A50250  25.310  19.270  31.600
 2380DPPC   C3A50251  25.220  19.560  31.280
 2380DPPC   C4A50252  25.460  19.920  31.120
 2380DPPC   C1B50253  25.840  18.640  31.370
 2380DPPC   C2B50254  26.170  19.020  31.040
 2380DPPC   C3B50255  26.040  19.210  30.770
 2380DPPC   C4B50256  25.770  19.590  30.670
 2381DPPC   NC350257  22.440  18.670  17.820
 2381DPPC   PO450258  22.610  18.890  18.050
 2381DPPC   GL150259  22.650  18.830  18.450
 2381DPPC   GL250260  22.980  18.590  18.610
 2381DPPC   C1A50261  22.300  18.910  18.750
 2381DPPC   C2A50262  21.940  18.950  18.980
 2381DPPC   C3A50263  21.560  19.080  19.190
 2381DPPC   C4A50264  21.230  18.970  19.540
 2381DPPC   C1B50265  23.000  18.130  18.660
 2381DPPC   C2B50266  23.090  17.780  19.060
 2381DPPC   C3B50267  22.850  17.460  19.170
 2381DPPC   C4B50268  23.130  17.190  19.060
 2382DPPC   NC350269  20.660   9.140  34.610
 2382DPPC   PO450270  20.410   8.990  34.230
 2382DPPC   GL150271  20.400   8.600  34.060
 2382DPPC   GL250272  20.440   8.410  33.760
 2382DPPC   C1A50273  20.200   8.260  34.220
 2382DPPC   C2A50274  19.720   8.010  34.250
 2382DPPC   C3A50275  19.540   7.630  34.330
 2382DPPC   C4A50276  19.530   7.700  34.770
 2382DPPC   C1B50277  20.170   8.100  33.680
 2382DPPC   C2B50278  20.120   7.740  33.670
 2382DPPC   C3B50279  20.220   7.340  33.780
 2382DPPC   C4B50280  20.460   7.090  34.080
 2383DPPC   NC350281  21.160  13.380  21.670
 2383DPPC   PO450282  21.340  13.050  21.510
 2383DPPC   GL150283  21.220  12.750  21.100
 2383DPPC   GL250284  21.430  12.410  21.090
 2383DPPC   C1A50285  21.530  12.790  20.740
 2383DPPC   C2A50286  21.790  12.930  20.470
 2383DPPC   C3A50287  22.210  12.820  20.160
 2383DPPC   C4A50288  22.320  12.410  20.120
 2383DPPC   C1B50289  21.130  12.250  20.750
 2383DPPC   C2B50290  21.240  12.020  20.380
 2383DPPC   C3B50291  21.490  12.000  19.890
 2383DPPC   C4B50292  21.400  11.790  19.510
 2384DPPC   NC350293  30.165  21.300  34.930
 2384DPPC   PO450294  30.005  21.430  35.230
 2384DPPC   GL150295  29.605  21.220  35.320
 2384DPPC   GL250296  29.525  21.110  35.620
 2384DPPC   C1A50297  29.295  20.910  35.040
 2384DPPC   C2A50298  29.325  20.510  34.690
 2384DPPC   C3A50299  29.165  20.170  34.450
 2384DPPC   C4A50300  28.935  19.820  34.340
 2384DPPC   C1B50301  29.165  20.850  35.630
 2384DPPC   C2B50302  28.825  20.660  35.470
 2384DPPC   C3B50303  28.655  20.400  35.900
 2384DPPC   C4B50304  28.545  20.150  36.270
 2385DPPC   NC350305  29.055  13.570  28.490
 2385DPPC   PO450306  28.975  13.990  28.580
 2385DPPC   GL150307  29.315  14.210  28.650
 2385DPPC   GL250308  29.245  14.420  28.880
 2385DPPC   C1A50309  29.745  14.310  28.630
 2385DPPC   C2A50310  30.185  14.420  28.680
 2385DPPC   C3A50311  30.465  14.380  29.040
 2385DPPC   C4A50312  30.515  14.230  29.470
 2385DPPC   C1B50313  29.595  14.680  29.030
 2385DPPC   C2B50314  29.945  14.630  29.080
 2385DPPC   C3B50315  30.355  14.850  28.970
 2385DPPC   C4B50316  30.835  14.810  29.010
 2386DPPC   NC350317  11.600  19.490  40.550
 2386DPPC   PO450318  11.490  19.870  40.620
 2386DPPC   GL150319  11.890  19.980  40.530
 2386DPPC   GL250320  12.230  20.090  40.750
 2386DPPC   C1A50321  12.290  19.860  40.250
 2386DPPC   C2A50322  12.590  19.970  40.000
 2386DPPC   C3A50323  12.850  20.160  39.670
 2386DPPC   C4A50324  13.040  19.860  39.450
 2386DPPC   C1B50325  12.670  20.010  40.610
 2386DPPC   C2B50326  13.040  20.030  40.750
 2386DPPC   C3B50327  13.450  20.230  40.930
 2386DPPC   C4B50328  13.730  20.330  41.320
 2387DPPC   NC350329  28.795  13.840  20.360
 2387DPPC   PO450330  29.245  14.030  20.540
 2387DPPC   GL150331  29.045  14.130  20.850
 2387DPPC   GL250332  28.735  14.140  20.760
 2387DPPC   C1A50333  28.805  14.510  21.030
 2387DPPC   C2A50334  28.545  14.570  21.350
 2387DPPC   C3A50335  28.175  14.690  21.470
 2387DPPC   C4A50336  27.825  15.040  21.660
 2387DPPC   C1B50337  28.355  14.200  20.960
 2387DPPC   C2B50338  27.995  14.210  21.330
 2387DPPC   C3B50339  27.705  14.410  21.680
 2387DPPC   C4B50340  27.705  14.460  22.120
 2388DPPC   NC350341  20.170   1.760  38.200
 2388DPPC   PO450342  20.530   1.480  38.410
 2388DPPC   GL150343  20.880   1.270  38.360
 2388DPPC   GL250344  20.650   0.990  38.300
 2388DPPC   C1A50345  21.120   1.180  38.040
 2388DPPC   C2A50346  21.000   0.950  37.590
 2388DPPC   C3A50347  20.640   0.640  37.490
 2388DPPC   C4A50348  20.320   0.500  37.270
 2388DPPC   C1B50349  20.590   0.830  37.960
 2388DPPC   C2B50350  20.490   0.380  37.850
 2388DPPC   C3B50351  20.570  26.350  37.830
 2388DPPC   C4B50352  20.730  25.880  37.960
 2389DPPC   NC350353  17.180   7.200  37.210
 2389DPPC   PO450354  17.510   7.020  37.530
 2389DPPC   GL150355  17.790   7.150  37.150
 2389DPPC   GL250356  17.690   7.390  36.910
 2389DPPC   C1A50357  18.170   7.260  37.070
 2389DPPC   C2A50358  18.540   7.410  37.190
 2389DPPC   C3A50359  18.970   7.690  37.220
 2389DPPC   C4A50360  19.080   8.060  37.400
 2389DPPC   C1B50361  17.860   7.710  36.700
 2389DPPC   C2B50362  18.060   8.110  36.620
 2389DPPC   C3B50363  18.390   8.420  36.590
 2389DPPC   C4B50364  18.640   8.670  36.760
 2390DPPC   NC350365  13.000   0.500  28.950
 2390DPPC   PO450366  13.360   0.830  29.130
 2390DPPC   GL150367  13.530   0.490  29.000
 2390DPPC   GL250368  13.410   0.270  29.200
 2390DPPC   C1A50369  13.730   0.260  28.790
 2390DPPC   C2A50370  14.060   0.060  28.690
 2390DPPC   C3A50371  14.100  26.140  28.700
 2390DPPC   C4A50372  13.940  25.740  28.650
 2390DPPC   C1B50373  13.810   0.290  29.420
 2390DPPC   C2B50374  14.250   0.080  29.660
 2390DPPC   C3B50375  14.290  26.060  29.870
 2390DPPC   C4B50376  14.610  25.900  30.160
 2391DPPC   NC350377  33.995  12.050  31.920
 2391DPPC   PO450378  33.805  12.410  31.800
 2391DPPC   GL150379  33.575  12.130  31.590
 2391DPPC   GL250380  33.285  12.200  31.300
 2391DPPC   C1A50381  33.175  12.060  31.730
 2391DPPC   C2A50382  32.825  12.060  31.870
 2391DPPC   C3A50383  32.415  12.090  31.990
 2391DPPC   C4A50384  32.265  11.950  32.360
 2391DPPC   C1B50385  32.885  12.170  31.330
 2391DPPC   C2B50386  32.455  11.970  31.440
 2391DPPC   C3B50387  32.075  11.970  31.660
 2391DPPC   C4B50388  31.875  11.660  32.030
 2392DPPC   NC350389  17.020  16.380  23.930
 2392DPPC   PO450390  16.990  16.260  23.490
 2392DPPC   GL150391  16.570  16.150  23.260
 2392DPPC   GL250392  16.270  15.940  23.280
 2392DPPC   C1A50393  16.540  16.030  22.890
 2392DPPC   C2A50394  16.380  15.820  22.520
 2392DPPC   C3A50395  16.060  15.430  22.340
 2392DPPC   C4A50396  15.880  15.160  22.100
 2392DPPC   C1B50397  16.060  15.910  22.920
 2392DPPC   C2B50398  15.880  15.980  22.560
 2392DPPC   C3B50399  15.780  15.830  22.150
 2392DPPC   C4B50400  15.620  15.880  21.770
 2393DPPC   NC350401  16.780   2.580  34.110
 2393DPPC   PO450402  16.560   2.450  33.810
 2393DPPC   GL150403  16.660   2.050  33.960
 2393DPPC   GL250404  16.760   2.060  34.330
 2393DPPC   C1A50405  16.850   1.740  33.990
 2393DPPC   C2A50406  17.020   1.310  33.870
 2393DPPC   C3A50407  16.890   0.980  33.710
 2393DPPC   C4A50408  16.880   0.680  33.480
 2393DPPC   C1B50409  17.100   1.800  34.390
 2393DPPC   C2B50410  17.250   1.470  34.500
 2393DPPC   C3B50411  17.150   1.020  34.560
 2393DPPC   C4B50412  17.420   0.730  34.470
 2394DPPC   NC350413  29.755  19.860  27.030
 2394DPPC   PO450414  29.795  19.590  26.680
 2394DPPC   GL150415  29.405  19.650  26.800
 2394DPPC   GL250416  29.315  19.350  26.780
 2394DPPC   C1A50417  28.965  19.870  26.860
 2394DPPC   C2A50418  28.465  19.680  27.160
 2394DPPC   C3A50419  28.355  19.590  27.620
 2394DPPC   C4A50420  28.235  19.690  27.990
 2394DPPC   C1B50421  29.105  19.140  27.040
 2394DPPC   C2B50422  28.765  18.870  26.980
 2394DPPC   C3B50423  28.265  18.850  26.820
 2394DPPC   C4B50424  28.065  18.630  26.510
 2395DPPC   NC350425  21.790  17.480  21.370
 2395DPPC   PO450426  21.690  17.890  21.130
 2395DPPC   GL150427  21.700  18.040  20.830
 2395DPPC   GL250428  21.630  17.850  20.560
 2395DPPC   C1A50429  21.540  18.310  20.470
 2395DPPC   C2A50430  21.120  18.450  20.380
 2395DPPC   C3A50431  20.890  18.810  20.270
 2395DPPC   C4A50432  20.800  19.090  19.890
 2395DPPC   C1B50433  21.670  17.710  20.070
 2395DPPC   C2B50434  21.720  17.880  19.780
 2395DPPC   C3B50435  21.610  18.240  19.960
 2395DPPC   C4B50436  21.440  18.730  20.040
 2396DPPC   NC350437  31.965  17.520  28.960
 2396DPPC   PO450438  32.115  17.330  29.310
 2396DPPC   GL150439  31.895  17.060  29.490
 2396DPPC   GL250440  31.995  17.010  29.790
 2396DPPC   C1A50441  31.465  16.950  29.490
 2396DPPC   C2A50442  31.155  17.110  29.330
 2396DPPC   C3A50443  30.775  17.400  29.460
 2396DPPC   C4A50444  30.385  17.460  29.330
 2396DPPC   C1B50445  31.635  16.640  29.920
 2396DPPC   C2B50446  31.225  16.330  30.000
 2396DPPC   C3B50447  30.905  16.050  30.180
 2396DPPC   C4B50448  30.475  15.930  30.150
 2397DPPC   NC350449  18.670  24.150  34.560
 2397DPPC   PO450450  18.730  24.620  34.760
 2397DPPC   GL150451  18.750  25.040  34.970
 2397DPPC   GL250452  18.700  25.020  35.380
 2397DPPC   C1A50453  18.600  25.520  34.940
 2397DPPC   C2A50454  18.620  25.910  34.850
 2397DPPC   C3A50455  18.640  26.390  34.900
 2397DPPC   C4A50456  18.910   0.330  34.980
 2397DPPC   C1B50457  18.950  25.370  35.320
 2397DPPC   C2B50458  18.870  25.850  35.340
 2397DPPC   C3B50459  18.770  26.370  35.360
 2397DPPC   C4B50460  18.500   0.250  35.310
 2398DPPC   NC350461  11.040  20.280  23.580
 2398DPPC   PO450462  10.630  20.470  23.610
 2398DPPC   GL150463  10.970  20.630  23.950
 2398DPPC   GL250464  10.920  20.320  24.060
 2398DPPC   C1A50465  11.350  20.760  23.930
 2398DPPC   C2A50466  11.610  20.910  24.230
 2398DPPC   C3A50467  11.880  21.240  24.480
 2398DPPC   C4A50468  12.150  21.180  24.750
 2398DPPC   C1B50469  11.230  20.470  24.310
 2398DPPC   C2B50470  11.410  20.620  24.620
 2398DPPC   C3B50471  11.770  20.600  24.710
 2398DPPC   C4B50472  12.100  20.750  24.510
 2399DPPC   NC350473  29.335   4.430  29.860
 2399DPPC   PO450474  29.405   4.760  30.060
 2399DPPC   GL150475  29.195   5.180  30.010
 2399DPPC   GL250476  28.905   5.290  30.010
 2399DPPC   C1A50477  29.395   5.600  29.980
 2399DPPC   C2A50478  29.245   6.010  30.160
 2399DPPC   C3A50479  29.255   6.370  29.980
 2399DPPC   C4A50480  29.595   6.320  29.610
 2399DPPC   C1B50481  28.835   5.740  30.070
 2399DPPC   C2B50482  28.805   6.140  30.250
 2399DPPC   C3B50483  28.415   6.340  30.320
 2399DPPC   C4B50484  28.155   6.450  30.620
 2400DPPC   NC350485  21.850  23.940  20.650
 2400DPPC   PO450486  21.580  24.260  20.830
 2400DPPC   GL150487  21.580  23.860  21.050
 2400DPPC   GL250488  21.270  23.950  21.170
 2400DPPC   C1A50489  21.650  23.520  21.460
 2400DPPC   C2A50490  21.630  23.320  21.820
 2400DPPC   C3A50491  21.620  22.920  21.990
 2400DPPC   C4A50492  21.810  22.490  21.820
 2400DPPC   C1B50493  21.360  24.110  21.660
 2400DPPC   C2B50494  21.460  24.050  22.070
 2400DPPC   C3B50495  21.380  23.940  22.500
 2400DPPC   C4B50496  21.060  23.780  22.650
 2401DPPC   NC350497  22.720  22.000  30.670
 2401DPPC   PO450498  22.510  22.050  31.100
 2401DPPC   GL150499  22.700  22.380  31.060
 2401DPPC   GL250500  22.600  22.560  31.380
 2401DPPC   C1A50501  23.040  22.610  30.840
 2401DPPC   C2A50502  23.360  22.560  30.450
 2401DPPC   C3A50503  23.730  22.300  30.510
 2401DPPC   C4A50504  23.980  21.930  30.550
 2401DPPC   C1B50505  22.870  22.760  31.300
 2401DPPC   C2B50506  23.260  23.010  31.150
 2401DPPC   C3B50507  23.630  23.270  31.000
 2401DPPC   C4B50508  23.710  23.720  30.880
 2402DPPC   NC350509  19.920  24.270  29.120
 2402DPPC   PO450510  19.440  24.280  29.320
 2402DPPC   GL150511  19.630  24.660  29.300
 2402DPPC   GL250512  19.370  24.790  29.470
 2402DPPC   C1A50513  19.770  24.920  29.010
 2402DPPC   C2A50514  19.960  25.230  28.770
 2402DPPC   C3A50515  19.920  25.640  28.640
 2402DPPC   C4A50516  19.800  26.010  28.320
 2402DPPC   C1B50517  19.470  25.250  29.410
 2402DPPC   C2B50518  19.390  25.560  29.580
 2402DPPC   C3B50519  19.230  25.830  29.760
 2402DPPC   C4B50520  19.010  26.270  29.740
 2403DPPC   NC350521  15.520  20.950  24.640
 2403DPPC   PO450522  15.210  21.100  24.820
 2403DPPC   GL150523  14.780  21.220  24.790
 2403DPPC   GL250524  14.690  21.510  24.760
 2403DPPC   C1A50525  14.650  21.190  24.260
 2403DPPC   C2A50526  14.470  21.360  23.920
 2403DPPC   C3A50527  14.680  21.760  23.770
 2403DPPC   C4A50528  14.690  21.930  23.310
 2403DPPC   C1B50529  14.280  21.510  24.570
 2403DPPC   C2B50530  13.880  21.880  24.490
 2403DPPC   C3B50531  13.790  22.250  24.510
 2403DPPC   C4B50532  13.800  22.550  24.700
 2404DPPC   NC350533  15.800  21.480  44.810
 2404DPPC   PO450534  16.260  21.570  45.030
 2404DPPC   GL150535  16.420  21.420  44.700
 2404DPPC   GL250536  16.210  21.190  44.500
 2404DPPC   C1A50537  16.680  21.510  44.380
 2404DPPC   C2A50538  16.870  21.690  44.010
 2404DPPC   C3A50539  17.110  21.500  43.570
 2404DPPC   C4A50540  17.350  21.560  43.170
 2404DPPC   C1B50541  16.630  20.950  44.330
 2404DPPC   C2B50542  16.920  21.110  43.950
 2404DPPC   C3B50543  17.010  21.010  43.580
 2404DPPC   C4B50544  16.880  21.250  43.240
 2405DPPC   NC350545  28.535  21.520  42.100
 2405DPPC   PO450546  28.765  21.240  42.220
 2405DPPC   GL150547  28.775  20.840  41.990
 2405DPPC   GL250548  28.605  20.990  41.650
 2405DPPC   C1A50549  28.545  20.500  41.970
 2405DPPC   C2A50550  28.315  20.140  41.850
 2405DPPC   C3A50551  27.975  20.050  41.820
 2405DPPC   C4A50552  27.705  20.020  42.120
 2405DPPC   C1B50553  28.185  20.750  41.620
 2405DPPC   C2B50554  27.785  20.450  41.660
 2405DPPC   C3B50555  27.445  20.100  41.710
 2405DPPC   C4B50556  27.185  19.760  41.640
 2406DPPC   NC350557  31.115   8.810  40.260
 2406DPPC   PO450558  31.345   8.820  39.810
 2406DPPC   GL150559  31.035   8.900  39.520
 2406DPPC   GL250560  31.175   8.720  39.160
 2406DPPC   C1A50561  30.625   9.110  39.430
 2406DPPC   C2A50562  30.465   9.520  39.430
 2406DPPC   C3A50563  30.495   9.880  39.120
 2406DPPC   C4A50564  30.445  10.270  39.140
 2406DPPC   C1B50565  30.975   9.140  39.060
 2406DPPC   C2B50566  30.575   9.340  38.980
 2406DPPC   C3B50567  30.185   9.630  38.820
 2406DPPC   C4B50568  29.995   9.830  38.550
 2407DPPC   NC350569  13.560  13.160  41.670
 2407DPPC   PO450570  13.380  13.600  41.760
 2407DPPC   GL150571  13.800  13.770  41.570
 2407DPPC   GL250572  13.620  14.110  41.490
 2407DPPC   C1A50573  14.280  13.870  41.530
 2407DPPC   C2A50574  14.700  14.160  41.500
 2407DPPC   C3A50575  15.190  14.160  41.530
 2407DPPC   C4A50576  15.580  14.290  41.500
 2407DPPC   C1B50577  14.070  14.280  41.300
 2407DPPC   C2B50578  14.480  14.110  41.030
 2407DPPC   C3B50579  14.750  14.240  40.770
 2407DPPC   C4B50580  15.000  14.550  40.590
 2408DPPC   NC350581  23.560  22.180  34.770
 2408DPPC   PO450582  23.230  22.310  34.360
 2408DPPC   GL150583  23.530  22.600  34.580
 2408DPPC   GL250584  23.370  22.840  34.560
 2408DPPC   C1A50585  23.860  23.020  34.510
 2408DPPC   C2A50586  24.320  23.270  34.710
 2408DPPC   C3A50587  24.630  23.460  34.900
 2408DPPC   C4A50588  24.940  23.750  34.790
 2408DPPC   C1B50589  23.340  23.090  34.350
 2408DPPC   C2B50590  23.350  23.470  34.200
 2408DPPC   C3B50591  23.620  23.800  34.050
 2408DPPC   C4B50592  24.100  23.790  34.010
 2409DPPC   NC350593  20.100  20.920  22.800
 2409DPPC   PO450594  20.350  20.860  22.370
 2409DPPC   GL150595  20.300  21.170  22.020
 2409DPPC   GL250596  20.340  21.140  21.630
 2409DPPC   C1A50597  20.280  21.590  21.860
 2409DPPC   C2A50598  19.960  21.980  21.610
 2409DPPC   C3A50599  19.780  22.280  21.440
 2409DPPC   C4A50600  19.840  22.670  21.260
 2409DPPC   C1B50601  20.660  21.230  21.530
 2409DPPC   C2B50602  21.120  21.320  21.410
 2409DPPC   C3B50603  21.410  21.050  21.620
 2409DPPC   C4B50604  21.500  20.650  21.450
 2410DPPC   NC350605  23.640   0.140  39.130
 2410DPPC   PO450606  23.820   0.290  38.770
 2410DPPC   GL150607  23.710  26.290  38.710
 2410DPPC   GL250608  23.360  26.350  38.730
 2410DPPC   C1A50609  23.770  25.900  38.350
 2410DPPC   C2A50610  23.840  25.380  38.380
 2410DPPC   C3A50611  23.740  25.030  38.180
 2410DPPC   C4A50612  23.460  24.850  37.930
 2410DPPC   C1B50613  23.290  26.020  38.570
 2410DPPC   C2B50614  23.290  25.660  38.390
 2410DPPC   C3B50615  23.410  25.410  38.140
 2410DPPC   C4B50616  23.710  25.350  37.820
 2411DPPC   NC350617  26.955  18.510  19.440
 2411DPPC   PO450618  26.685  18.180  19.400
 2411DPPC   GL150619  26.410  18.380  19.760
 2411DPPC   GL250620  26.030  18.500  19.750
 2411DPPC   C1A50621  26.250  18.230  20.150
 2411DPPC   C2A50622  25.870  18.270  20.530
 2411DPPC   C3A50623  25.610  18.190  20.780
 2411DPPC   C4A50624  25.290  18.050  20.920
 2411DPPC   C1B50625  25.730  18.270  19.960
 2411DPPC   C2B50626  25.370  18.060  20.240
 2411DPPC   C3B50627  25.010  18.240  20.490
 2411DPPC   C4B50628  24.690  18.500  20.580
 2412DPPC   NC350629  24.340  16.050  18.010
 2412DPPC   PO450630  24.900  15.900  17.850
 2412DPPC   GL150631  24.870  15.800  18.250
 2412DPPC   GL250632  24.560  15.510  18.260
 2412DPPC   C1A50633  24.790  15.840  18.710
 2412DPPC   C2A50634  24.770  15.770  19.200
 2412DPPC   C3A50635  25.000  15.650  19.680
 2412DPPC   C4A50636  24.960  15.680  20.100
 2412DPPC   C1B50637  24.290  15.150  18.580
 2412DPPC   C2B50638  24.090  15.060  18.930
 2412DPPC   C3B50639  24.000  15.040  19.310
 2412DPPC   C4B50640  24.080  15.270  19.650
 2413DPPC   NC350641  32.075  13.000  25.550
 2413DPPC   PO450642  32.245  13.260  25.910
 2413DPPC   GL150643  31.785  13.420  25.860
 2413DPPC   GL250644  31.755  13.590  26.120
 2413DPPC   C1A50645  31.355  13.440  25.820
 2413DPPC   C2A50646  31.065  13.720  25.830
 2413DPPC   C3A50647  30.675  13.750  25.650
 2413DPPC   C4A50648  30.175  13.710  25.450
 2413DPPC   C1B50649  31.375  13.860  26.250
 2413DPPC   C2B50650  31.125  14.180  26.230
 2413DPPC   C3B50651  30.825  14.520  26.040
 2413DPPC   C4B50652  30.545  14.470  25.900
 2414DPPC   NC350653  29.845  20.290  28.340
 2414DPPC   PO450654  30.025  20.070  28.680
 2414DPPC   GL150655  29.645  19.800  28.460
 2414DPPC   GL250656  29.755  19.400  28.350
 2414DPPC   C1A50657  29.285  19.760  28.180
 2414DPPC   C2A50658  28.905  19.530  27.890
 2414DPPC   C3A50659  28.625  19.280  28.010
 2414DPPC   C4A50660  28.405  18.930  27.810
 2414DPPC   C1B50661  29.365  19.250  28.150
 2414DPPC   C2B50662  29.065  19.020  28.090
 2414DPPC   C3B50663  28.695  18.810  28.200
 2414DPPC   C4B50664  28.435  18.640  28.530
 2415DPPC   NC350665  22.130   3.720  28.200
 2415DPPC   PO450666  22.160   3.850  28.650
 2415DPPC   GL150667  22.510   4.050  28.510
 2415DPPC   GL250668  22.870   3.970  28.480
 2415DPPC   C1A50669  22.570   4.360  28.290
 2415DPPC   C2A50670  22.320   4.770  28.050
 2415DPPC   C3A50671  22.380   5.080  28.250
 2415DPPC   C4A50672  22.420   5.550  28.350
 2415DPPC   C1B50673  22.900   4.340  28.630
 2415DPPC   C2B50674  22.910   4.730  28.780
 2415DPPC   C3B50675  22.940   5.120  29.040
 2415DPPC   C4B50676  23.100   5.030  29.380
 2416DPPC   NC350677  20.980   1.660  32.960
 2416DPPC   PO450678  20.760   1.800  33.210
 2416DPPC   GL150679  20.750   1.300  33.300
 2416DPPC   GL250680  20.420   1.170  33.410
 2416DPPC   C1A50681  20.870   0.880  33.150
 2416DPPC   C2A50682  21.230   0.730  33.090
 2416DPPC   C3A50683  21.180   0.310  32.980
 2416DPPC   C4A50684  20.930   0.050  33.250
 2416DPPC   C1B50685  20.760   1.010  33.660
 2416DPPC   C2B50686  20.820   0.960  34.110
 2416DPPC   C3B50687  20.840   1.330  34.310
 2416DPPC   C4B50688  20.560   1.540  34.370
 2417DPPC   NC350689  26.410  24.620  39.840
 2417DPPC   PO450690  26.595  24.520  40.200
 2417DPPC   GL150691  26.330  24.220  40.180
 2417DPPC   GL250692  26.060  24.360  40.210
 2417DPPC   C1A50693  26.230  23.900  39.890
 2417DPPC   C2A50694  26.090  23.500  40.000
 2417DPPC   C3A50695  25.720  23.300  39.920
 2417DPPC   C4A50696  25.330  23.320  39.980
 2417DPPC   C1B50697  25.980  23.910  40.360
 2417DPPC   C2B50698  25.780  23.650  40.660
 2417DPPC   C3B50699  26.010  23.590  41.050
 2417DPPC   C4B50700  25.930  23.640  41.530
 2418DPPC   NC350701   9.560  23.040  26.620
 2418DPPC   PO450702   9.760  22.810  26.250
 2418DPPC   GL150703  10.180  22.610  26.210
 2418DPPC   GL250704  10.140  22.350  26.250
 2418DPPC   C1A50705  10.450  22.560  26.590
 2418DPPC   C2A50706  10.920  22.420  26.670
 2418DPPC   C3A50707  11.290  22.370  26.590
 2418DPPC   C4A50708  11.620  22.620  26.540
 2418DPPC   C1B50709  10.500  22.140  26.330
 2418DPPC   C2B50710  10.870  21.870  26.270
 2418DPPC   C3B50711  11.280  21.880  26.450
 2418DPPC   C4B50712  11.710  22.060  26.420
 2419DPPC   NC350713  20.460  12.120  18.380
 2419DPPC   PO450714  20.030  12.230  18.520
 2419DPPC   GL150715  20.180  12.140  18.850
 2419DPPC   GL250716  20.380  11.870  18.810
 2419DPPC   C1A50717  20.480  12.080  19.250
 2419DPPC   C2A50718  20.560  12.160  19.690
 2419DPPC   C3A50719  20.720  12.210  20.020
 2419DPPC   C4A50720  20.860  12.440  20.350
 2419DPPC   C1B50721  20.090  11.740  19.180
 2419DPPC   C2B50722  20.110  11.970  19.630
 2419DPPC   C3B50723  20.040  12.130  20.090
 2419DPPC   C4B50724  20.110  12.360  20.350
 2420DPPC   NC350725  28.825  14.260  30.570
 2420DPPC   PO450726  28.795  14.530  30.160
 2420DPPC   GL150727  29.175  14.550  30.200
 2420DPPC   GL250728  29.285  14.590  30.440
 2420DPPC   C1A50729  29.365  14.890  29.870
 2420DPPC   C2A50730  29.295  15.320  29.820
 2420DPPC   C3A50731  29.635  15.610  29.600
 2420DPPC   C4A50732  29.765  16.010  29.350
 2420DPPC   C1B50733  29.375  15.050  30.400
 2420DPPC   C2B50734  29.725  15.280  30.090
 2420DPPC   C3B50735  30.055  15.480  29.760
 2420DPPC   C4B50736  30.215  15.870  29.580
 2421DPPC   NC350737  18.360  23.490  24.370
 2421DPPC   PO450738  18.660  23.760  24.600
 2421DPPC   GL150739  18.740  24.120  24.430
 2421DPPC   GL250740  18.630  24.350  24.240
 2421DPPC   C1A50741  19.180  24.230  24.420
 2421DPPC   C2A50742  19.320  24.390  24.200
 2421DPPC   C3A50743  19.700  24.680  23.960
 2421DPPC   C4A50744  19.490  25.120  23.920
 2421DPPC   C1B50745  18.280  24.440  24.030
 2421DPPC   C2B50746  17.990  24.630  23.710
 2421DPPC   C3B50747  18.190  24.690  23.230
 2421DPPC   C4B50748  18.110  24.690  22.860
 2422DPPC   NC350749  23.080  20.740  29.610
 2422DPPC   PO450750  22.960  20.770  30.030
 2422DPPC   GL150751  23.400  20.830  30.020
 2422DPPC   GL250752  23.610  20.910  29.790
 2422DPPC   C1A50753  23.770  20.620  30.190
 2422DPPC   C2A50754  24.020  20.250  30.330
 2422DPPC   C3A50755  24.330  19.900  30.600
 2422DPPC   C4A50756  24.790  19.790  30.810
 2422DPPC   C1B50757  23.980  20.900  29.700
 2422DPPC   C2B50758  24.260  20.790  30.100
 2422DPPC   C3B50759  24.450  20.510  30.170
 2422DPPC   C4B50760  24.750  20.320  30.500
 2423DPPC   NC350761  16.000  24.340  33.480
 2423DPPC   PO450762  15.770  24.450  33.770
 2423DPPC   GL150763  15.860  24.900  33.710
 2423DPPC   GL250764  15.950  24.880  33.300
 2423DPPC   C1A50765  15.620  25.310  33.770
 2423DPPC   C2A50766  15.310  25.510  33.640
 2423DPPC   C3A50767  15.250  25.460  33.140
 2423DPPC   C4A50768  15.270  25.510  32.670
 2423DPPC   C1B50769  15.660  25.180  33.280
 2423DPPC   C2B50770  15.670  25.660  33.010
 2423DPPC   C3B50771  15.620  26.030  32.910
 2423DPPC   C4B50772  15.700   0.070  32.920
 2424DPPC   NC350773  22.360   8.370  43.560
 2424DPPC   PO450774  22.460   8.130  43.180
 2424DPPC   GL150775  22.730   8.340  42.840
 2424DPPC   GL250776  23.050   8.360  42.770
 2424DPPC   C1A50777  22.720   8.610  42.440
 2424DPPC   C2A50778  22.490   8.720  42.080
 2424DPPC   C3A50779  22.210   8.650  41.740
 2424DPPC   C4A50780  21.820   8.850  41.670
 2424DPPC   C1B50781  23.280   8.710  42.610
 2424DPPC   C2B50782  23.090   8.910  42.300
 2424DPPC   C3B50783  22.890   9.040  42.030
 2424DPPC   C4B50784  22.700   8.900  41.600
 2425DPPC   NC350785  14.910  20.250  24.710
 2425DPPC   PO450786  14.800  20.680  24.680
 2425DPPC   GL150787  14.420  20.820  24.710
 2425DPPC   GL250788  14.330  20.960  24.920
 2425DPPC   C1A50789  14.120  21.010  24.390
 2425DPPC   C2A50790  14.050  21.260  24.120
 2425DPPC   C3A50791  13.680  21.590  24.140
 2425DPPC   C4A50792  13.430  21.940  24.300
 2425DPPC   C1B50793  13.910  20.810  24.830
 2425DPPC   C2B50794  13.410  20.880  24.940
 2425DPPC   C3B50795  13.140  21.140  24.830
 2425DPPC   C4B50796  12.760  21.330  24.760
 2426DPPC   NC350797  10.220  22.080  35.070
 2426DPPC   PO450798  10.370  22.550  35.390
 2426DPPC   GL150799  10.640  22.480  35.030
 2426DPPC   GL250800  10.400  22.530  34.860
 2426DPPC   C1A50801  11.030  22.230  34.920
 2426DPPC   C2A50802  11.280  22.060  35.080
 2426DPPC   C3A50803  11.630  21.810  35.080
 2426DPPC   C4A50804  11.900  21.560  34.960
 2426DPPC   C1B50805  10.610  22.420  34.470
 2426DPPC   C2B50806  10.970  22.130  34.350
 2426DPPC   C3B50807  10.940  21.720  34.110
 2426DPPC   C4B50808  11.220  21.360  34.290
 2427DPPC   NC350809  22.590  23.030  36.970
 2427DPPC   PO450810  22.570  23.200  36.660
 2427DPPC   GL150811  22.630  23.630  36.580
 2427DPPC   GL250812  22.610  23.670  36.210
 2427DPPC   C1A50813  22.970  23.910  36.460
 2427DPPC   C2A50814  23.160  24.230  36.380
 2427DPPC   C3A50815  23.460  24.460  36.370
 2427DPPC   C4A50816  23.940  24.630  36.470
 2427DPPC   C1B50817  22.470  24.090  36.380
 2427DPPC   C2B50818  22.760  24.350  36.590
 2427DPPC   C3B50819  23.010  24.600  36.970
 2427DPPC   C4B50820  22.920  24.970  37.120
 2428DPPC   NC350821  23.970   0.390  30.000
 2428DPPC   PO450822  23.890   0.530  30.460
 2428DPPC   GL150823  23.510   0.250  30.330
 2428DPPC   GL250824  23.670  26.400  30.250
 2428DPPC   C1A50825  23.090   0.050  30.300
 2428DPPC   C2A50826  22.800  26.220  30.430
 2428DPPC   C3A50827  22.570  25.860  30.660
 2428DPPC   C4A50828  22.320  25.590  30.900
 2428DPPC   C1B50829  23.880  25.980  30.330
 2428DPPC   C2B50830  23.960  25.520  30.230
 2428DPPC   C3B50831  23.850  25.160  30.230
 2428DPPC   C4B50832  24.040  24.820  30.430
 2429DPPC   NC350833  28.405  20.260  44.450
 2429DPPC   PO450834  28.495  20.000  44.030
 2429DPPC   GL150835  28.375  19.830  43.660
 2429DPPC   GL250836  28.525  19.540  43.660
 2429DPPC   C1A50837  27.955  19.480  43.620
 2429DPPC   C2A50838  27.775  19.180  43.240
 2429DPPC   C3A50839  27.305  19.180  43.120
 2429DPPC   C4A50840  27.065  19.250  42.800
 2429DPPC   C1B50841  28.455  19.290  43.250
 2429DPPC   C2B50842  28.495  19.160  42.810
 2429DPPC   C3B50843  28.095  19.180  42.790
 2429DPPC   C4B50844  27.615  19.150  42.760
 2430DPPC   NC350845  12.830  22.820  40.650
 2430DPPC   PO450846  12.870  23.190  40.560
 2430DPPC   GL150847  13.250  23.070  40.340
 2430DPPC   GL250848  13.330  22.920  40.040
 2430DPPC   C1A50849  13.250  23.440  40.050
 2430DPPC   C2A50850  13.040  23.220  39.680
 2430DPPC   C3A50851  13.070  23.290  39.350
 2430DPPC   C4A50852  13.030  23.290  38.950
 2430DPPC   C1B50853  13.610  22.640  40.230
 2430DPPC   C2B50854  13.820  22.570  40.660
 2430DPPC   C3B50855  14.090  22.840  40.990
 2430DPPC   C4B50856  14.290  22.960  41.360
 2431DPPC   NC350857  22.550  21.080  24.940
 2431DPPC   PO450858  22.390  21.380  24.730
 2431DPPC   GL150859  22.680  21.660  24.530
 2431DPPC   GL250860  22.540  21.520  24.210
 2431DPPC   C1A50861  22.800  22.010  24.540
 2431DPPC   C2A50862  23.070  22.300  24.390
 2431DPPC   C3A50863  23.200  22.610  24.040
 2431DPPC   C4A50864  23.170  23.010  23.910
 2431DPPC   C1B50865  22.750  21.800  24.080
 2431DPPC   C2B50866  22.710  22.240  23.930
 2431DPPC   C3B50867  22.710  22.740  23.810
 2431DPPC   C4B50868  22.790  23.120  23.590
 2432DPPC   NC350869  19.000  24.840  31.450
 2432DPPC   PO450870  19.040  24.700  30.990
 2432DPPC   GL150871  19.210  25.140  31.150
 2432DPPC   GL250872  19.180  25.280  31.410
 2432DPPC   C1A50873  19.340  25.450  30.890
 2432DPPC   C2A50874  19.490  25.730  30.690
 2432DPPC   C3A50875  19.510  26.200  30.820
 2432DPPC   C4A50876  19.800   0.100  30.780
 2432DPPC   C1B50877  19.340  25.640  31.680
 2432DPPC   C2B50878  19.700  25.890  31.890
 2432DPPC   C3B50879  19.550  26.380  32.020
 2432DPPC   C4B50880  19.070   0.210  32.140
 2433DPPC   NC350881  19.130  19.830  47.130
 2433DPPC   PO450882  18.820  19.510  47.110
 2433DPPC   GL150883  18.840  19.230  46.750
 2433DPPC   GL250884  18.500  19.460  46.660
 2433DPPC   C1A50885  19.140  19.230  46.420
 2433DPPC   C2A50886  19.420  19.280  46.000
 2433DPPC   C3A50887  19.400  18.980  45.790
 2433DPPC   C4A50888  19.660  18.760  45.510
 2433DPPC   C1B50889  18.460  19.070  46.400
 2433DPPC   C2B50890  18.420  18.900  46.100
 2433DPPC   C3B50891  18.220  18.760  45.690
 2433DPPC   C4B50892  17.890  18.790  45.350
 2434DPPC   NC350893  17.960   6.800  38.930
 2434DPPC   PO450894  17.970   7.150  39.220
 2434DPPC   GL150895  18.210   7.380  38.930
 2434DPPC   GL250896  18.200   7.730  39.210
 2434DPPC   C1A50897  18.330   7.440  38.440
 2434DPPC   C2A50898  18.270   7.650  38.040
 2434DPPC   C3A50899  18.420   7.830  37.690
 2434DPPC   C4A50900  18.570   7.970  37.330
 2434DPPC   C1B50901  18.550   7.870  39.220
 2434DPPC   C2B50902  18.510   8.370  39.470
 2434DPPC   C3B50903  18.650   8.600  39.810
 2434DPPC   C4B50904  18.680   8.840  40.080
 2435DPPC   NC350905  13.650  17.080  43.310
 2435DPPC   PO450906  13.470  16.710  43.020
 2435DPPC   GL150907  13.720  16.940  42.760
 2435DPPC   GL250908  13.560  17.240  42.840
 2435DPPC   C1A50909  14.200  16.920  42.760
 2435DPPC   C2A50910  14.510  16.760  42.560
 2435DPPC   C3A50911  14.770  16.950  42.270
 2435DPPC   C4A50912  14.710  17.330  42.100
 2435DPPC   C1B50913  13.810  17.360  42.450
 2435DPPC   C2B50914  14.200  17.230  42.260
 2435DPPC   C3B50915  14.340  17.020  41.820
 2435DPPC   C4B50916  14.550  17.030  41.340
 2436DPPC   NC350917  15.040  22.990  26.130
 2436DPPC   PO450918  15.100  23.010  26.630
 2436DPPC   GL150919  14.930  23.350  26.640
 2436DPPC   GL250920  14.620  23.220  26.570
 2436DPPC   C1A50921  14.670  23.740  26.530
 2436DPPC   C2A50922  14.360  23.990  26.530
 2436DPPC   C3A50923  13.940  24.180  26.510
 2436DPPC   C4A50924  13.450  24.210  26.430
 2436DPPC   C1B50925  14.330  23.420  26.380
 2436DPPC   C2B50926  14.030  23.660  26.260
 2436DPPC   C3B50927  13.680  23.870  26.110
 2436DPPC   C4B50928  13.430  23.620  25.740
 2437DPPC   NC350929  25.280   7.320  30.070
 2437DPPC   PO450930  24.960   7.530  29.940
 2437DPPC   GL150931  24.840   7.140  29.880
 2437DPPC   GL250932  24.570   7.080  29.660
 2437DPPC   C1A50933  24.940   6.660  29.880
 2437DPPC   C2A50934  24.940   6.370  30.090
 2437DPPC   C3A50935  24.890   5.950  30.100
 2437DPPC   C4A50936  24.800   5.550  29.930
 2437DPPC   C1B50937  24.840   6.800  29.410
 2437DPPC   C2B50938  25.030   6.430  29.290
 2437DPPC   C3B50939  25.180   6.000  29.080
 2437DPPC   C4B50940  25.180   5.640  28.980
 2438DPPC   NC350941  28.435  23.340  40.120
 2438DPPC   PO450942  28.105  23.120  39.840
 2438DPPC   GL150943  27.705  23.050  39.630
 2438DPPC   GL250944  27.455  23.320  39.790
 2438DPPC   C1A50945  27.385  22.920  39.420
 2438DPPC   C2A50946  26.995  22.920  39.200
 2438DPPC   C3A50947  26.745  23.140  39.050
 2438DPPC   C4A50948  26.535  23.510  39.090
 2438DPPC   C1B50949  27.255  22.890  39.880
 2438DPPC   C2B50950  27.235  22.570  39.750
 2438DPPC   C3B50951  27.015  22.130  39.640
 2438DPPC   C4B50952  26.745  21.990  39.520
 2439DPPC   NC350953  25.460  24.770  30.410
 2439DPPC   PO450954  25.340  24.420  30.680
 2439DPPC   GL150955  24.930  24.420  30.830
 2439DPPC   GL250956  24.740  24.710  31.010
 2439DPPC   C1A50957  24.860  24.250  31.270
 2439DPPC   C2A50958  24.550  24.270  31.620
 2439DPPC   C3A50959  24.430  24.180  31.990
 2439DPPC   C4A50960  24.330  24.080  32.380
 2439DPPC   C1B50961  24.390  24.580  31.290
 2439DPPC   C2B50962  24.090  24.210  31.280
 2439DPPC   C3B50963  24.060  23.800  31.370
 2439DPPC   C4B50964  24.400  23.730  31.710
 2440DPPC   NC350965  21.730  14.550  47.590
 2440DPPC   PO450966  21.900  14.910  47.380
 2440DPPC   GL150967  21.950  15.080  46.870
 2440DPPC   GL250968  22.300  15.260  46.860
 2440DPPC   C1A50969  21.970  15.160  46.460
 2440DPPC   C2A50970  21.640  14.990  46.210
 2440DPPC   C3A50971  21.190  14.650  46.200
 2440DPPC   C4A50972  20.830  14.410  46.080
 2440DPPC   C1B50973  22.400  14.980  46.590
 2440DPPC   C2B50974  22.700  15.060  46.270
 2440DPPC   C3B50975  22.780  15.000  45.800
 2440DPPC   C4B50976  22.870  15.320  45.490
 2441DPPC   NC350977  19.450  24.410  29.820
 2441DPPC   PO450978  19.000  24.420  29.940
 2441DPPC   GL150979  18.950  24.800  30.150
 2441DPPC   GL250980  18.560  24.960  30.120
 2441DPPC   C1A50981  18.930  25.260  30.110
 2441DPPC   C2A50982  18.990  25.600  30.200
 2441DPPC   C3A50983  18.890  25.980  30.150
 2441DPPC   C4A50984  18.640  26.350  30.130
 2441DPPC   C1B50985  18.500  25.330  30.390
 2441DPPC   C2B50986  18.450  25.750  30.390
 2441DPPC   C3B50987  18.550  26.140  30.550
 2441DPPC   C4B50988  18.590   0.090  30.590
 2442DPPC   NC350989  21.750  12.100  17.590
 2442DPPC   PO450990  21.760  11.660  17.710
 2442DPPC   GL150991  21.620  11.930  18.070
 2442DPPC   GL250992  21.840  11.760  18.360
 2442DPPC   C1A50993  21.620  12.350  18.230
 2442DPPC   C2A50994  21.820  12.610  18.500
 2442DPPC   C3A50995  21.840  12.610  18.840
 2442DPPC   C4A50996  21.990  12.610  19.140
 2442DPPC   C1B50997  21.620  12.090  18.620
 2442DPPC   C2B50998  21.270  12.030  18.710
 2442DPPC   C3B50999  20.900  12.090  18.890
 2442DPPC   C4B51000  20.810  12.460  19.100
 2443DPPC   NC351001  16.140  23.740  26.810
 2443DPPC   PO451002  16.460  23.900  26.970
 2443DPPC   GL151003  16.270  24.280  26.630
 2443DPPC   GL251004  16.250  24.660  26.590
 2443DPPC   C1A51005  16.180  24.450  26.160
 2443DPPC   C2A51006  15.960  24.650  25.900
 2443DPPC   C3A51007  15.940  24.830  25.490
 2443DPPC   C4A51008  16.130  25.190  25.370
 2443DPPC   C1B51009  15.940  24.870  26.490
 2443DPPC   C2B51010  15.730  25.250  26.650
 2443DPPC   C3B51011  15.440  25.610  26.490
 2443DPPC   C4B51012  15.120  25.950  26.420
 2444DPPC   NC351013  15.450  19.240  18.680
 2444DPPC   PO451014  15.040  19.400  18.890
 2444DPPC   GL151015  15.140  19.290  19.290
 2444DPPC   GL251016  15.450  19.440  19.160
 2444DPPC   C1A51017  15.370  19.030  19.550
 2444DPPC   C2A51018  15.270  18.790  19.880
 2444DPPC   C3A51019  15.300  18.680  20.430
 2444DPPC   C4A51020  15.360  18.550  20.870
 2444DPPC   C1B51021  15.640  19.480  19.510
 2444DPPC   C2B51022  15.740  19.570  19.960
 2444DPPC   C3B51023  15.800  19.840  20.340
 2444DPPC   C4B51024  15.810  20.210  20.680
 2445DPPC   NC351025  25.170   9.560  25.470
 2445DPPC   PO451026  25.570   9.490  25.350
 2445DPPC   GL151027  25.780   9.230  25.100
 2445DPPC   GL251028  26.030   9.320  25.200
 2445DPPC   C1A51029  25.770   9.050  24.720
 2445DPPC   C2A51030  26.120   8.640  24.630
 2445DPPC   C3A51031  26.555   8.490  24.510
 2445DPPC   C4A51032  26.815   8.300  24.710
 2445DPPC   C1B51033  26.170   8.860  25.070
 2445DPPC   C2B51034  26.465   8.600  24.970
 2445DPPC   C3B51035  26.775   8.710  24.920
 2445DPPC   C4B51036  27.115   8.750  25.050
 2446DPPC   NC351037  28.175   7.620  22.370
 2446DPPC   PO451038  27.915   7.470  22.550
 2446DPPC   GL151039  27.805   7.930  22.660
 2446DPPC   GL251040  27.545   8.100  22.540
 2446DPPC   C1A51041  27.605   8.100  23.020
 2446DPPC   C2A51042  27.345   8.430  23.160
 2446DPPC   C3A51043  27.055   8.650  23.370
 2446DPPC   C4A51044  26.985   8.970  23.640
 2446DPPC   C1B51045  27.475   8.490  22.710
 2446DPPC   C2B51046  27.605   8.890  22.810
 2446DPPC   C3B51047  27.755   9.030  23.270
 2446DPPC   C4B51048  27.605   9.290  23.500
 2447DPPC   NC351049  25.110   8.990  37.870
 2447DPPC   PO451050  24.970   9.000  38.240
 2447DPPC   GL151051  24.930   8.730  38.400
 2447DPPC   GL251052  25.110   8.440  38.260
 2447DPPC   C1A51053  25.030   8.420  38.750
 2447DPPC   C2A51054  25.180   8.010  39.070
 2447DPPC   C3A51055  24.950   7.640  39.160
 2447DPPC   C4A51056  25.020   7.150  39.100
 2447DPPC   C1B51057  25.200   8.020  38.130
 2447DPPC   C2B51058  25.390   7.630  38.210
 2447DPPC   C3B51059  25.430   7.260  38.030
 2447DPPC   C4B51060  25.420   6.780  38.070
 2448DPPC   NC351061  24.910  26.330  32.520
 2448DPPC   PO451062  24.540  26.340  32.370
 2448DPPC   GL151063  24.480  25.970  32.540
 2448DPPC   GL251064  24.610  25.890  32.760
 2448DPPC   C1A51065  23.940  25.810  32.610
 2448DPPC   C2A51066  23.600  25.560  32.510
 2448DPPC   C3A51067  23.330  25.230  32.280
 2448DPPC   C4A51068  22.900  25.390  32.370
 2448DPPC   C1B51069  24.690  25.450  32.910
 2448DPPC   C2B51070  24.730  25.150  32.690
 2448DPPC   C3B51071  24.380  24.850  32.710
 2448DPPC   C4B51072  24.170  24.500  32.800
 2449DPPC   NC351073  20.390  17.460  16.790
 2449DPPC   PO451074  19.900  17.710  16.890
 2449DPPC   GL151075  19.920  17.590  17.360
 2449DPPC   GL251076  19.870  17.840  17.570
 2449DPPC   C1A51077  20.050  17.410  17.740
 2449DPPC   C2A51078  20.270  17.550  18.060
 2449DPPC   C3A51079  20.550  17.830  18.370
 2449DPPC   C4A51080  20.900  18.030  18.500
 2449DPPC   C1B51081  20.000  17.900  17.920
 2449DPPC   C2B51082  19.900  17.700  18.350
 2449DPPC   C3B51083  19.690  17.500  18.690
 2449DPPC   C4B51084  19.540  17.810  19.070
 2450DPPC   NC351085  21.690  17.630  30.180
 2450DPPC   PO451086  21.530  17.840  30.450
 2450DPPC   GL151087  21.810  17.830  30.710
 2450DPPC   GL251088  21.900  18.180  30.850
 2450DPPC   C1A51089  22.250  17.970  30.600
 2450DPPC   C2A51090  22.600  17.900  30.280
 2450DPPC   C3A51091  23.040  18.040  30.070
 2450DPPC   C4A51092  23.400  17.760  30.120
 2450DPPC   C1B51093  22.130  18.470  30.530
 2450DPPC   C2B51094  22.270  18.590  30.090
 2450DPPC   C3B51095  22.560  18.280  29.980
 2450DPPC   C4B51096  22.820  18.210  29.640
 2451DPPC   NC351097  34.465  11.930  36.000
 2451DPPC   PO451098  34.115  12.030  35.790
 2451DPPC   GL151099  33.675  12.190  35.830
 2451DPPC   GL251100  33.565  12.490  35.670
 2451DPPC   C1A51101  33.285  12.210  36.010
 2451DPPC   C2A51102  33.015  11.920  36.170
 2451DPPC   C3A51103  32.665  11.920  36.030
 2451DPPC   C4A51104  32.295  11.970  35.740
 2451DPPC   C1B51105  33.265  12.590  35.560
 2451DPPC   C2B51106  32.995  12.740  35.230
 2451DPPC   C3B51107  32.735  13.080  35.240
 2451DPPC   C4B51108  32.385  13.280  35.370
 2452DPPC   NC351109  12.320  22.500  40.250
 2452DPPC   PO451110  12.510  22.380  40.670
 2452DPPC   GL151111  12.790  22.380  40.290
 2452DPPC   GL251112  12.860  22.690  40.130
 2452DPPC   C1A51113  12.890  21.970  40.000
 2452DPPC   C2A51114  13.210  21.870  39.800
 2452DPPC   C3A51115  13.590  21.960  39.490
 2452DPPC   C4A51116  13.880  22.220  39.240
 2452DPPC   C1B51117  13.170  22.400  39.910
 2452DPPC   C2B51118  13.490  22.210  39.960
 2452DPPC   C3B51119  13.780  21.880  39.910
 2452DPPC   C4B51120  14.220  21.890  39.980
 2453DPPC   NC351121  23.530  10.510  18.290
 2453DPPC   PO451122  23.930  10.560  18.540
 2453DPPC   GL151123  23.800  11.050  18.740
 2453DPPC   GL251124  23.650  11.240  18.930
 2453DPPC   C1A51125  24.100  11.350  19.010
 2453DPPC   C2A51126  23.990  11.650  19.290
 2453DPPC   C3A51127  24.100  11.830  19.700
 2453DPPC   C4A51128  24.180  12.200  19.760
 2453DPPC   C1B51129  23.690  11.200  19.380
 2453DPPC   C2B51130  23.590  11.060  19.800
 2453DPPC   C3B51131  23.710  11.070  20.290
 2453DPPC   C4B51132  24.100  10.950  20.570
 2454DPPC   NC351133  10.960  14.510  37.830
 2454DPPC   PO451134  11.100  14.940  38.030
 2454DPPC   GL151135  11.540  14.970  38.140
 2454DPPC   GL251136  11.790  14.940  38.320
 2454DPPC   C1A51137  11.990  14.920  37.860
 2454DPPC   C2A51138  12.470  14.860  37.770
 2454DPPC   C3A51139  12.840  14.680  37.760
 2454DPPC   C4A51140  13.220  14.660  37.530
 2454DPPC   C1B51141  12.270  15.030  38.290
 2454DPPC   C2B51142  12.810  14.980  38.170
 2454DPPC   C3B51143  13.160  15.100  37.900
 2454DPPC   C4B51144  13.520  15.130  37.800
 2455DPPC   NC351145  23.830  19.730  24.070
 2455DPPC   PO451146  23.770  20.120  24.450
 2455DPPC   GL151147  23.900  20.490  24.360
 2455DPPC   GL251148  23.590  20.650  24.210
 2455DPPC   C1A51149  24.330  20.780  24.250
 2455DPPC   C2A51150  24.490  21.310  24.240
 2455DPPC   C3A51151  24.660  21.790  24.130
 2455DPPC   C4A51152  24.870  21.910  23.770
 2455DPPC   C1B51153  23.930  20.830  23.990
 2455DPPC   C2B51154  24.010  21.300  24.040
 2455DPPC   C3B51155  24.150  21.750  24.020
 2455DPPC   C4B51156  24.350  22.100  23.780
 2456DPPC   NC351157  14.820  24.270  20.890
 2456DPPC   PO451158  14.490  24.080  21.090
 2456DPPC   GL151159  14.290  23.850  21.350
 2456DPPC   GL251160  14.320  24.150  21.660
 2456DPPC   C1A51161  14.300  23.440  21.620
 2456DPPC   C2A51162  14.350  23.140  21.930
 2456DPPC   C3A51163  14.620  22.820  22.040
 2456DPPC   C4A51164  14.590  22.400  22.130
 2456DPPC   C1B51165  14.520  23.760  21.910
 2456DPPC   C2B51166  14.790  23.520  21.890
 2456DPPC   C3B51167  14.990  23.150  22.090
 2456DPPC   C4B51168  14.760  23.020  22.470
 2457DPPC   NC351169  25.100  21.380  20.120
 2457DPPC   PO451170  25.310  21.060  20.150
 2457DPPC   GL151171  25.200  20.790  20.370
 2457DPPC   GL251172  25.440  20.500  20.410
 2457DPPC   C1A51173  25.320  20.920  20.840
 2457DPPC   C2A51174  25.320  20.630  21.310
 2457DPPC   C3A51175  25.100  20.280  21.330
 2457DPPC   C4A51176  24.750  20.220  21.430
 2457DPPC   C1B51177  25.510  20.430  20.880
 2457DPPC   C2B51178  25.520  20.040  21.250
 2457DPPC   C3B51179  25.520  20.010  21.690
 2457DPPC   C4B51180  25.310  19.780  22.090
 2458DPPC   NC351181  31.975  16.160  40.030
 2458DPPC   PO451182  32.035  16.420  39.720
 2458DPPC   GL151183  31.625  16.300  39.550
 2458DPPC   GL251184  31.465  16.180  39.270
 2458DPPC   C1A51185  31.135  16.220  39.700
 2458DPPC   C2A51186  30.815  16.440  39.740
 2458DPPC   C3A51187  30.415  16.350  39.500
 2458DPPC   C4A51188  30.105  16.180  39.190
 2458DPPC   C1B51189  31.225  15.930  38.940
 2458DPPC   C2B51190  30.845  15.810  38.720
 2458DPPC   C3B51191  30.575  15.570  38.550
 2458DPPC   C4B51192  30.605  15.660  38.150
 2459DPPC   NC351193  14.740  10.480  23.750
 2459DPPC   PO451194  15.060  10.250  24.090
 2459DPPC   GL151195  15.130  10.740  23.950
 2459DPPC   GL251196  15.360  10.840  23.850
 2459DPPC   C1A51197  15.160  11.170  24.150
 2459DPPC   C2A51198  15.500  11.390  24.250
 2459DPPC   C3A51199  15.640  11.720  24.450
 2459DPPC   C4A51200  15.770  12.040  24.650
 2459DPPC   C1B51201  15.550  10.790  24.240
 2459DPPC   C2B51202  15.880  10.840  24.640
 2459DPPC   C3B51203  16.070  11.210  24.940
 2459DPPC   C4B51204  16.340  11.420  24.840
 2460DPPC   NC351205  32.825   9.180  27.670
 2460DPPC   PO451206  32.775   9.210  28.200
 2460DPPC   GL151207  32.435   9.220  28.320
 2460DPPC   GL251208  32.345   9.500  28.460
 2460DPPC   C1A51209  32.035   9.110  28.150
 2460DPPC   C2A51210  31.625   9.050  28.200
 2460DPPC   C3A51211  31.155   9.070  28.150
 2460DPPC   C4A51212  30.725   8.950  28.200
 2460DPPC   C1B51213  32.055   9.660  28.660
 2460DPPC   C2B51214  31.955  10.000  28.800
 2460DPPC   C3B51215  31.645  10.140  29.020
 2460DPPC   C4B51216  31.225  10.180  28.900
 2461DPPC   NC351217  22.220   9.820  26.080
 2461DPPC   PO451218  22.500   9.520  25.950
 2461DPPC   GL151219  22.340   9.010  25.910
 2461DPPC   GL251220  22.050   8.940  25.710
 2461DPPC   C1A51221  22.410   8.540  25.810
 2461DPPC   C2A51222  22.180   8.210  25.560
 2461DPPC   C3A51223  22.160   7.860  25.520
 2461DPPC   C4A51224  21.970   7.540  25.390
 2461DPPC   C1B51225  21.970   8.630  25.720
 2461DPPC   C2B51226  21.680   8.300  25.680
 2461DPPC   C3B51227  21.630   8.020  25.410
 2461DPPC   C4B51228  21.340   8.180  25.090
 2462DPPC   NC351229  21.800   3.870  33.630
 2462DPPC   PO451230  21.850   3.800  34.140
 2462DPPC   GL151231  21.630   4.200  34.080
 2462DPPC   GL251232  21.310   4.280  34.320
 2462DPPC   C1A51233  21.620   4.610  34.030
 2462DPPC   C2A51234  21.750   4.980  33.800
 2462DPPC   C3A51235  21.920   5.460  33.750
 2462DPPC   C4A51236  22.270   5.640  33.620
 2462DPPC   C1B51237  21.380   4.680  34.440
 2462DPPC   C2B51238  21.500   5.120  34.240
 2462DPPC   C3B51239  21.700   5.580  34.210
 2462DPPC   C4B51240  21.800   5.930  33.870
 2463DPPC   NC351241  17.950  24.160  27.920
 2463DPPC   PO451242  17.570  24.250  27.710
 2463DPPC   GL151243  17.360  24.710  27.680
 2463DPPC   GL251244  17.340  24.960  28.030
 2463DPPC   C1A51245  17.110  25.060  27.630
 2463DPPC   C2A51246  17.070  25.370  27.690
 2463DPPC   C3A51247  17.050  25.650  28.090
 2463DPPC   C4A51248  16.690  25.810  28.360
 2463DPPC   C1B51249  17.300  25.330  28.420
 2463DPPC   C2B51250  17.020  25.560  28.610
 2463DPPC   C3B51251  16.670  25.480  28.670
 2463DPPC   C4B51252  16.340  25.660  28.900
 2464DPPC   NC351253  22.590  21.590  28.050
 2464DPPC   PO451254  22.900  21.550  28.310
 2464DPPC   GL151255  22.940  21.870  28.050
 2464DPPC   GL251256  22.740  22.220  28.030
 2464DPPC   C1A51257  23.170  22.090  27.780
 2464DPPC   C2A51258  23.510  22.280  27.710
 2464DPPC   C3A51259  23.710  22.560  27.700
 2464DPPC   C4A51260  24.190  22.620  27.850
 2464DPPC   C1B51261  23.140  22.520  28.010
 2464DPPC   C2B51262  23.370  22.880  27.930
 2464DPPC   C3B51263  23.340  23.280  27.810
 2464DPPC   C4B51264  23.220  23.480  27.500
 2465DPPC   NC351265  14.200  19.570  25.230
 2465DPPC   PO451266  14.310  19.620  25.650
 2465DPPC   GL151267  13.860  19.850  25.570
 2465DPPC   GL251268  13.810  19.880  25.260
 2465DPPC   C1A51269  13.430  19.950  25.660
 2465DPPC   C2A51270  12.880  19.870  25.710
 2465DPPC   C3A51271  12.380  19.750  25.760
 2465DPPC   C4A51272  11.940  19.790  25.590
 2465DPPC   C1B51273  13.500  19.920  24.920
 2465DPPC   C2B51274  13.200  19.780  24.570
 2465DPPC   C3B51275  13.290  19.860  24.110
 2465DPPC   C4B51276  13.600  19.900  23.720
 2466DPPC   NC351277  19.900   5.410  38.140
 2466DPPC   PO451278  20.280   5.390  37.930
 2466DPPC   GL151279  20.350   5.600  37.640
 2466DPPC   GL251280  20.550   5.490  37.360
 2466DPPC   C1A51281  20.370   6.100  37.620
 2466DPPC   C2A51282  20.640   6.380  37.920
 2466DPPC   C3A51283  20.630   6.760  38.160
 2466DPPC   C4A51284  20.370   6.790  38.520
 2466DPPC   C1B51285  20.860   5.860  37.480
 2466DPPC   C2B51286  21.070   6.200  37.320
 2466DPPC   C3B51287  21.160   6.620  37.100
 2466DPPC   C4B51288  21.190   6.990  36.830
 2467DPPC   NC351289  24.290  16.920  21.900
 2467DPPC   PO451290  24.520  16.510  22.120
 2467DPPC   GL151291  24.630  16.610  21.770
 2467DPPC   GL251292  25.000  16.480  21.800
 2467DPPC   C1A51293  24.660  16.640  21.310
 2467DPPC   C2A51294  24.940  16.680  21.050
 2467DPPC   C3A51295  25.270  16.910  21.040
 2467DPPC   C4A51296  25.660  17.000  21.010
 2467DPPC   C1B51297  25.170  16.480  21.420
 2467DPPC   C2B51298  25.380  16.380  21.040
 2467DPPC   C3B51299  25.740  16.590  20.740
 2467DPPC   C4B51300  26.130  16.610  20.600
 2468DPPC   NC351301  18.590  12.640  45.940
 2468DPPC   PO451302  18.560  12.450  45.530
 2468DPPC   GL151303  18.900  12.490  45.210
 2468DPPC   GL251304  19.280  12.510  45.270
 2468DPPC   C1A51305  19.200  12.530  44.770
 2468DPPC   C2A51306  19.280  12.670  44.350
 2468DPPC   C3A51307  19.270  12.950  44.160
 2468DPPC   C4A51308  19.420  13.320  44.180
 2468DPPC   C1B51309  19.590  12.690  45.070
 2468DPPC   C2B51310  19.620  12.950  44.780
 2468DPPC   C3B51311  19.460  13.380  44.730
 2468DPPC   C4B51312  19.390  13.730  44.450
 2469DPPC   NC351313  13.040   0.010  25.100
 2469DPPC   PO451314  13.080  26.080  25.420
 2469DPPC   GL151315  13.310  25.790  25.670
 2469DPPC   GL251316  13.420  25.870  26.010
 2469DPPC   C1A51317  13.810  25.650  25.750
 2469DPPC   C2A51318  14.210  25.550  26.020
 2469DPPC   C3A51319  14.650  25.340  26.180
 2469DPPC   C4A51320  15.080  25.450  26.150
 2469DPPC   C1B51321  13.430  25.360  26.040
 2469DPPC   C2B51322  13.120  24.990  26.110
 2469DPPC   C3B51323  13.120  24.540  26.110
 2469DPPC   C4B51324  12.960  24.240  26.000
 2470DPPC   NC351325  23.470  25.660  41.190
 2470DPPC   PO451326  23.690  25.900  40.950
 2470DPPC   GL151327  23.460  25.500  40.740
 2470DPPC   GL251328  23.480  25.570  40.380
 2470DPPC   C1A51329  23.460  25.100  40.410
 2470DPPC   C2A51330  23.400  24.920  40.040
 2470DPPC   C3A51331  23.260  24.520  39.900
 2470DPPC   C4A51332  23.190  24.130  39.670
 2470DPPC   C1B51333  23.330  25.530  39.970
 2470DPPC   C2B51334  23.050  25.250  39.750
 2470DPPC   C3B51335  22.800  24.900  39.850
 2470DPPC   C4B51336  22.360  24.640  39.960
 2471DPPC   NC351337   9.180  18.210  33.560
 2471DPPC   PO451338   9.040  17.790  33.360
 2471DPPC   GL151339   9.530  17.850  33.370
 2471DPPC   GL251340   9.650  18.090  33.670
 2471DPPC   C1A51341   9.840  18.120  33.180
 2471DPPC   C2A51342  10.310  18.300  33.100
 2471DPPC   C3A51343  10.730  18.200  33.300
 2471DPPC   C4A51344  11.080  17.850  33.280
 2471DPPC   C1B51345  10.000  18.490  33.590
 2471DPPC   C2B51346  10.520  18.610  33.570
 2471DPPC   C3B51347  10.840  18.770  33.270
 2471DPPC   C4B51348  11.240  18.690  32.970
 2472DPPC   NC351349  28.655   4.290  32.600
 2472DPPC   PO451350  28.825   4.540  32.170
 2472DPPC   GL151351  28.515   4.790  32.110
 2472DPPC   GL251352  28.705   5.120  32.140
 2472DPPC   C1A51353  28.245   5.100  32.360
 2472DPPC   C2A51354  27.885   5.280  32.670
 2472DPPC   C3A51355  27.625   5.480  32.790
 2472DPPC   C4A51356  27.485   5.740  33.030
 2472DPPC   C1B51357  28.455   5.290  31.960
 2472DPPC   C2B51358  28.255   5.640  31.820
 2472DPPC   C3B51359  28.105   6.030  31.660
 2472DPPC   C4B51360  28.255   6.310  31.380
 2473DPPC   NC351361  23.480  12.060  46.960
 2473DPPC   PO451362  23.270  11.810  46.610
 2473DPPC   GL151363  23.500  11.780  46.220
 2473DPPC   GL251364  23.340  11.680  45.980
 2473DPPC   C1A51365  23.640  12.090  46.040
 2473DPPC   C2A51366  23.570  12.460  45.700
 2473DPPC   C3A51367  23.490  12.470  45.230
 2473DPPC   C4A51368  23.510  12.590  44.780
 2473DPPC   C1B51369  23.340  11.460  45.620
 2473DPPC   C2B51370  23.200  11.320  45.240
 2473DPPC   C3B51371  22.960  11.500  44.940
 2473DPPC   C4B51372  23.070  11.800  44.670
 2474DPPC   NC351373  28.405  11.970  20.010
 2474DPPC   PO451374  28.225  12.270  20.350
 2474DPPC   GL151375  27.985  12.390  20.650
 2474DPPC   GL251376  27.995  12.090  20.900
 2474DPPC   C1A51377  27.945  12.660  20.960
 2474DPPC   C2A51378  27.925  12.880  21.330
 2474DPPC   C3A51379  27.555  12.950  21.490
 2474DPPC   C4A51380  27.105  12.980  21.340
 2474DPPC   C1B51381  27.655  12.250  21.100
 2474DPPC   C2B51382  27.565  12.460  21.430
 2474DPPC   C3B51383  27.185  12.640  21.700
 2474DPPC   C4B51384  27.105  12.930  21.900
 2475DPPC   NC351385  15.480   7.510  34.020
 2475DPPC   PO451386  15.760   7.680  34.360
 2475DPPC   GL151387  16.070   7.940  34.360
 2475DPPC   GL251388  16.100   8.060  34.140
 2475DPPC   C1A51389  16.440   8.220  34.530
 2475DPPC   C2A51390  16.800   8.610  34.560
 2475DPPC   C3A51391  17.140   8.850  34.420
 2475DPPC   C4A51392  17.280   9.270  34.460
 2475DPPC   C1B51393  16.370   8.350  34.000
 2475DPPC   C2B51394  16.650   8.680  34.030
 2475DPPC   C3B51395  16.700   9.110  34.200
 2475DPPC   C4B51396  16.880   9.430  34.170
 2476DPPC   NC351397  32.855   7.660  31.220
 2476DPPC   PO451398  32.985   7.930  30.880
 2476DPPC   GL151399  32.695   8.170  31.170
 2476DPPC   GL251400  32.615   8.020  31.500
 2476DPPC   C1A51401  32.235   8.170  31.200
 2476DPPC   C2A51402  31.845   8.220  31.450
 2476DPPC   C3A51403  31.455   8.350  31.420
 2476DPPC   C4A51404  31.125   8.330  31.180
 2476DPPC   C1B51405  32.705   8.060  31.910
 2476DPPC   C2B51406  32.465   8.040  32.280
 2476DPPC   C3B51407  32.045   7.970  32.360
 2476DPPC   C4B51408  31.765   7.740  32.590
 2477DPPC   NC351409  27.385  20.060  20.800
 2477DPPC   PO451410  27.435  20.390  21.140
 2477DPPC   GL151411  27.195  20.020  21.320
 2477DPPC   GL251412  26.865  20.050  21.560
 2477DPPC   C1A51413  27.185  19.670  21.370
 2477DPPC   C2A51414  27.185  19.330  21.590
 2477DPPC   C3A51415  27.105  18.950  21.610
 2477DPPC   C4A51416  26.935  18.620  21.480
 2477DPPC   C1B51417  26.495  19.830  21.730
 2477DPPC   C2B51418  26.250  19.540  21.900
 2477DPPC   C3B51419  26.340  19.080  22.110
 2477DPPC   C4B51420  26.400  18.710  22.370
 2478DPPC   NC351421  21.110  17.080  17.040
 2478DPPC   PO451422  20.830  17.450  17.100
 2478DPPC   GL151423  20.740  17.330  17.520
 2478DPPC   GL251424  20.930  17.570  17.600
 2478DPPC   C1A51425  20.640  17.150  17.930
 2478DPPC   C2A51426  20.570  17.260  18.430
 2478DPPC   C3A51427  20.620  17.540  18.740
 2478DPPC   C4A51428  20.490  17.490  19.240
 2478DPPC   C1B51429  20.520  17.800  17.750
 2478DPPC   C2B51430  20.370  18.240  17.920
 2478DPPC   C3B51431  20.330  18.690  17.760
 2478DPPC   C4B51432  20.200  19.030  18.010
 2479DPPC   NC351433  15.420  14.950  44.570
 2479DPPC   PO451434  15.810  14.910  44.650
 2479DPPC   GL151435  16.150  15.110  44.430
 2479DPPC   GL251436  16.490  15.270  44.550
 2479DPPC   C1A51437  16.150  15.380  44.170
 2479DPPC   C2A51438  15.890  15.570  43.780
 2479DPPC   C3A51439  16.050  15.780  43.400
 2479DPPC   C4A51440  16.390  15.960  43.140
 2479DPPC   C1B51441  16.910  15.180  44.490
 2479DPPC   C2B51442  17.170  15.010  44.170
 2479DPPC   C3B51443  17.450  14.640  44.070
 2479DPPC   C4B51444  17.570  14.290  43.930
 2480DPPC   NC351445  27.235  12.020  25.720
 2480DPPC   PO451446  27.345  12.180  25.350
 2480DPPC   GL151447  27.755  12.300  25.200
 2480DPPC   GL251448  27.855  11.940  25.220
 2480DPPC   C1A51449  28.195  12.220  25.040
 2480DPPC   C2A51450  28.435  12.120  24.830
 2480DPPC   C3A51451  28.755  12.190  24.670
 2480DPPC   C4A51452  29.155  12.420  24.570
 2480DPPC   C1B51453  28.015  11.800  24.790
 2480DPPC   C2B51454  28.235  12.050  24.410
 2480DPPC   C3B51455  28.175  12.140  24.040
 2480DPPC   C4B51456  28.415  11.930  23.820
 2481DPPC   NC351457  18.920  20.060  41.680
 2481DPPC   PO451458  18.500  20.180  41.510
 2481DPPC   GL151459  18.460  20.300  41.930
 2481DPPC   GL251460  18.230  20.090  42.090
 2481DPPC   C1A51461  18.520  20.500  42.400
 2481DPPC   C2A51462  18.360  20.870  42.550
 2481DPPC   C3A51463  18.090  21.170  42.760
 2481DPPC   C4A51464  17.910  21.480  42.880
 2481DPPC   C1B51465  17.970  20.350  42.410
 2481DPPC   C2B51466  17.780  20.490  42.780
 2481DPPC   C3B51467  17.630  20.860  42.900
 2481DPPC   C4B51468  17.310  21.090  43.050
 2482DPPC   NC351469  21.530  17.050  21.040
 2482DPPC   PO451470  21.980  17.120  21.140
 2482DPPC   GL151471  22.060  17.000  20.740
 2482DPPC   GL251472  21.790  16.800  20.670
 2482DPPC   C1A51473  22.270  17.140  20.300
 2482DPPC   C2A51474  22.510  17.430  20.100
 2482DPPC   C3A51475  22.830  17.660  19.960
 2482DPPC   C4A51476  23.320  17.870  20.060
 2482DPPC   C1B51477  21.770  17.000  20.240
 2482DPPC   C2B51478  22.010  17.290  19.900
 2482DPPC   C3B51479  22.190  17.750  19.900
 2482DPPC   C4B51480  22.320  17.850  19.540
 2483DPPC   NC351481  22.490  21.610  30.840
 2483DPPC   PO451482  22.530  21.220  31.100
 2483DPPC   GL151483  23.030  21.150  31.040
 2483DPPC   GL251484  23.140  20.770  31.060
 2483DPPC   C1A51485  23.440  21.500  31.050
 2483DPPC   C2A51486  23.620  21.860  30.990
 2483DPPC   C3A51487  23.930  22.130  31.120
 2483DPPC   C4A51488  24.280  21.980  31.020
 2483DPPC   C1B51489  23.500  20.820  31.090
 2483DPPC   C2B51490  23.940  20.630  31.200
 2483DPPC   C3B51491  24.170  20.430  31.430
 2483DPPC   C4B51492  24.620  20.140  31.460
 2484DPPC   NC351493  22.610  22.430  28.780
 2484DPPC   PO451494  22.700  22.560  29.160
 2484DPPC   GL151495  23.150  22.790  29.140
 2484DPPC   GL251496  23.390  22.520  29.180
 2484DPPC   C1A51497  23.550  22.990  29.040
 2484DPPC   C2A51498  23.750  23.130  28.730
 2484DPPC   C3A51499  23.990  23.190  28.440
 2484DPPC   C4A51500  24.350  23.460  28.340
 2484DPPC   C1B51501  23.610  22.510  28.820
 2484DPPC   C2B51502  24.000  22.730  28.690
 2484DPPC   C3B51503  24.280  23.080  28.820
 2484DPPC   C4B51504  24.120  23.480  28.830
 2485DPPC   NC351505  30.655  11.480  42.830
 2485DPPC   PO451506  30.825  11.520  42.490
 2485DPPC   GL151507  30.425  11.560  42.210
 2485DPPC   GL251508  30.295  11.640  42.010
 2485DPPC   C1A51509  30.325  11.070  41.960
 2485DPPC   C2A51510  30.165  11.000  41.570
 2485DPPC   C3A51511  29.895  10.790  41.250
 2485DPPC   C4A51512  29.705  10.860  40.890
 2485DPPC   C1B51513  29.935  11.620  41.720
 2485DPPC   C2B51514  29.645  11.700  41.360
 2485DPPC   C3B51515  29.585  11.750  40.950
 2485DPPC   C4B51516  29.265  11.540  40.700
 2486DPPC   NC351517   9.730  20.750  24.690
 2486DPPC   PO451518  10.050  20.390  24.920
 2486DPPC   GL151519  10.500  20.370  24.720
 2486DPPC   GL251520  10.590  20.650  24.950
 2486DPPC   C1A51521  10.900  20.650  24.610
 2486DPPC   C2A51522  11.060  20.950  24.280
 2486DPPC   C3A51523  11.330  21.290  24.120
 2486DPPC   C4A51524  11.750  21.530  24.030
 2486DPPC   C1B51525  10.840  20.350  25.110
 2486DPPC   C2B51526  11.100  20.000  25.240
 2486DPPC   C3B51527  11.550  19.840  25.290
 2486DPPC   C4B51528  11.750  19.480  25.230
 2487DPPC   NC351529  19.940  15.730  22.200
 2487DPPC   PO451530  19.950  15.570  21.720
 2487DPPC   GL151531  19.630  15.450  21.530
 2487DPPC   GL251532  19.480  15.720  21.490
 2487DPPC   C1A51533  19.200  15.400  21.250
 2487DPPC   C2A51534  19.120  15.090  21.010
 2487DPPC   C3A51535  19.260  14.980  20.640
 2487DPPC   C4A51536  19.410  14.830  20.270
 2487DPPC   C1B51537  19.630  15.680  21.050
 2487DPPC   C2B51538  19.550  15.540  20.710
 2487DPPC   C3B51539  19.310  15.430  20.360
 2487DPPC   C4B51540  19.060  15.210  20.100
 2488DPPC   NC351541  22.290  11.680  46.420
 2488DPPC   PO451542  22.450  12.070  46.300
 2488DPPC   GL151543  22.360  12.160  45.870
 2488DPPC   GL251544  22.440  12.490  45.780
 2488DPPC   C1A51545  22.310  11.940  45.560
 2488DPPC   C2A51546  21.840  11.810  45.500
 2488DPPC   C3A51547  21.530  11.980  45.450
 2488DPPC   C4A51548  21.490  12.330  45.690
 2488DPPC   C1B51549  22.380  12.560  45.380
 2488DPPC   C2B51550  22.210  12.720  45.040
 2488DPPC   C3B51551  22.160  12.880  44.610
 2488DPPC   C4B51552  22.510  13.060  44.340
 2489DPPC   NC351553  14.320  22.610  31.630
 2489DPPC   PO451554  14.010  22.860  31.880
 2489DPPC   GL151555  13.750  23.090  32.090
 2489DPPC   GL251556  13.800  23.360  32.350
 2489DPPC   C1A51557  13.340  23.290  32.150
 2489DPPC   C2A51558  12.970  23.180  32.070
 2489DPPC   C3A51559  12.560  23.310  32.220
 2489DPPC   C4A51560  12.340  23.460  32.510
 2489DPPC   C1B51561  13.530  23.720  32.510
 2489DPPC   C2B51562  13.220  23.920  32.670
 2489DPPC   C3B51563  12.910  24.270  32.580
 2489DPPC   C4B51564  12.720  24.740  32.520
 2490DPPC   NC351565  13.800   8.480  34.490
 2490DPPC   PO451566  14.210   8.610  34.480
 2490DPPC   GL151567  14.530   8.910  34.200
 2490DPPC   GL251568  14.570   9.040  33.860
 2490DPPC   C1A51569  14.810   9.180  34.290
 2490DPPC   C2A51570  15.000   9.580  34.170
 2490DPPC   C3A51571  14.820   9.920  34.300
 2490DPPC   C4A51572  14.690  10.270  34.280
 2490DPPC   C1B51573  14.870   9.200  33.690
 2490DPPC   C2B51574  15.280   9.430  33.480
 2490DPPC   C3B51575  15.600   9.870  33.410
 2490DPPC   C4B51576  16.000   9.830  33.440
 2491DPPC   NC351577  14.330  22.340  29.020
 2491DPPC   PO451578  14.060  22.390  29.350
 2491DPPC   GL151579  13.700  22.740  29.160
 2491DPPC   GL251580  13.470  22.610  28.950
 2491DPPC   C1A51581  13.530  23.110  29.050
 2491DPPC   C2A51582  13.200  23.350  28.990
 2491DPPC   C3A51583  12.870  23.560  29.120
 2491DPPC   C4A51584  12.620  23.800  29.420
 2491DPPC   C1B51585  13.030  22.760  28.690
 2491DPPC   C2B51586  12.660  22.920  28.510
 2491DPPC   C3B51587  12.530  23.280  28.370
 2491DPPC   C4B51588  12.120  23.360  28.320
 2492DPPC   NC351589  22.090  16.820  30.150
 2492DPPC   PO451590  22.010  16.830  30.530
 2492DPPC   GL151591  22.240  17.170  30.670
 2492DPPC   GL251592  22.330  17.070  31.040
 2492DPPC   C1A51593  22.640  17.420  30.570
 2492DPPC   C2A51594  22.960  17.380  30.280
 2492DPPC   C3A51595  22.910  17.530  29.950
 2492DPPC   C4A51596  23.230  17.610  29.690
 2492DPPC   C1B51597  22.690  17.240  31.110
 2492DPPC   C2B51598  23.080  17.540  31.040
 2492DPPC   C3B51599  23.340  17.880  31.020
 2492DPPC   C4B51600  23.590  18.130  31.260
 2493DPPC   NC351601  25.560  19.940  35.650
 2493DPPC   PO451602  25.380  19.740  35.330
 2493DPPC   GL151603  25.700  20.150  35.260
 2493DPPC   GL251604  25.630  20.340  34.990
 2493DPPC   C1A51605  25.710  20.510  35.440
 2493DPPC   C2A51606  25.670  20.870  35.400
 2493DPPC   C3A51607  25.780  21.250  35.550
 2493DPPC   C4A51608  25.930  21.690  35.350
 2493DPPC   C1B51609  26.050  20.450  34.890
 2493DPPC   C2B51610  26.440  20.700  35.030
 2493DPPC   C3B51611  26.735  21.030  34.900
 2493DPPC   C4B51612  26.905  21.060  34.580
 2494DPPC   NC351613  29.495   4.650  35.480
 2494DPPC   PO451614  29.855   4.830  35.140
 2494DPPC   GL151615  29.685   5.230  35.210
 2494DPPC   GL251616  29.745   5.520  35.240
 2494DPPC   C1A51617  29.275   5.420  35.030
 2494DPPC   C2A51618  28.945   5.720  34.840
 2494DPPC   C3A51619  28.975   6.170  34.710
 2494DPPC   C4A51620  28.845   6.470  34.410
 2494DPPC   C1B51621  29.505   6.020  35.230
 2494DPPC   C2B51622  29.245   6.320  35.200
 2494DPPC   C3B51623  29.145   6.660  34.850
 2494DPPC   C4B51624  29.005   7.050  34.570
 2495DPPC   NC351625  28.215  10.820  26.640
 2495DPPC   PO451626  28.265  11.060  26.930
 2495DPPC   GL151627  28.685  10.990  26.770
 2495DPPC   GL251628  28.705  10.850  26.480
 2495DPPC   C1A51629  29.115  11.210  26.720
 2495DPPC   C2A51630  29.545  11.140  26.690
 2495DPPC   C3A51631  29.775  11.270  26.370
 2495DPPC   C4A51632  29.905  11.070  25.990
 2495DPPC   C1B51633  29.055  10.660  26.140
 2495DPPC   C2B51634  29.395  10.500  25.940
 2495DPPC   C3B51635  29.705  10.610  25.690
 2495DPPC   C4B51636  30.025  10.840  25.490
 2496DPPC   NC351637  11.080  19.680  22.720
 2496DPPC   PO451638  11.000  20.130  22.780
 2496DPPC   GL151639  11.420  20.060  23.010
 2496DPPC   GL251640  11.390  20.030  23.330
 2496DPPC   C1A51641  11.910  20.360  23.100
 2496DPPC   C2A51642  12.370  20.470  23.360
 2496DPPC   C3A51643  12.600  20.160  23.530
 2496DPPC   C4A51644  12.910  19.940  23.830
 2496DPPC   C1B51645  11.840  20.090  23.510
 2496DPPC   C2B51646  12.160  20.280  23.700
 2496DPPC   C3B51647  12.470  20.080  24.080
 2496DPPC   C4B51648  12.730  19.670  24.150
 2497DPPC   NC351649  22.930  19.660  24.150
 2497DPPC   PO451650  23.350  19.950  24.160
 2497DPPC   GL151651  23.550  20.170  23.950
 2497DPPC   GL251652  23.430  20.320  23.670
 2497DPPC   C1A51653  23.940  20.370  23.860
 2497DPPC   C2A51654  24.290  20.690  23.730
 2497DPPC   C3A51655  24.550  21.010  23.830
 2497DPPC   C4A51656  24.900  20.960  24.190
 2497DPPC   C1B51657  23.540  20.720  23.730
 2497DPPC   C2B51658  23.890  21.000  23.540
 2497DPPC   C3B51659  24.100  21.450  23.550
 2497DPPC   C4B51660  24.470  21.510  23.740
 2498DPPC   NC351661  19.370  24.120  28.290
 2498DPPC   PO451662  19.210  24.610  28.170
 2498DPPC   GL151663  19.020  24.930  27.970
 2498DPPC   GL251664  18.820  25.000  27.660
 2498DPPC   C1A51665  19.230  25.280  28.020
 2498DPPC   C2A51666  19.640  25.520  28.000
 2498DPPC   C3A51667  19.970  25.880  27.880
 2498DPPC   C4A51668  20.450  26.020  28.030
 2498DPPC   C1B51669  18.740  25.410  27.840
 2498DPPC   C2B51670  18.390  25.650  27.990
 2498DPPC   C3B51671  18.070  25.950  28.260
 2498DPPC   C4B51672  17.990  26.000  28.680
 2499DPPC   NC351673  26.675  12.000  40.700
 2499DPPC   PO451674  26.545  12.350  41.100
 2499DPPC   GL151675  26.865  12.200  41.340
 2499DPPC   GL251676  27.105  12.390  41.410
 2499DPPC   C1A51677  27.035  11.920  41.720
 2499DPPC   C2A51678  27.085  11.610  42.070
 2499DPPC   C3A51679  27.375  11.510  42.290
 2499DPPC   C4A51680  27.825  11.730  42.100
 2499DPPC   C1B51681  27.405  12.280  41.670
 2499DPPC   C2B51682  27.695  12.290  41.860
 2499DPPC   C3B51683  28.205  12.320  41.830
 2499DPPC   C4B51684  28.355  11.870  41.970
 2500DPPC   NC351685  16.800   6.990  27.850
 2500DPPC   PO451686  17.000   6.930  27.560
 2500DPPC   GL151687  17.210   7.230  27.310
 2500DPPC   GL251688  16.900   7.390  27.390
 2500DPPC   C1A51689  17.470   7.500  27.080
 2500DPPC   C2A51690  17.880   7.640  26.870
 2500DPPC   C3A51691  18.160   7.920  26.690
 2500DPPC   C4A51692  18.550   7.980  26.920
 2500DPPC   C1B51693  17.130   7.750  27.370
 2500DPPC   C2B51694  17.500   7.790  27.570
 2500DPPC   C3B51695  17.920   7.820  27.370
 2500DPPC   C4B51696  18.320   7.970  27.360
 2501DPPC   NC351697  26.370   7.670  29.700
 2501DPPC   PO451698  26.230   7.670  30.040
 2501DPPC   GL151699  26.320   7.200  30.030
 2501DPPC   GL251700  26.440   7.170  29.650
 2501DPPC   C1A51701  26.350   6.770  30.200
 2501DPPC   C2A51702  26.515   6.280  30.270
 2501DPPC   C3A51703  26.555   5.830  30.470
 2501DPPC   C4A51704  26.635   5.840  30.920
 2501DPPC   C1B51705  26.635   6.870  29.410
 2501DPPC   C2B51706  26.705   6.670  28.940
 2501DPPC   C3B51707  26.885   6.500  28.560
 2501DPPC   C4B51708  26.895   6.110  28.470
 2502DPPC   NC351709  14.190   1.350  36.050
 2502DPPC   PO451710  14.530   1.670  35.850
 2502DPPC   GL151711  14.580   1.230  35.800
 2502DPPC   GL251712  14.790   1.170  35.530
 2502DPPC   C1A51713  14.580   0.740  35.790
 2502DPPC   C2A51714  14.210   0.430  35.940
 2502DPPC   C3A51715  13.870   0.030  35.960
 2502DPPC   C4A51716  13.550  26.300  35.750
 2502DPPC   C1B51717  15.060   0.890  35.560
 2502DPPC   C2B51718  15.000   0.540  35.800
 2502DPPC   C3B51719  15.170   0.140  35.750
 2502DPPC   C4B51720  15.140  26.190  35.730
 2503DPPC   NC351721  28.385  15.170  29.590
 2503DPPC   PO451722  28.425  15.280  29.920
 2503DPPC   GL151723  28.765  15.640  29.980
 2503DPPC   GL251724  28.675  15.800  30.210
 2503DPPC   C1A51725  29.085  15.920  29.860
 2503DPPC   C2A51726  29.465  16.210  29.850
 2503DPPC   C3A51727  29.665  16.550  29.590
 2503DPPC   C4A51728  29.715  16.900  29.280
 2503DPPC   C1B51729  29.055  15.920  30.390
 2503DPPC   C2B51730  29.345  16.150  30.380
 2503DPPC   C3B51731  29.675  16.290  30.590
 2503DPPC   C4B51732  30.045  16.380  30.350
 2504DPPC   NC351733  30.455  15.720  43.000
 2504DPPC   PO451734  30.835  15.600  42.830
 2504DPPC   GL151735  30.615  15.750  42.430
 2504DPPC   GL251736  30.415  15.960  42.370
 2504DPPC   C1A51737  30.535  15.620  42.040
 2504DPPC   C2A51738  30.155  15.550  41.990
 2504DPPC   C3A51739  29.595  15.550  42.110
 2504DPPC   C4A51740  29.165  15.600  42.200
 2504DPPC   C1B51741  29.905  15.900  42.350
 2504DPPC   C2B51742  29.455  16.040  42.150
 2504DPPC   C3B51743  29.025  16.060  42.040
 2504DPPC   C4B51744  28.745  15.820  41.940
 2505DPPC   NC351745  23.950  15.860  31.180
 2505DPPC   PO451746  23.960  16.020  30.760
 2505DPPC   GL151747  23.940  16.370  31.040
 2505DPPC   GL251748  24.180  16.590  31.150
 2505DPPC   C1A51749  23.690  16.780  31.080
 2505DPPC   C2A51750  23.680  16.980  31.500
 2505DPPC   C3A51751  23.630  17.400  31.860
 2505DPPC   C4A51752  23.640  17.430  32.350
 2505DPPC   C1B51753  24.180  17.010  30.920
 2505DPPC   C2B51754  24.360  17.350  30.790
 2505DPPC   C3B51755  24.560  17.760  30.960
 2505DPPC   C4B51756  24.570  18.260  30.930
 2506DPPC   NC351757  22.110  20.140  18.120
 2506DPPC   PO451758  22.350  20.330  18.360
 2506DPPC   GL151759  22.310  20.030  18.600
 2506DPPC   GL251760  22.140  19.830  18.550
 2506DPPC   C1A51761  22.150  20.120  19.070
 2506DPPC   C2A51762  21.900  20.330  19.370
 2506DPPC   C3A51763  21.830  20.400  19.790
 2506DPPC   C4A51764  21.610  20.320  20.130
 2506DPPC   C1B51765  22.450  19.440  18.680
 2506DPPC   C2B51766  22.530  19.260  19.030
 2506DPPC   C3B51767  22.430  19.050  19.350
 2506DPPC   C4B51768  22.460  18.720  19.740
 2507DPPC   NC351769  24.130   0.150  31.130
 2507DPPC   PO451770  23.970   0.340  31.380
 2507DPPC   GL151771  23.680  26.445  31.330
 2507DPPC   GL251772  23.640  26.200  31.070
 2507DPPC   C1A51773  23.190  26.270  31.370
 2507DPPC   C2A51774  22.790  26.090  31.350
 2507DPPC   C3A51775  22.480  25.970  31.180
 2507DPPC   C4A51776  22.120  26.260  31.070
 2507DPPC   C1B51777  23.560  25.780  30.950
 2507DPPC   C2B51778  23.340  25.470  30.920
 2507DPPC   C3B51779  23.410  25.030  30.930
 2507DPPC   C4B51780  23.320  24.540  30.800
 2508DPPC   NC351781  22.460  16.680  21.530
 2508DPPC   PO451782  22.660  16.350  21.240
 2508DPPC   GL151783  22.570  16.470  20.800
 2508DPPC   GL251784  22.220  16.460  20.700
 2508DPPC   C1A51785  22.770  16.720  20.440
 2508DPPC   C2A51786  22.660  16.970  20.060
 2508DPPC   C3A51787  22.860  17.210  19.730
 2508DPPC   C4A51788  23.230  17.470  19.520
 2508DPPC   C1B51789  22.230  16.580  20.260
 2508DPPC   C2B51790  22.190  16.820  19.850
 2508DPPC   C3B51791  22.160  17.100  19.490
 2508DPPC   C4B51792  22.450  17.390  19.580
 2509DPPC   NC351793  21.300   4.430  29.100
 2509DPPC   PO451794  21.520   4.080  29.220
 2509DPPC   GL151795  21.790   4.390  29.320
 2509DPPC   GL251796  21.630   4.630  29.460
 2509DPPC   C1A51797  22.180   4.480  29.320
 2509DPPC   C2A51798  22.480   4.660  29.520
 2509DPPC   C3A51799  22.590   5.050  29.410
 2509DPPC   C4A51800  22.650   5.530  29.280
 2509DPPC   C1B51801  21.600   5.090  29.320
 2509DPPC   C2B51802  21.690   5.580  29.240
 2509DPPC   C3B51803  21.930   5.760  29.060
 2509DPPC   C4B51804  21.920   6.230  28.920
 2510DPPC   NC351805  28.035   4.170  28.010
 2510DPPC   PO451806  27.825   4.400  27.750
 2510DPPC   GL151807  27.725   4.690  28.010
 2510DPPC   GL251808  27.615   4.980  27.820
 2510DPPC   C1A51809  27.485   4.900  28.400
 2510DPPC   C2A51810  27.245   5.270  28.550
 2510DPPC   C3A51811  27.235   5.630  28.610
 2510DPPC   C4A51812  27.195   6.050  28.890
 2510DPPC   C1B51813  27.695   5.290  28.040
 2510DPPC   C2B51814  27.415   5.580  28.160
 2510DPPC   C3B51815  27.205   5.970  28.060
 2510DPPC   C4B51816  27.195   6.360  28.200
 2511DPPC   NC351817  20.210  12.700  23.380
 2511DPPC   PO451818  20.310  12.300  23.390
 2511DPPC   GL151819  20.100  11.960  23.330
 2511DPPC   GL251820  19.760  12.020  23.500
 2511DPPC   C1A51821  20.000  11.700  22.980
 2511DPPC   C2A51822  20.060  11.650  22.540
 2511DPPC   C3A51823  20.330  11.380  22.270
 2511DPPC   C4A51824  20.500  11.110  21.950
 2511DPPC   C1B51825  19.600  11.910  23.080
 2511DPPC   C2B51826  19.520  11.610  22.780
 2511DPPC   C3B51827  19.580  11.200  22.620
 2511DPPC   C4B51828  19.360  10.780  22.520
 2512DPPC   NC351829  29.705  20.660  26.810
 2512DPPC   PO451830  29.485  20.280  27.040
 2512DPPC   GL151831  29.185  20.020  27.360
 2512DPPC   GL251832  29.115  19.980  27.720
 2512DPPC   C1A51833  28.935  19.560  27.330
 2512DPPC   C2A51834  28.655  19.210  27.380
 2512DPPC   C3A51835  28.415  18.810  27.340
 2512DPPC   C4A51836  27.995  18.750  27.260
 2512DPPC   C1B51837  28.725  20.060  27.540
 2512DPPC   C2B51838  28.385  20.200  27.960
 2512DPPC   C3B51839  28.285  20.070  28.350
 2512DPPC   C4B51840  28.625  20.000  28.630
 2513DPPC   NC351841  19.200  24.530  27.680
 2513DPPC   PO451842  19.540  24.380  27.860
 2513DPPC   GL151843  19.560  24.890  27.820
 2513DPPC   GL251844  19.360  25.000  27.520
 2513DPPC   C1A51845  19.860  25.180  27.690
 2513DPPC   C2A51846  20.210  25.380  27.730
 2513DPPC   C3A51847  20.490  25.660  27.610
 2513DPPC   C4A51848  20.930  25.690  27.690
 2513DPPC   C1B51849  19.220  25.400  27.590
 2513DPPC   C2B51850  18.940  25.780  27.640
 2513DPPC   C3B51851  18.580  26.020  27.710
 2513DPPC   C4B51852  18.180  25.880  27.430
 2514DPPC   NC351853  20.900  12.340  23.080
 2514DPPC   PO451854  20.920  12.630  22.740
 2514DPPC   GL151855  20.520  12.490  22.510
 2514DPPC   GL251856  20.280  12.690  22.420
 2514DPPC   C1A51857  20.180  12.140  22.260
 2514DPPC   C2A51858  19.930  11.770  22.090
 2514DPPC   C3A51859  19.720  11.460  22.130
 2514DPPC   C4A51860  19.490  11.080  22.190
 2514DPPC   C1B51861  20.120  12.740  22.040
 2514DPPC   C2B51862  20.030  12.410  21.780
 2514DPPC   C3B51863  20.170  12.020  21.600
 2514DPPC   C4B51864  19.850  11.630  21.590
 2515DPPC   NC351865  22.600  24.600  20.960
 2515DPPC   PO451866  22.500  24.220  21.130
 2515DPPC   GL151867  22.290  23.940  21.320
 2515DPPC   GL251868  22.370  24.040  21.600
 2515DPPC   C1A51869  22.150  23.520  21.550
 2515DPPC   C2A51870  22.060  23.130  21.740
 2515DPPC   C3A51871  22.160  22.780  21.960
 2515DPPC   C4A51872  22.290  22.380  21.810
 2515DPPC   C1B51873  22.410  23.750  21.860
 2515DPPC   C2B51874  22.270  23.420  22.050
 2515DPPC   C3B51875  22.310  23.090  22.280
 2515DPPC   C4B51876  22.450  22.640  22.300
 2516DPPC   NC351877  22.610   5.300  39.810
 2516DPPC   PO451878  22.290   5.570  39.670
 2516DPPC   GL151879  22.250   5.910  39.420
 2516DPPC   GL251880  22.080   6.210  39.660
 2516DPPC   C1A51881  22.640   6.210  39.280
 2516DPPC   C2A51882  22.960   6.470  39.090
 2516DPPC   C3A51883  23.020   6.670  38.820
 2516DPPC   C4A51884  23.310   6.930  38.680
 2516DPPC   C1B51885  21.970   6.630  39.570
 2516DPPC   C2B51886  21.890   6.920  39.270
 2516DPPC   C3B51887  21.660   7.340  39.170
 2516DPPC   C4B51888  21.380   7.650  39.020
 2517DPPC   NC351889  15.510  15.570  25.560
 2517DPPC   PO451890  15.570  15.340  25.940
 2517DPPC   GL151891  15.160  15.180  25.770
 2517DPPC   GL251892  14.950  15.460  25.720
 2517DPPC   C1A51893  15.080  14.850  25.460
 2517DPPC   C2A51894  15.120  14.890  25.020
 2517DPPC   C3A51895  15.030  14.550  24.720
 2517DPPC   C4A51896  14.860  14.280  24.590
 2517DPPC   C1B51897  14.700  15.180  25.440
 2517DPPC   C2B51898  14.560  14.800  25.490
 2517DPPC   C3B51899  14.290  14.580  25.770
 2517DPPC   C4B51900  14.170  14.140  25.700
 2518DPPC   NC351901  27.815  22.350  27.200
 2518DPPC   PO451902  27.795  21.950  27.040
 2518DPPC   GL151903  27.525  21.630  26.880
 2518DPPC   GL251904  27.365  21.860  26.790
 2518DPPC   C1A51905  27.155  21.470  26.600
 2518DPPC   C2A51906  27.045  21.110  26.550
 2518DPPC   C3A51907  26.915  20.680  26.630
 2518DPPC   C4A51908  26.825  20.280  26.530
 2518DPPC   C1B51909  27.255  21.900  26.340
 2518DPPC   C2B51910  26.985  21.570  26.160
 2518DPPC   C3B51911  26.665  21.450  26.560
 2518DPPC   C4B51912  26.555  21.070  26.670
 2519DPPC   NC351913  15.470  14.720  27.140
 2519DPPC   PO451914  15.260  14.890  27.530
 2519DPPC   GL151915  14.850  14.700  27.550
 2519DPPC   GL251916  15.000  14.400  27.360
 2519DPPC   C1A51917  14.600  14.740  27.170
 2519DPPC   C2A51918  14.250  14.690  26.970
 2519DPPC   C3A51919  14.100  14.460  26.580
 2519DPPC   C4A51920  13.880  14.400  26.120
 2519DPPC   C1B51921  14.510  14.290  27.420
 2519DPPC   C2B51922  14.130  14.250  27.170
 2519DPPC   C3B51923  13.800  14.510  26.970
 2519DPPC   C4B51924  13.620  14.510  26.580
 2520DPPC   NC351925  29.445  16.530  21.470
 2520DPPC   PO451926  29.595  16.170  21.630
 2520DPPC   GL151927  29.215  16.270  21.870
 2520DPPC   GL251928  29.015  16.190  21.610
 2520DPPC   C1A51929  29.065  16.540  22.280
 2520DPPC   C2A51930  28.705  16.450  22.530
 2520DPPC   C3A51931  28.245  16.580  22.510
 2520DPPC   C4A51932  27.955  16.950  22.370
 2520DPPC   C1B51933  28.765  16.110  22.010
 2520DPPC   C2B51934  28.595  15.830  22.410
 2520DPPC   C3B51935  28.455  15.540  22.760
 2520DPPC   C4B51936  28.415  15.100  22.840
 2521DPPC   NC351937  31.015  14.210  42.440
 2521DPPC   PO451938  30.545  14.250  42.320
 2521DPPC   GL151939  30.305  13.980  41.970
 2521DPPC   GL251940  30.325  13.680  42.060
 2521DPPC   C1A51941  30.145  13.820  41.560
 2521DPPC   C2A51942  29.845  13.850  41.290
 2521DPPC   C3A51943  29.515  13.820  41.160
 2521DPPC   C4A51944  28.995  13.660  41.080
 2521DPPC   C1B51945  30.085  13.500  41.920
 2521DPPC   C2B51946  29.755  13.610  41.790
 2521DPPC   C3B51947  29.635  13.450  41.440
 2521DPPC   C4B51948  29.445  13.180  41.140
 2522DPPC   NC351949  32.295   7.260  27.240
 2522DPPC   PO451950  32.015   6.950  27.540
 2522DPPC   GL151951  31.695   7.230  27.600
 2522DPPC   GL251952  31.515   7.270  27.330
 2522DPPC   C1A51953  31.505   7.650  27.660
 2522DPPC   C2A51954  31.485   8.010  27.980
 2522DPPC   C3A51955  31.405   8.370  28.100
 2522DPPC   C4A51956  31.325   8.690  28.450
 2522DPPC   C1B51957  31.245   7.120  27.710
 2522DPPC   C2B51958  30.845   7.130  27.860
 2522DPPC   C3B51959  30.595   7.380  28.010
 2522DPPC   C4B51960  30.595   7.710  28.210
 2523DPPC   NC351961  10.870  17.450  39.260
 2523DPPC   PO451962  10.850  17.870  38.900
 2523DPPC   GL151963  11.300  17.860  38.900
 2523DPPC   GL251964  11.380  17.620  39.190
 2523DPPC   C1A51965  11.670  17.850  38.800
 2523DPPC   C2A51966  11.910  18.060  38.620
 2523DPPC   C3A51967  12.190  17.960  38.450
 2523DPPC   C4A51968  12.310  17.700  38.260
 2523DPPC   C1B51969  11.840  17.440  39.040
 2523DPPC   C2B51970  12.170  17.540  38.940
 2523DPPC   C3B51971  12.500  17.510  38.970
 2523DPPC   C4B51972  12.920  17.420  39.060
 2524DPPC   NC351973  22.690  17.730  32.870
 2524DPPC   PO451974  23.080  17.630  32.600
 2524DPPC   GL151975  23.170  17.800  32.230
 2524DPPC   GL251976  23.470  17.910  32.290
 2524DPPC   C1A51977  23.100  18.210  32.030
 2524DPPC   C2A51978  23.210  18.330  31.620
 2524DPPC   C3A51979  23.370  18.680  31.410
 2524DPPC   C4A51980  23.380  18.920  31.120
 2524DPPC   C1B51981  23.730  18.190  32.200
 2524DPPC   C2B51982  24.040  18.450  32.110
 2524DPPC   C3B51983  24.000  18.820  31.850
 2524DPPC   C4B51984  23.980  18.910  31.410
 2525DPPC   NC351985  19.400   0.030  22.270
 2525DPPC   PO451986  19.140  26.090  22.330
 2525DPPC   GL151987  19.050  25.670  22.220
 2525DPPC   GL251988  18.970  25.580  22.520
 2525DPPC   C1A51989  18.900  25.230  22.140
 2525DPPC   C2A51990  18.870  24.880  22.420
 2525DPPC   C3A51991  18.610  24.690  22.720
 2525DPPC   C4A51992  18.410  24.230  22.790
 2525DPPC   C1B51993  19.180  25.270  22.590
 2525DPPC   C2B51994  19.300  24.820  22.670
 2525DPPC   C3B51995  19.270  24.440  22.800
 2525DPPC   C4B51996  19.000  24.200  23.010
 2526DPPC   NC351997  27.315  16.600  28.610
 2526DPPC   PO451998  27.395  16.490  29.040
 2526DPPC   GL151999  27.755  16.770  28.880
 2526DPPC   GL252000  28.075  16.950  29.070
 2526DPPC   C1A52001  28.015  17.040  28.570
 2526DPPC   C2A52002  28.405  17.210  28.380
 2526DPPC   C3A52003  28.595  17.540  28.210
 2526DPPC   C4A52004  28.925  17.620  28.020
 2526DPPC   C1B52005  28.405  17.230  28.980
 2526DPPC   C2B52006  28.655  17.440  28.700
 2526DPPC   C3B52007  28.725  17.940  28.490
 2526DPPC   C4B52008  29.125  18.010  28.220
 2527DPPC   NC352009  16.980  15.640  46.530
 2527DPPC   PO452010  17.410  15.750  46.310
 2527DPPC   GL152011  17.640  15.690  45.950
 2527DPPC   GL252012  17.810  15.830  45.990
 2527DPPC   C1A52013  17.960  15.540  45.550
 2527DPPC   C2A52014  18.110  15.150  45.380
 2527DPPC   C3A52015  18.430  15.120  45.210
 2527DPPC   C4A52016  18.920  15.270  44.990
 2527DPPC   C1B52017  17.900  15.980  45.580
 2527DPPC   C2B52018  18.040  15.950  45.290
 2527DPPC   C3B52019  18.400  15.630  45.070
 2527DPPC   C4B52020  18.680  15.690  44.900
 2528DPPC   NC352021  25.730  15.680  23.280
 2528DPPC   PO452022  25.610  15.760  22.850
 2528DPPC   GL152023  25.870  15.880  22.470
 2528DPPC   GL252024  26.190  15.860  22.530
 2528DPPC   C1A52025  26.110  15.860  22.050
 2528DPPC   C2A52026  26.420  15.640  21.760
 2528DPPC   C3A52027  26.795  15.630  21.840
 2528DPPC   C4A52028  27.095  15.710  22.050
 2528DPPC   C1B52029  26.495  16.220  22.620
 2528DPPC   C2B52030  26.815  16.640  22.740
 2528DPPC   C3B52031  27.255  16.590  22.700
 2528DPPC   C4B52032  27.665  16.540  22.510
 2529DPPC   NC352033  19.690  25.520  20.580
 2529DPPC   PO452034  19.700  25.080  20.760
 2529DPPC   GL152035  19.500  24.670  20.920
 2529DPPC   GL252036  19.650  24.370  20.790
 2529DPPC   C1A52037  19.260  24.320  21.130
 2529DPPC   C2A52038  19.010  24.060  21.370
 2529DPPC   C3A52039  19.070  23.760  21.750
 2529DPPC   C4A52040  18.960  23.370  22.040
 2529DPPC   C1B52041  19.950  24.060  20.940
 2529DPPC   C2B52042  20.030  23.670  21.200
 2529DPPC   C3B52043  19.740  23.380  21.360
 2529DPPC   C4B52044  19.510  23.040  21.270
 2530DPPC   NC352045  16.760  19.600  46.830
 2530DPPC   PO452046  16.870  19.570  46.390
 2530DPPC   GL152047  16.980  19.790  46.020
 2530DPPC   GL252048  17.340  19.670  45.930
 2530DPPC   C1A52049  17.270  20.130  45.770
 2530DPPC   C2A52050  17.590  19.980  45.600
 2530DPPC   C3A52051  17.800  19.650  45.380
 2530DPPC   C4A52052  17.990  19.680  44.950
 2530DPPC   C1B52053  17.290  19.400  45.540
 2530DPPC   C2B52054  17.650  19.220  45.110
 2530DPPC   C3B52055  17.920  19.090  44.790
 2530DPPC   C4B52056  18.180  19.140  44.430
 2531DPPC   NC352057  23.610   9.340  44.120
 2531DPPC   PO452058  23.920   9.360  44.510
 2531DPPC   GL152059  23.900   9.810  44.330
 2531DPPC   GL252060  24.200  10.010  44.390
 2531DPPC   C1A52061  23.700  10.040  43.990
 2531DPPC   C2A52062  23.660  10.100  43.550
 2531DPPC   C3A52063  23.490  10.360  43.210
 2531DPPC   C4A52064  23.490  10.280  42.820
 2531DPPC   C1B52065  24.320  10.270  44.070
 2531DPPC   C2B52066  23.980  10.530  43.930
 2531DPPC   C3B52067  23.780  10.650  43.580
 2531DPPC   C4B52068  23.410  10.850  43.480
 2532DPPC   NC352069  18.640  25.750  20.640
 2532DPPC   PO452070  18.870  25.310  20.730
 2532DPPC   GL152071  18.760  24.990  21.040
 2532DPPC   GL252072  18.500  24.960  21.260
 2532DPPC   C1A52073  19.030  24.710  21.420
 2532DPPC   C2A52074  19.090  24.400  21.760
 2532DPPC   C3A52075  19.350  24.130  22.020
 2532DPPC   C4A52076  19.570  23.830  21.790
 2532DPPC   C1B52077  18.570  24.810  21.700
 2532DPPC   C2B52078  18.570  24.590  21.960
 2532DPPC   C3B52079  18.340  24.300  22.310
 2532DPPC   C4B52080  17.940  24.050  22.180
 2533DPPC   NC352081  28.155   4.330  29.680
 2533DPPC   PO452082  28.165   4.570  29.260
 2533DPPC   GL152083  28.335   4.950  29.220
 2533DPPC   GL252084  28.665   4.950  29.290
 2533DPPC   C1A52085  28.265   5.340  29.480
 2533DPPC   C2A52086  28.095   5.650  29.720
 2533DPPC   C3A52087  28.155   6.010  29.960
 2533DPPC   C4A52088  27.965   6.310  30.100
 2533DPPC   C1B52089  28.565   5.010  29.750
 2533DPPC   C2B52090  28.445   5.410  29.980
 2533DPPC   C3B52091  28.125   5.550  30.250
 2533DPPC   C4B52092  28.025   5.980  30.470
 2534DPPC   NC352093  21.170  22.850  27.180
 2534DPPC   PO452094  21.540  22.860  26.870
 2534DPPC   GL152095  21.580  23.260  26.900
 2534DPPC   GL252096  21.990  23.270  26.880
 2534DPPC   C1A52097  21.700  23.690  27.060
 2534DPPC   C2A52098  21.860  24.100  27.000
 2534DPPC   C3A52099  22.100  24.410  26.860
 2534DPPC   C4A52100  22.330  24.800  27.040
 2534DPPC   C1B52101  22.120  23.570  26.630
 2534DPPC   C2B52102  21.960  24.020  26.460
 2534DPPC   C3B52103  21.900  24.070  25.940
 2534DPPC   C4B52104  21.860  23.980  25.470
 2535DPPC   NC352105  29.215  10.630  30.220
 2535DPPC   PO452106  29.265  10.480  30.670
 2535DPPC   GL152107  29.645  10.410  30.630
 2535DPPC   GL252108  29.605  10.100  30.620
 2535DPPC   C1A52109  30.005  10.330  30.520
 2535DPPC   C2A52110  30.465  10.370  30.580
 2535DPPC   C3A52111  30.925  10.300  30.550
 2535DPPC   C4A52112  31.245  10.170  30.500
 2535DPPC   C1B52113  29.895   9.850  30.350
 2535DPPC   C2B52114  30.085   9.400  30.330
 2535DPPC   C3B52115  30.275   9.060  30.250
 2535DPPC   C4B52116  30.465   9.040  29.960
 2536DPPC   NC352117  27.405  23.770  33.000
 2536DPPC   PO452118  27.485  23.680  33.400
 2536DPPC   GL152119  27.275  23.370  33.570
 2536DPPC   GL252120  26.905  23.530  33.730
 2536DPPC   C1A52121  27.035  23.100  33.410
 2536DPPC   C2A52122  27.125  22.760  33.090
 2536DPPC   C3A52123  27.075  22.230  33.110
 2536DPPC   C4A52124  27.005  21.820  33.170
 2536DPPC   C1B52125  26.925  23.170  34.000
 2536DPPC   C2B52126  26.645  22.970  34.210
 2536DPPC   C3B52127  26.400  22.870  34.580
 2536DPPC   C4B52128  26.010  22.900  34.790
 2537DPPC   NC352129  22.240  19.500  32.690
 2537DPPC   PO452130  21.840  19.410  32.400
 2537DPPC   GL152131  22.180  19.610  32.090
 2537DPPC   GL252132  22.180  19.350  31.860
 2537DPPC   C1A52133  22.690  19.620  32.050
 2537DPPC   C2A52134  23.090  19.530  32.100
 2537DPPC   C3A52135  23.470  19.620  31.960
 2537DPPC   C4A52136  23.610  20.100  31.870
 2537DPPC   C1B52137  22.200  19.450  31.500
 2537DPPC   C2B52138  22.320  19.820  31.310
 2537DPPC   C3B52139  22.510  19.980  30.910
 2537DPPC   C4B52140  22.520  20.250  30.620
 2538DPPC   NC352141  28.905  11.860  21.280
 2538DPPC   PO452142  28.665  11.870  20.900
 2538DPPC   GL152143  28.535  12.250  20.950
 2538DPPC   GL252144  28.595  12.500  20.820
 2538DPPC   C1A52145  28.325  12.450  21.320
 2538DPPC   C2A52146  28.305  12.850  21.650
 2538DPPC   C3A52147  27.975  12.910  21.870
 2538DPPC   C4A52148  27.915  13.170  22.260
 2538DPPC   C1B52149  28.485  12.840  21.090
 2538DPPC   C2B52150  28.575  13.210  21.320
 2538DPPC   C3B52151  28.395  13.380  21.630
 2538DPPC   C4B52152  28.685  13.740  21.810
 2539DPPC   NC352153  20.310   0.490  24.920
 2539DPPC   PO452154  20.810   0.370  24.980
 2539DPPC   GL152155  20.580   0.460  25.330
 2539DPPC   GL252156  20.760   0.360  25.610
 2539DPPC   C1A52157  20.270   0.260  25.700
 2539DPPC   C2A52158  20.220  26.310  25.910
 2539DPPC   C3A52159  20.000  25.920  25.930
 2539DPPC   C4A52160  19.940  25.520  25.910
 2539DPPC   C1B52161  20.650  26.370  25.490
 2539DPPC   C2B52162  20.730  25.920  25.490
 2539DPPC   C3B52163  20.700  25.400  25.670
 2539DPPC   C4B52164  20.260  25.150  25.660
 2540DPPC   NC352165  24.580  13.680  22.260
 2540DPPC   PO452166  24.320  13.750  21.880
 2540DPPC   GL152167  24.490  13.860  21.510
 2540DPPC   GL252168  24.310  14.080  21.450
 2540DPPC   C1A52169  24.590  13.690  21.180
 2540DPPC   C2A52170  24.950  13.840  21.040
 2540DPPC   C3A52171  25.050  14.290  20.890
 2540DPPC   C4A52172  24.840  14.320  20.430
 2540DPPC   C1B52173  24.150  13.950  21.110
 2540DPPC   C2B52174  24.220  13.860  20.640
 2540DPPC   C3B52175  24.310  14.080  20.310
 2540DPPC   C4B52176  24.520  14.200  20.030
 2541DPPC   NC352177  12.010  13.030  24.810
 2541DPPC   PO452178  12.280  13.010  24.610
 2541DPPC   GL152179  12.530  13.160  24.840
 2541DPPC   GL252180  12.740  13.270  24.660
 2541DPPC   C1A52181  12.870  13.150  25.190
 2541DPPC   C2A52182  13.090  13.050  25.550
 2541DPPC   C3A52183  13.480  13.010  25.730
 2541DPPC   C4A52184  13.710  12.680  25.880
 2541DPPC   C1B52185  13.050  13.600  24.850
 2541DPPC   C2B52186  13.400  13.870  24.920
 2541DPPC   C3B52187  13.560  13.850  25.290
 2541DPPC   C4B52188  13.690  13.970  25.630
 2542DPPC   NC352189  13.860  21.660  34.130
 2542DPPC   PO452190  14.050  21.640  34.510
 2542DPPC   GL152191  13.680  21.880  34.570
 2542DPPC   GL252192  13.910  22.020  34.850
 2542DPPC   C1A52193  13.290  22.100  34.680
 2542DPPC   C2A52194  12.850  22.330  34.770
 2542DPPC   C3A52195  12.450  22.280  34.650
 2542DPPC   C4A52196  12.080  22.410  34.900
 2542DPPC   C1B52197  13.530  22.380  34.970
 2542DPPC   C2B52198  13.360  22.660  35.070
 2542DPPC   C3B52199  13.000  22.690  35.200
 2542DPPC   C4B52200  12.630  22.750  35.520
 2543DPPC   NC352201  22.510  22.340  29.600
 2543DPPC   PO452202  22.860  22.470  29.860
 2543DPPC   GL152203  23.300  22.560  29.920
 2543DPPC   GL252204  23.240  22.690  29.700
 2543DPPC   C1A52205  23.660  22.850  30.120
 2543DPPC   C2A52206  24.020  22.890  30.360
 2543DPPC   C3A52207  24.440  22.880  30.550
 2543DPPC   C4A52208  24.880  23.050  30.430
 2543DPPC   C1B52209  23.650  22.730  29.590
 2543DPPC   C2B52210  24.080  22.830  29.780
 2543DPPC   C3B52211  24.520  23.010  29.700
 2543DPPC   C4B52212  24.760  23.200  29.930
 2544DPPC   NC352213  31.885  18.380  32.700
 2544DPPC   PO452214  31.955  18.040  32.930
 2544DPPC   GL152215  31.605  18.030  33.010
 2544DPPC   GL252216  31.395  18.200  33.220
 2544DPPC   C1A52217  31.305  17.690  33.010
 2544DPPC   C2A52218  31.025  17.450  33.270
 2544DPPC   C3A52219  30.895  17.010  33.290
 2544DPPC   C4A52220  30.665  16.830  33.450
 2544DPPC   C1B52221  31.015  18.000  33.370
 2544DPPC   C2B52222  30.595  17.690  33.420
 2544DPPC   C3B52223  30.305  17.480  33.200
 2544DPPC   C4B52224  29.875  17.390  33.090
 2545DPPC   NC352225  27.465  22.170  43.090
 2545DPPC   PO452226  27.945  21.920  43.170
 2545DPPC   GL152227  27.775  21.650  42.900
 2545DPPC   GL252228  27.845  21.840  42.610
 2545DPPC   C1A52229  27.385  21.500  42.830
 2545DPPC   C2A52230  26.915  21.500  42.740
 2545DPPC   C3A52231  26.665  21.200  42.480
 2545DPPC   C4A52232  26.455  20.980  42.120
 2545DPPC   C1B52233  27.625  21.640  42.430
 2545DPPC   C2B52234  27.245  21.490  42.370
 2545DPPC   C3B52235  26.955  21.140  42.070
 2545DPPC   C4B52236  27.185  20.730  41.920
 2546DPPC   NC352237  19.100  18.080  22.280
 2546DPPC   PO452238  19.030  17.660  21.940
 2546DPPC   GL152239  18.990  17.590  21.510
 2546DPPC   GL252240  19.110  17.250  21.440
 2546DPPC   C1A52241  19.030  17.650  21.070
 2546DPPC   C2A52242  19.050  17.600  20.730
 2546DPPC   C3A52243  19.020  17.650  20.270
 2546DPPC   C4A52244  19.080  17.630  19.730
 2546DPPC   C1B52245  18.720  17.270  21.200
 2546DPPC   C2B52246  18.550  17.280  20.790
 2546DPPC   C3B52247  18.470  17.240  20.420
 2546DPPC   C4B52248  18.460  17.140  20.030
 2547DPPC   NC352249  19.000  24.370  35.780
 2547DPPC   PO452250  19.160  24.250  35.440
 2547DPPC   GL152251  19.290  24.720  35.550
 2547DPPC   GL252252  19.230  24.970  35.420
 2547DPPC   C1A52253  19.740  25.060  35.430
 2547DPPC   C2A52254  20.150  25.200  35.460
 2547DPPC   C3A52255  20.300  25.560  35.350
 2547DPPC   C4A52256  20.350  25.940  35.370
 2547DPPC   C1B52257  19.400  25.440  35.650
 2547DPPC   C2B52258  19.450  25.920  35.620
 2547DPPC   C3B52259  19.620  26.360  35.470
 2547DPPC   C4B52260  19.970   0.230  35.440
 2548DPPC   NC352261  10.110  18.900  38.610
 2548DPPC   PO452262  10.580  18.760  38.660
 2548DPPC   GL152263  10.760  18.920  38.360
 2548DPPC   GL252264  10.850  18.750  38.090
 2548DPPC   C1A52265  11.200  19.110  38.400
 2548DPPC   C2A52266  11.650  19.190  38.300
 2548DPPC   C3A52267  11.990  19.300  38.080
 2548DPPC   C4A52268  12.190  19.610  37.920
 2548DPPC   C1B52269  11.070  18.760  37.720
 2548DPPC   C2B52270  11.510  18.770  37.400
 2548DPPC   C3B52271  11.570  18.970  37.060
 2548DPPC   C4B52272  11.860  19.350  36.860
 2549DPPC   NC352273  23.680  12.220  17.490
 2549DPPC   PO452274  23.310  12.550  17.590
 2549DPPC   GL152275  23.150  12.530  18.050
 2549DPPC   GL252276  23.040  12.880  18.040
 2549DPPC   C1A52277  23.200  12.260  18.400
 2549DPPC   C2A52278  23.140  12.230  18.920
 2549DPPC   C3A52279  23.170  12.340  19.330
 2549DPPC   C4A52280  23.140  12.360  19.740
 2549DPPC   C1B52281  22.730  12.930  18.490
 2549DPPC   C2B52282  22.770  13.200  18.860
 2549DPPC   C3B52283  23.030  13.120  19.200
 2549DPPC   C4B52284  22.850  12.890  19.490
 2550DPPC   NC352285  19.920  25.570  22.210
 2550DPPC   PO452286  20.010  25.770  22.620
 2550DPPC   GL152287  20.140  25.440  22.770
 2550DPPC   GL252288  20.090  25.190  22.570
 2550DPPC   C1A52289  20.100  25.080  23.070
 2550DPPC   C2A52290  20.160  25.050  23.480
 2550DPPC   C3A52291  20.360  25.470  23.650
 2550DPPC   C4A52292  20.390  25.740  23.870
 2550DPPC   C1B52293  20.000  24.730  22.470
 2550DPPC   C2B52294  20.150  24.300  22.440
 2550DPPC   C3B52295  20.580  24.030  22.650
 2550DPPC   C4B52296  20.760  23.840  23.010
 2551DPPC   NC352297  26.250  17.620  26.380
 2551DPPC   PO452298  26.140  17.300  25.960
 2551DPPC   GL152299  26.615  17.380  26.020
 2551DPPC   GL252300  26.965  17.160  26.130
 2551DPPC   C1A52301  26.935  17.390  25.690
 2551DPPC   C2A52302  27.435  17.430  25.770
 2551DPPC   C3A52303  27.855  17.590  25.640
 2551DPPC   C4A52304  28.325  17.680  25.440
 2551DPPC   C1B52305  27.085  17.580  26.100
 2551DPPC   C2B52306  27.135  18.040  26.070
 2551DPPC   C3B52307  27.175  18.470  25.890
 2551DPPC   C4B52308  27.485  18.710  25.700
 2552DPPC   NC352309  13.360  19.480  31.480
 2552DPPC   PO452310  13.280  19.050  31.320
 2552DPPC   GL152311  12.920  19.260  31.530
 2552DPPC   GL252312  12.930  19.650  31.700
 2552DPPC   C1A52313  12.490  19.290  31.600
 2552DPPC   C2A52314  12.050  19.360  31.720
 2552DPPC   C3A52315  11.640  19.370  31.720
 2552DPPC   C4A52316  11.330  19.580  31.950
 2552DPPC   C1B52317  12.650  19.610  31.950
 2552DPPC   C2B52318  12.300  19.760  31.990
 2552DPPC   C3B52319  11.830  19.810  32.030
 2552DPPC   C4B52320  11.500  19.900  32.400
 2553DPPC   NC352321  22.620  16.400  32.360
 2553DPPC   PO452322  22.460  16.880  32.230
 2553DPPC   GL152323  22.690  17.140  32.000
 2553DPPC   GL252324  22.690  17.170  31.590
 2553DPPC   C1A52325  22.900  17.550  31.880
 2553DPPC   C2A52326  22.760  17.920  31.850
 2553DPPC   C3A52327  22.730  18.180  31.470
 2553DPPC   C4A52328  22.960  18.250  31.170
 2553DPPC   C1B52329  22.720  17.590  31.410
 2553DPPC   C2B52330  23.120  17.850  31.450
 2553DPPC   C3B52331  23.470  17.890  31.730
 2553DPPC   C4B52332  23.950  17.920  31.620
 2554DPPC   NC352333  22.480   0.930  25.880
 2554DPPC   PO452334  22.500   0.470  26.000
 2554DPPC   GL152335  22.480   0.080  26.070
 2554DPPC   GL252336  22.330   0.130  26.410
 2554DPPC   C1A52337  22.180  26.230  26.050
 2554DPPC   C2A52338  21.800  26.050  26.070
 2554DPPC   C3A52339  21.380  25.850  26.160
 2554DPPC   C4A52340  21.100  25.810  26.410
 2554DPPC   C1B52341  21.900  26.380  26.410
 2554DPPC   C2B52342  21.770  26.000  26.600
 2554DPPC   C3B52343  22.090  25.890  26.970
 2554DPPC   C4B52344  22.450  26.000  27.220
 2555DPPC   NC352345  21.430  23.500  35.720
 2555DPPC   PO452346  21.580  23.790  36.190
 2555DPPC   GL152347  22.000  24.010  36.180
 2555DPPC   GL252348  22.210  24.000  35.960
 2555DPPC   C1A52349  22.160  24.500  36.080
 2555DPPC   C2A52350  22.580  24.590  36.110
 2555DPPC   C3A52351  22.990  24.700  36.320
 2555DPPC   C4A52352  23.270  24.870  36.590
 2555DPPC   C1B52353  22.370  24.240  35.630
 2555DPPC   C2B52354  22.710  24.530  35.520
 2555DPPC   C3B52355  22.890  24.870  35.740
 2555DPPC   C4B52356  23.120  25.090  36.050
 2556DPPC   NC352357  27.075  10.310  19.890
 2556DPPC   PO452358  27.435  10.370  20.260
 2556DPPC   GL152359  27.085  10.680  20.250
 2556DPPC   GL252360  26.945  10.700  20.610
 2556DPPC   C1A52361  26.605  10.990  20.420
 2556DPPC   C2A52362  26.210  11.110  20.510
 2556DPPC   C3A52363  26.030  11.500  20.670
 2556DPPC   C4A52364  26.000  11.750  20.980
 2556DPPC   C1B52365  26.905  10.570  21.010
 2556DPPC   C2B52366  26.585  10.840  21.360
 2556DPPC   C3B52367  26.545  11.030  21.750
 2556DPPC   C4B52368  26.240  11.340  21.940
 2557DPPC   NC352369  15.160  23.520  30.400
 2557DPPC   PO452370  15.320  23.740  30.040
 2557DPPC   GL152371  15.180  24.120  30.090
 2557DPPC   GL252372  15.180  24.370  29.780
 2557DPPC   C1A52373  14.810  24.360  30.250
 2557DPPC   C2A52374  14.450  24.470  30.370
 2557DPPC   C3A52375  14.010  24.650  30.260
 2557DPPC   C4A52376  13.660  24.830  30.230
 2557DPPC   C1B52377  15.070  24.720  29.910
 2557DPPC   C2B52378  15.070  25.240  29.860
 2557DPPC   C3B52379  15.170  25.660  29.980
 2557DPPC   C4B52380  15.600  25.690  30.170
 2558DPPC   NC352381  21.920  23.350  29.180
 2558DPPC   PO452382  21.610  23.310  28.780
 2558DPPC   GL152383  21.750  23.690  28.630
 2558DPPC   GL252384  21.950  23.620  28.400
 2558DPPC   C1A52385  21.930  24.050  28.720
 2558DPPC   C2A52386  22.120  24.420  28.470
 2558DPPC   C3A52387  22.260  24.850  28.440
 2558DPPC   C4A52388  22.560  25.200  28.210
 2558DPPC   C1B52389  22.200  23.840  28.260
 2558DPPC   C2B52390  22.550  24.030  28.400
 2558DPPC   C3B52391  22.520  24.260  28.170
 2558DPPC   C4B52392  22.650  24.610  28.010
 2559DPPC   NC352393  17.040   0.590  39.610
 2559DPPC   PO452394  16.650   0.450  39.910
 2559DPPC   GL152395  16.480   0.090  39.790
 2559DPPC   GL252396  16.250   0.040  39.430
 2559DPPC   C1A52397  16.570  26.040  39.690
 2559DPPC   C2A52398  16.550  25.580  39.490
 2559DPPC   C3A52399  16.660  25.250  39.190
 2559DPPC   C4A52400  16.650  24.890  38.970
 2559DPPC   C1B52401  16.210  26.000  39.280
 2559DPPC   C2B52402  16.430  25.790  38.940
 2559DPPC   C3B52403  16.770  25.670  38.680
 2559DPPC   C4B52404  17.220  25.510  38.560
 2560DPPC   NC352405  11.810  15.940  22.830
 2560DPPC   PO452406  11.600  16.150  23.240
 2560DPPC   GL152407  12.010  16.210  23.170
 2560DPPC   GL252408  12.140  15.990  23.180
 2560DPPC   C1A52409  12.420  16.440  23.160
 2560DPPC   C2A52410  12.730  16.670  23.230
 2560DPPC   C3A52411  13.130  16.940  23.110
 2560DPPC   C4A52412  13.190  17.360  22.960
 2560DPPC   C1B52413  12.390  15.800  23.600
 2560DPPC   C2B52414  12.570  15.590  23.910
 2560DPPC   C3B52415  12.750  15.710  24.320
 2560DPPC   C4B52416  13.030  15.830  24.600
 2561DPPC   NC352417  25.280  25.890  28.480
 2561DPPC   PO452418  24.760  25.820  28.440
 2561DPPC   GL152419  24.570  25.450  28.380
 2561DPPC   GL252420  24.710  25.150  28.630
 2561DPPC   C1A52421  24.200  25.280  28.310
 2561DPPC   C2A52422  23.960  24.970  28.460
 2561DPPC   C3A52423  23.810  24.690  28.670
 2561DPPC   C4A52424  23.820  24.230  28.730
 2561DPPC   C1B52425  24.750  24.690  28.790
 2561DPPC   C2B52426  24.520  24.390  29.100
 2561DPPC   C3B52427  24.280  24.190  29.490
 2561DPPC   C4B52428  24.060  24.130  29.940
 2562DPPC   NC352429  15.630  23.600  26.060
 2562DPPC   PO452430  15.270  23.500  26.320
 2562DPPC   GL152431  15.180  23.940  26.100
 2562DPPC   GL252432  15.350  24.180  26.250
 2562DPPC   C1A52433  14.750  24.130  26.050
 2562DPPC   C2A52434  14.560  24.350  26.270
 2562DPPC   C3A52435  14.190  24.600  26.240
 2562DPPC   C4A52436  14.110  24.920  26.540
 2562DPPC   C1B52437  15.050  24.500  26.300
 2562DPPC   C2B52438  14.940  24.960  26.030
 2562DPPC   C3B52439  15.230  25.090  25.790
 2562DPPC   C4B52440  15.110  25.260  25.340
 2563DPPC   NC352441  26.150  25.570  39.910
 2563DPPC   PO452442  26.240  25.140  39.840
 2563DPPC   GL152443  25.900  24.870  39.830
 2563DPPC   GL252444  25.940  24.610  39.730
 2563DPPC   C1A52445  25.470  24.880  39.650
 2563DPPC   C2A52446  25.280  24.650  39.260
 2563DPPC   C3A52447  25.300  24.360  38.980
 2563DPPC   C4A52448  25.190  24.260  38.580
 2563DPPC   C1B52449  25.870  24.180  39.770
 2563DPPC   C2B52450  25.700  23.820  39.970
 2563DPPC   C3B52451  25.390  23.740  40.240
 2563DPPC   C4B52452  25.000  23.590  40.340
 2564DPPC   NC352453  21.250  16.130  21.100
 2564DPPC   PO452454  20.890  16.360  21.290
 2564DPPC   GL152455  20.840  16.190  20.860
 2564DPPC   GL252456  20.910  16.360  20.640
 2564DPPC   C1A52457  20.780  15.850  20.430
 2564DPPC   C2A52458  21.000  15.660  20.140
 2564DPPC   C3A52459  21.430  15.590  19.850
 2564DPPC   C4A52460  21.840  15.570  19.660
 2564DPPC   C1B52461  21.000  16.620  20.180
 2564DPPC   C2B52462  21.130  16.580  19.760
 2564DPPC   C3B52463  21.340  16.680  19.420
 2564DPPC   C4B52464  21.640  16.320  19.170
 2565DPPC   NC352465  15.200   8.320  32.500
 2565DPPC   PO452466  15.200   8.790  32.290
 2565DPPC   GL152467  15.470   9.020  31.960
 2565DPPC   GL252468  15.470   8.890  31.770
 2565DPPC   C1A52469  15.590   9.470  32.020
 2565DPPC   C2A52470  15.910   9.740  32.190
 2565DPPC   C3A52471  16.210   9.830  32.470
 2565DPPC   C4A52472  16.390  10.220  32.680
 2565DPPC   C1B52473  15.900   8.940  31.480
 2565DPPC   C2B52474  16.340   8.910  31.350
 2565DPPC   C3B52475  16.810   8.990  31.360
 2565DPPC   C4B52476  17.030   9.320  31.630
 2566DPPC   NC352477  22.600   8.260  20.400
 2566DPPC   PO452478  22.920   8.070  20.830
 2566DPPC   GL152479  22.670   8.460  20.850
 2566DPPC   GL252480  22.400   8.360  21.140
 2566DPPC   C1A52481  22.520   8.910  20.810
 2566DPPC   C2A52482  22.640   9.170  21.080
 2566DPPC   C3A52483  22.630   9.390  21.490
 2566DPPC   C4A52484  22.840   9.430  21.910
 2566DPPC   C1B52485  22.420   8.800  21.320
 2566DPPC   C2B52486  22.210   9.150  21.440
 2566DPPC   C3B52487  22.060   9.480  21.530
 2566DPPC   C4B52488  21.830   9.900  21.700
 2567DPPC   NC352489  21.970  15.660  21.210
 2567DPPC   PO452490  21.660  15.880  21.250
 2567DPPC   GL152491  21.320  15.650  20.920
 2567DPPC   GL252492  21.250  15.870  20.680
 2567DPPC   C1A52493  21.300  15.350  20.500
 2567DPPC   C2A52494  21.140  15.160  20.080
 2567DPPC   C3A52495  21.170  14.820  19.710
 2567DPPC   C4A52496  20.930  14.470  19.480
 2567DPPC   C1B52497  21.190  16.100  20.170
 2567DPPC   C2B52498  21.040  16.050  19.750
 2567DPPC   C3B52499  21.030  15.660  19.630
 2567DPPC   C4B52500  20.980  15.220  19.470
 2568DPPC   NC352501  11.670  14.270  25.750
 2568DPPC   PO452502  11.610  14.140  25.360
 2568DPPC   GL152503  11.990  14.350  25.240
 2568DPPC   GL252504  12.010  14.460  24.950
 2568DPPC   C1A52505  12.290  14.730  25.360
 2568DPPC   C2A52506  12.640  15.070  25.430
 2568DPPC   C3A52507  12.830  15.410  25.760
 2568DPPC   C4A52508  12.740  15.570  26.070
 2568DPPC   C1B52509  12.450  14.490  24.950
 2568DPPC   C2B52510  12.760  14.560  25.320
 2568DPPC   C3B52511  13.200  14.760  25.410
 2568DPPC   C4B52512  13.580  14.940  25.240
 2569DPPC   NC352513  10.210  23.460  36.210
 2569DPPC   PO452514  10.530  23.120  36.310
 2569DPPC   GL152515  10.830  22.840  36.340
 2569DPPC   GL252516  11.090  22.530  36.460
 2569DPPC   C1A52517  11.360  22.960  36.340
 2569DPPC   C2A52518  11.790  23.210  36.270
 2569DPPC   C3A52519  12.200  23.070  36.190
 2569DPPC   C4A52520  12.520  23.050  35.940
 2569DPPC   C1B52521  11.490  22.260  36.490
 2569DPPC   C2B52522  11.650  22.100  36.110
 2569DPPC   C3B52523  11.940  21.760  35.950
 2569DPPC   C4B52524  12.360  21.810  36.180
 2570DPPC   NC352525  29.615   5.370  38.520
 2570DPPC   PO452526  29.555   5.690  38.270
 2570DPPC   GL152527  29.245   6.000  38.150
 2570DPPC   GL252528  29.075   6.180  38.420
 2570DPPC   C1A52529  29.105   5.960  37.800
 2570DPPC   C2A52530  29.295   5.780  37.390
 2570DPPC   C3A52531  29.205   5.780  37.020
 2570DPPC   C4A52532  29.025   5.920  36.620
 2570DPPC   C1B52533  29.065   6.600  38.200
 2570DPPC   C2B52534  28.895   6.790  37.800
 2570DPPC   C3B52535  28.785   7.080  37.450
 2570DPPC   C4B52536  28.785   7.510  37.220
 2571DPPC   NC352537  19.280  23.470  25.940
 2571DPPC   PO452538  19.520  23.430  25.670
 2571DPPC   GL152539  19.960  23.500  25.520
 2571DPPC   GL252540  19.880  23.720  25.320
 2571DPPC   C1A52541  20.310  23.880  25.650
 2571DPPC   C2A52542  20.310  24.390  25.640
 2571DPPC   C3A52543  20.210  24.730  25.410
 2571DPPC   C4A52544  20.250  25.080  25.140
 2571DPPC   C1B52545  19.960  24.120  25.240
 2571DPPC   C2B52546  19.990  24.340  24.910
 2571DPPC   C3B52547  20.160  24.630  24.700
 2571DPPC   C4B52548  20.360  25.070  24.600
 2572DPPC   NC352549  16.440   1.630  27.140
 2572DPPC   PO452550  16.220   1.530  26.800
 2572DPPC   GL152551  16.260   1.140  26.940
 2572DPPC   GL252552  16.620   1.080  26.980
 2572DPPC   C1A52553  16.280   0.780  27.080
 2572DPPC   C2A52554  16.500   0.340  27.320
 2572DPPC   C3A52555  16.520   0.060  27.640
 2572DPPC   C4A52556  16.720  26.150  28.020
 2572DPPC   C1B52557  16.810   0.770  27.150
 2572DPPC   C2B52558  17.250   0.680  27.420
 2572DPPC   C3B52559  17.550   0.590  27.590
 2572DPPC   C4B52560  17.730   0.520  28.130
 2573DPPC   NC352561  30.665  15.870  22.120
 2573DPPC   PO452562  30.335  16.280  22.310
 2573DPPC   GL152563  29.865  16.110  22.330
 2573DPPC   GL252564  29.565  16.230  22.290
 2573DPPC   C1A52565  29.835  15.760  22.580
 2573DPPC   C2A52566  29.735  15.730  23.020
 2573DPPC   C3A52567  29.485  15.470  23.240
 2573DPPC   C4A52568  29.145  15.260  23.360
 2573DPPC   C1B52569  29.525  16.120  22.760
 2573DPPC   C2B52570  29.295  15.780  22.870
 2573DPPC   C3B52571  28.925  15.570  22.780
 2573DPPC   C4B52572  28.775  15.500  23.140
 2574DPPC   NC352573  18.460  23.850  25.720
 2574DPPC   PO452574  18.370  24.140  26.030
 2574DPPC   GL152575  18.450  24.420  25.750
 2574DPPC   GL252576  18.320  24.270  25.440
 2574DPPC   C1A52577  18.290  24.800  25.620
 2574DPPC   C2A52578  18.300  25.160  25.200
 2574DPPC   C3A52579  18.500  25.120  24.840
 2574DPPC   C4A52580  18.550  25.200  24.440
 2574DPPC   C1B52581  18.130  24.640  25.160
 2574DPPC   C2B52582  18.110  24.870  24.850
 2574DPPC   C3B52583  18.080  25.420  24.730
 2574DPPC   C4B52584  17.860  25.750  24.680
 2575DPPC   NC352585  25.310  18.400  32.830
 2575DPPC   PO452586  25.110  18.830  32.840
 2575DPPC   GL152587  24.950  19.110  32.530
 2575DPPC   GL252588  24.880  19.480  32.410
 2575DPPC   C1A52589  25.050  19.220  32.010
 2575DPPC   C2A52590  24.800  19.430  31.670
 2575DPPC   C3A52591  24.530  19.670  31.290
 2575DPPC   C4A52592  24.140  19.870  31.100
 2575DPPC   C1B52593  24.990  19.760  32.050
 2575DPPC   C2B52594  24.980  19.860  31.570
 2575DPPC   C3B52595  25.160  20.280  31.360
 2575DPPC   C4B52596  25.150  20.360  30.980
 2576DPPC   NC352597  16.860  15.350  45.550
 2576DPPC   PO452598  17.240  15.050  45.650
 2576DPPC   GL152599  17.480  15.290  45.450
 2576DPPC   GL252600  17.440  15.610  45.490
 2576DPPC   C1A52601  17.730  15.430  45.120
 2576DPPC   C2A52602  17.830  15.730  44.830
 2576DPPC   C3A52603  18.200  16.020  44.740
 2576DPPC   C4A52604  18.570  16.160  44.580
 2576DPPC   C1B52605  17.550  15.940  45.260
 2576DPPC   C2B52606  17.700  16.290  45.240
 2576DPPC   C3B52607  18.110  16.520  45.060
 2576DPPC   C4B52608  18.320  16.590  44.800
 2577DPPC   NC352609  19.460   5.030  27.540
 2577DPPC   PO452610  19.410   5.520  27.540
 2577DPPC   GL152611  19.810   5.670  27.640
 2577DPPC   GL252612  20.060   5.640  27.950
 2577DPPC   C1A52613  20.160   5.990  27.560
 2577DPPC   C2A52614  20.280   6.460  27.550
 2577DPPC   C3A52615  20.430   6.910  27.550
 2577DPPC   C4A52616  20.570   7.240  27.810
 2577DPPC   C1B52617  20.330   5.960  28.070
 2577DPPC   C2B52618  20.550   6.320  28.000
 2577DPPC   C3B52619  20.690   6.560  28.320
 2577DPPC   C4B52620  20.920   6.940  28.480
 2578DPPC   NC352621  20.780  11.800  23.390
 2578DPPC   PO452622  20.570  12.060  22.920
 2578DPPC   GL152623  20.150  12.280  22.920
 2578DPPC   GL252624  19.880  12.410  23.050
 2578DPPC   C1A52625  19.840  12.080  22.630
 2578DPPC   C2A52626  19.570  11.880  22.390
 2578DPPC   C3A52627  19.280  11.760  22.040
 2578DPPC   C4A52628  19.310  11.440  21.780
 2578DPPC   C1B52629  19.820  12.630  22.610
 2578DPPC   C2B52630  19.670  12.500  22.120
 2578DPPC   C3B52631  19.610  12.090  21.820
 2578DPPC   C4B52632  19.260  12.000  21.500
 2579DPPC   NC352633  18.740  13.050  45.320
 2579DPPC   PO452634  19.040  12.900  45.670
 2579DPPC   GL152635  19.310  13.140  45.360
 2579DPPC   GL252636  19.250  13.080  45.090
 2579DPPC   C1A52637  19.640  13.480  45.170
 2579DPPC   C2A52638  19.950  13.790  45.130
 2579DPPC   C3A52639  20.060  14.170  44.920
 2579DPPC   C4A52640  20.320  14.460  44.790
 2579DPPC   C1B52641  19.140  13.030  44.660
 2579DPPC   C2B52642  18.970  13.310  44.390
 2579DPPC   C3B52643  18.600  13.330  44.260
 2579DPPC   C4B52644  18.170  13.360  44.070
 2580DPPC   NC352645  14.110  13.640  21.300
 2580DPPC   PO452646  14.430  13.610  21.060
 2580DPPC   GL152647  14.610  13.850  21.330
 2580DPPC   GL252648  14.350  14.000  21.540
 2580DPPC   C1A52649  14.940  14.160  21.510
 2580DPPC   C2A52650  15.260  14.510  21.650
 2580DPPC   C3A52651  15.400  14.980  21.760
 2580DPPC   C4A52652  15.480  15.370  21.870
 2580DPPC   C1B52653  14.440  14.410  21.650
 2580DPPC   C2B52654  14.870  14.350  21.950
 2580DPPC   C3B52655  15.110  14.210  22.120
 2580DPPC   C4B52656  15.330  14.490  22.440
 2581DPPC   NC352657  19.790   1.210  26.700
 2581DPPC   PO452658  19.630   1.160  26.260
 2581DPPC   GL152659  19.600   0.820  26.450
 2581DPPC   GL252660  19.860   0.670  26.520
 2581DPPC   C1A52661  19.400   0.670  26.890
 2581DPPC   C2A52662  19.450   0.660  27.330
 2581DPPC   C3A52663  19.560   0.490  27.710
 2581DPPC   C4A52664  19.880   0.490  28.060
 2581DPPC   C1B52665  19.720   0.240  26.570
 2581DPPC   C2B52666  19.760  26.390  26.840
 2581DPPC   C3B52667  19.750  25.860  26.990
 2581DPPC   C4B52668  19.660  25.600  27.330
 2582DPPC   NC352669  16.330   8.030  25.790
 2582DPPC   PO452670  16.020   8.110  26.060
 2582DPPC   GL152671  16.290   8.270  26.460
 2582DPPC   GL252672  16.210   8.350  26.750
 2582DPPC   C1A52673  16.680   8.330  26.730
 2582DPPC   C2A52674  17.020   8.450  26.630
 2582DPPC   C3A52675  17.540   8.520  26.670
 2582DPPC   C4A52676  17.910   8.780  26.780
 2582DPPC   C1B52677  16.350   8.750  26.750
 2582DPPC   C2B52678  16.730   8.800  26.920
 2582DPPC   C3B52679  17.200   8.680  27.000
 2582DPPC   C4B52680  17.550   8.660  27.180
 2583DPPC   NC352681  10.930  13.800  33.660
 2583DPPC   PO452682  11.140  13.860  34.120
 2583DPPC   GL152683  11.450  13.960  34.240
 2583DPPC   GL252684  11.640  13.710  34.330
 2583DPPC   C1A52685  11.780  14.170  34.090
 2583DPPC   C2A52686  12.160  14.320  34.250
 2583DPPC   C3A52687  12.350  14.630  34.220
 2583DPPC   C4A52688  12.750  14.850  34.170
 2583DPPC   C1B52689  12.090  13.680  34.470
 2583DPPC   C2B52690  12.460  13.920  34.350
 2583DPPC   C3B52691  12.830  13.920  34.230
 2583DPPC   C4B52692  13.280  14.120  34.040
 2584DPPC   NC352693  33.405  11.310  27.920
 2584DPPC   PO452694  33.045  11.710  27.950
 2584DPPC   GL152695  32.675  11.810  28.150
 2584DPPC   GL252696  32.615  11.580  28.330
 2584DPPC   C1A52697  32.305  12.090  28.220
 2584DPPC   C2A52698  32.295  12.480  28.050
 2584DPPC   C3A52699  32.135  12.750  27.680
 2584DPPC   C4A52700  32.105  12.610  27.200
 2584DPPC   C1B52701  32.325  11.470  28.050
 2584DPPC   C2B52702  31.945  11.470  28.060
 2584DPPC   C3B52703  31.605  11.550  28.520
 2584DPPC   C4B52704  31.355  11.750  28.830
 2585DPPC   NC352705  20.200   2.090  34.380
 2585DPPC   PO452706  19.860   2.260  34.410
 2585DPPC   GL152707  19.680   1.830  34.270
 2585DPPC   GL252708  19.660   1.540  34.620
 2585DPPC   C1A52709  19.540   1.450  34.130
 2585DPPC   C2A52710  19.540   1.040  34.290
 2585DPPC   C3A52711  19.350   0.770  34.380
 2585DPPC   C4A52712  19.330   0.420  34.630
 2585DPPC   C1B52713  19.360   1.200  34.780
 2585DPPC   C2B52714  19.100   0.840  34.870
 2585DPPC   C3B52715  18.810   0.630  34.580
 2585DPPC   C4B52716  18.890   0.630  34.180
 2586DPPC   NC352717  26.505  16.760  26.700
 2586DPPC   PO452718  26.485  17.260  26.560
 2586DPPC   GL152719  26.905  17.510  26.520
 2586DPPC   GL252720  26.725  17.830  26.330
 2586DPPC   C1A52721  27.265  17.900  26.650
 2586DPPC   C2A52722  27.665  17.690  26.740
 2586DPPC   C3A52723  28.015  17.840  26.600
 2586DPPC   C4A52724  28.125  18.250  26.840
 2586DPPC   C1B52725  26.695  18.220  26.260
 2586DPPC   C2B52726  26.715  18.630  26.020
 2586DPPC   C3B52727  27.065  18.960  25.920
 2586DPPC   C4B52728  27.345  19.220  25.880
 2587DPPC   NC352729  30.585   5.910  36.260
 2587DPPC   PO452730  30.775   5.920  36.650
 2587DPPC   GL152731  30.535   6.330  36.600
 2587DPPC   GL252732  30.275   6.340  36.280
 2587DPPC   C1A52733  30.235   6.660  36.640
 2587DPPC   C2A52734  29.965   6.920  36.970
 2587DPPC   C3A52735  29.595   6.840  36.990
 2587DPPC   C4A52736  29.245   6.800  37.300
 2587DPPC   C1B52737  29.825   6.360  36.090
 2587DPPC   C2B52738  29.585   6.540  35.740
 2587DPPC   C3B52739  29.655   6.490  35.280
 2587DPPC   C4B52740  29.545   6.320  34.800
 2588DPPC   NC352741   9.520  22.070  27.390
 2588DPPC   PO452742   9.520  21.640  27.370
 2588DPPC   GL152743   9.840  21.250  27.510
 2588DPPC   GL252744  10.050  21.260  27.300
 2588DPPC   C1A52745  10.270  21.200  27.800
 2588DPPC   C2A52746  10.720  21.190  28.020
 2588DPPC   C3A52747  11.110  21.380  27.940
 2588DPPC   C4A52748  11.430  21.310  27.570
 2588DPPC   C1B52749  10.420  21.160  27.230
 2588DPPC   C2B52750  10.810  21.160  27.540
 2588DPPC   C3B52751  11.020  20.740  27.750
 2588DPPC   C4B52752  11.120  20.330  27.640
 2589DPPC   NC352753  18.400  12.160  25.520
 2589DPPC   PO452754  18.200  12.030  25.840
 2589DPPC   GL152755  18.090  11.740  25.580
 2589DPPC   GL252756  18.250  11.780  25.200
 2589DPPC   C1A52757  17.930  11.280  25.390
 2589DPPC   C2A52758  17.840  11.170  24.990
 2589DPPC   C3A52759  17.450  11.200  24.720
 2589DPPC   C4A52760  17.320  11.440  24.510
 2589DPPC   C1B52761  17.950  11.990  24.920
 2589DPPC   C2B52762  17.870  12.060  24.470
 2589DPPC   C3B52763  17.520  11.870  24.220
 2589DPPC   C4B52764  17.050  11.910  24.080
 2590DPPC   NC352765  32.265   9.590  26.300
 2590DPPC   PO452766  32.225   9.130  26.460
 2590DPPC   GL152767  31.965   9.350  26.740
 2590DPPC   GL252768  32.055   9.770  26.710
 2590DPPC   C1A52769  31.845   9.410  27.060
 2590DPPC   C2A52770  31.965   9.770  27.260
 2590DPPC   C3A52771  31.935  10.240  27.360
 2590DPPC   C4A52772  31.845  10.760  27.520
 2590DPPC   C1B52773  31.835  10.160  26.910
 2590DPPC   C2B52774  31.495  10.170  27.190
 2590DPPC   C3B52775  31.175  10.100  27.520
 2590DPPC   C4B52776  30.865  10.050  27.760
 2591DPPC   NC352777   9.780  18.870  36.210
 2591DPPC   PO452778   9.860  18.420  36.350
 2591DPPC   GL152779  10.150  18.590  36.100
 2591DPPC   GL252780  10.180  18.580  35.850
 2591DPPC   C1A52781  10.540  18.850  36.200
 2591DPPC   C2A52782  10.960  19.080  36.350
 2591DPPC   C3A52783  11.000  19.520  36.410
 2591DPPC   C4A52784  11.250  19.980  36.420
 2591DPPC   C1B52785  10.620  18.650  35.660
 2591DPPC   C2B52786  11.020  18.620  35.490
 2591DPPC   C3B52787  11.210  18.630  35.110
 2591DPPC   C4B52788  11.450  18.850  34.680
 2592DPPC   NC352789  29.995   6.740  38.740
 2592DPPC   PO452790  30.245   6.990  38.920
 2592DPPC   GL152791  30.155   7.360  39.160
 2592DPPC   GL252792  30.185   7.730  39.080
 2592DPPC   C1A52793  29.785   7.530  39.060
 2592DPPC   C2A52794  29.555   7.750  38.840
 2592DPPC   C3A52795  29.625   8.010  38.430
 2592DPPC   C4A52796  29.895   7.800  38.060
 2592DPPC   C1B52797  30.045   7.970  38.720
 2592DPPC   C2B52798  29.915   8.340  38.600
 2592DPPC   C3B52799  29.715   8.730  38.610
 2592DPPC   C4B52800  29.405   8.970  38.710
 2593DPPC   NC352801  15.270   7.630  36.430
 2593DPPC   PO452802  15.630   7.550  36.420
 2593DPPC   GL152803  15.760   8.020  36.470
 2593DPPC   GL252804  16.070   8.210  36.450
 2593DPPC   C1A52805  15.630   8.400  36.640
 2593DPPC   C2A52806  15.350   8.690  36.590
 2593DPPC   C3A52807  14.910   8.850  36.600
 2593DPPC   C4A52808  14.630   9.150  36.420
 2593DPPC   C1B52809  16.400   8.300  36.280
 2593DPPC   C2B52810  16.480   8.660  36.250
 2593DPPC   C3B52811  16.780   8.810  35.930
 2593DPPC   C4B52812  16.740   9.090  35.520
 2594DPPC   NC352813  12.500  18.910  42.010
 2594DPPC   PO452814  12.800  18.850  42.220
 2594DPPC   GL152815  13.070  18.910  41.820
 2594DPPC   GL252816  12.770  19.140  41.650
 2594DPPC   C1A52817  13.290  18.700  41.650
 2594DPPC   C2A52818  13.520  18.440  41.350
 2594DPPC   C3A52819  13.780  18.680  41.170
 2594DPPC   C4A52820  13.870  18.960  40.990
 2594DPPC   C1B52821  12.900  18.800  41.290
 2594DPPC   C2B52822  12.970  18.630  40.810
 2594DPPC   C3B52823  12.750  18.740  40.340
 2594DPPC   C4B52824  12.560  19.000  39.960
 2595DPPC   NC352825  13.240  11.200  25.380
 2595DPPC   PO452826  12.940  11.350  25.630
 2595DPPC   GL152827  13.330  11.430  25.820
 2595DPPC   GL252828  13.630  11.250  25.700
 2595DPPC   C1A52829  13.560  11.610  26.150
 2595DPPC   C2A52830  13.950  11.870  26.230
 2595DPPC   C3A52831  14.060  12.340  26.080
 2595DPPC   C4A52832  14.390  12.750  26.180
 2595DPPC   C1B52833  13.960  11.600  25.730
 2595DPPC   C2B52834  14.260  12.060  25.770
 2595DPPC   C3B52835  14.360  12.490  25.650
 2595DPPC   C4B52836  14.730  12.680  25.550
 2596DPPC   NC352837  18.620  18.060  42.030
 2596DPPC   PO452838  18.350  17.860  42.390
 2596DPPC   GL152839  18.280  18.050  42.810
 2596DPPC   GL252840  18.060  18.120  42.680
 2596DPPC   C1A52841  18.060  18.100  43.200
 2596DPPC   C2A52842  17.790  17.750  43.460
 2596DPPC   C3A52843  17.390  17.960  43.550
 2596DPPC   C4A52844  16.910  17.930  43.450
 2596DPPC   C1B52845  17.650  18.330  42.450
 2596DPPC   C2B52846  17.280  18.560  42.750
 2596DPPC   C3B52847  17.000  18.800  42.760
 2596DPPC   C4B52848  16.580  18.830  42.870
 2597DPPC   NC352849  19.310  26.100  21.870
 2597DPPC   PO452850  19.510  25.700  21.960
 2597DPPC   GL152851  19.550  25.320  22.020
 2597DPPC   GL252852  19.310  25.120  21.880
 2597DPPC   C1A52853  19.570  25.020  22.320
 2597DPPC   C2A52854  19.650  25.090  22.810
 2597DPPC   C3A52855  19.640  24.850  23.050
 2597DPPC   C4A52856  19.920  24.610  23.320
 2597DPPC   C1B52857  19.110  24.770  22.010
 2597DPPC   C2B52858  19.050  24.430  22.350
 2597DPPC   C3B52859  18.950  24.010  22.460
 2597DPPC   C4B52860  18.710  23.810  22.760
 2598DPPC   NC352861  22.550  22.620  32.260
 2598DPPC   PO452862  22.430  22.500  31.840
 2598DPPC   GL152863  22.920  22.590  31.790
 2598DPPC   GL252864  23.040  22.630  32.080
 2598DPPC   C1A52865  23.320  22.580  31.530
 2598DPPC   C2A52866  23.640  22.290  31.570
 2598DPPC   C3A52867  23.930  22.100  31.700
 2598DPPC   C4A52868  24.360  22.190  31.910
 2598DPPC   C1B52869  23.310  22.850  31.990
 2598DPPC   C2B52870  23.780  22.810  31.940
 2598DPPC   C3B52871  24.170  22.600  31.740
 2598DPPC   C4B52872  24.670  22.740  31.730
 2599DPPC   NC352873  20.680  18.730  21.350
 2599DPPC   PO452874  21.120  18.650  21.560
 2599DPPC   GL152875  21.060  19.040  21.320
 2599DPPC   GL252876  20.830  19.120  21.000
 2599DPPC   C1A52877  21.430  19.120  21.040
 2599DPPC   C2A52878  21.230  19.040  20.640
 2599DPPC   C3A52879  21.230  19.120  20.180
 2599DPPC   C4A52880  21.210  19.440  19.810
 2599DPPC   C1B52881  20.820  19.330  20.540
 2599DPPC   C2B52882  20.910  19.750  20.320
 2599DPPC   C3B52883  21.120  19.980  20.100
 2599DPPC   C4B52884  20.960  20.190  19.620
 2600DPPC   NC352885  23.230  17.870  47.270
 2600DPPC   PO452886  23.140  18.320  47.260
 2600DPPC   GL152887  23.210  18.180  46.850
 2600DPPC   GL252888  22.940  18.220  46.770
 2600DPPC   C1A52889  23.340  18.140  46.340
 2600DPPC   C2A52890  23.300  17.960  45.930
 2600DPPC   C3A52891  23.090  17.750  45.690
 2600DPPC   C4A52892  22.880  17.670  45.340
 2600DPPC   C1B52893  22.860  18.230  46.300
 2600DPPC   C2B52894  22.620  18.640  46.170
 2600DPPC   C3B52895  22.420  19.030  46.200
 2600DPPC   C4B52896  22.180  19.360  46.270
 2601DPPC   NC352897  30.175  19.550  42.250
 2601DPPC   PO452898  29.855  19.940  42.170
 2601DPPC   GL152899  29.565  19.780  41.980
 2601DPPC   GL252900  29.525  19.710  41.610
 2601DPPC   C1A52901  29.115  19.620  41.910
 2601DPPC   C2A52902  28.925  19.500  41.530
 2601DPPC   C3A52903  28.635  19.430  41.220
 2601DPPC   C4A52904  28.415  19.570  40.820
 2601DPPC   C1B52905  29.505  19.310  41.640
 2601DPPC   C2B52906  29.125  19.000  41.730
 2601DPPC   C3B52907  29.215  18.640  41.510
 2601DPPC   C4B52908  29.445  18.430  41.220
 2602DPPC   NC352909  28.595  15.820  33.270
 2602DPPC   PO452910  28.355  16.260  33.080
 2602DPPC   GL152911  28.785  16.200  33.020
 2602DPPC   GL252912  28.885  16.500  33.180
 2602DPPC   C1A52913  29.245  16.140  33.180
 2602DPPC   C2A52914  29.575  16.410  33.050
 2602DPPC   C3A52915  29.955  16.410  33.110
 2602DPPC   C4A52916  30.305  16.460  33.340
 2602DPPC   C1B52917  29.125  16.410  32.770
 2602DPPC   C2B52918  29.505  16.500  32.520
 2602DPPC   C3B52919  29.635  16.780  32.180
 2602DPPC   C4B52920  29.685  17.070  31.940
 2603DPPC   NC352921  12.490  12.330  38.990
 2603DPPC   PO452922  12.350  12.550  38.610
 2603DPPC   GL152923  12.800  12.600  38.620
 2603DPPC   GL252924  12.900  12.290  38.750
 2603DPPC   C1A52925  13.140  12.890  38.610
 2603DPPC   C2A52926  13.500  13.130  38.690
 2603DPPC   C3A52927  13.740  13.460  38.700
 2603DPPC   C4A52928  13.590  13.780  38.670
 2603DPPC   C1B52929  13.340  12.330  38.550
 2603DPPC   C2B52930  13.590  12.190  38.210
 2603DPPC   C3B52931  13.920  12.270  37.970
 2603DPPC   C4B52932  14.150  12.590  37.790
 2604DPPC   NC352933  27.435  16.730  28.000
 2604DPPC   PO452934  27.085  16.890  27.970
 2604DPPC   GL152935  27.395  17.120  27.600
 2604DPPC   GL252936  27.195  17.280  27.340
 2604DPPC   C1A52937  27.705  17.330  27.710
 2604DPPC   C2A52938  27.785  17.740  27.800
 2604DPPC   C3A52939  27.905  18.150  27.920
 2604DPPC   C4A52940  28.005  18.570  28.180
 2604DPPC   C1B52941  27.565  17.640  27.300
 2604DPPC   C2B52942  27.915  17.890  27.190
 2604DPPC   C3B52943  28.315  17.840  27.090
 2604DPPC   C4B52944  28.515  17.960  26.710
 2605DPPC   NC352945  11.050  17.380  24.030
 2605DPPC   PO452946  10.710  17.420  24.480
 2605DPPC   GL152947  11.130  17.410  24.680
 2605DPPC   GL252948  11.220  17.330  24.450
 2605DPPC   C1A52949  11.470  17.730  24.720
 2605DPPC   C2A52950  11.700  18.060  24.880
 2605DPPC   C3A52951  12.080  18.180  25.240
 2605DPPC   C4A52952  12.000  18.520  25.560
 2605DPPC   C1B52953  11.610  17.480  24.230
 2605DPPC   C2B52954  11.930  17.350  24.380
 2605DPPC   C3B52955  12.290  17.320  24.150
 2605DPPC   C4B52956  12.720  17.120  24.120
 2606DPPC   NC352957  26.565  17.450  33.120
 2606DPPC   PO452958  26.955  17.550  32.920
 2606DPPC   GL152959  27.145  17.880  32.890
 2606DPPC   GL252960  27.385  17.780  32.610
 2606DPPC   C1A52961  27.375  18.250  32.890
 2606DPPC   C2A52962  27.705  18.600  32.790
 2606DPPC   C3A52963  28.015  18.860  32.760
 2606DPPC   C4A52964  28.235  19.230  32.610
 2606DPPC   C1B52965  27.325  18.200  32.360
 2606DPPC   C2B52966  27.255  18.580  32.540
 2606DPPC   C3B52967  27.485  18.880  32.430
 2606DPPC   C4B52968  27.695  19.240  32.430
 2607DPPC   NC352969  33.865  10.350  29.650
 2607DPPC   PO452970  33.575  10.330  30.020
 2607DPPC   GL152971  33.135  10.440  30.200
 2607DPPC   GL252972  32.725  10.350  30.070
 2607DPPC   C1A52973  32.725  10.520  30.510
 2607DPPC   C2A52974  32.405  10.350  30.810
 2607DPPC   C3A52975  32.035  10.330  31.030
 2607DPPC   C4A52976  31.795  10.270  31.380
 2607DPPC   C1B52977  32.365  10.640  30.070
 2607DPPC   C2B52978  31.945  10.700  30.050
 2607DPPC   C3B52979  31.605  10.680  29.780
 2607DPPC   C4B52980  31.185  10.770  29.800
 2608DPPC   NC352981  19.710   2.060  29.340
 2608DPPC   PO452982  19.520   2.310  29.770
 2608DPPC   GL152983  19.480   1.850  29.770
 2608DPPC   GL252984  19.610   1.730  29.970
 2608DPPC   C1A52985  19.130   1.570  29.760
 2608DPPC   C2A52986  18.860   1.070  29.750
 2608DPPC   C3A52987  18.520   0.830  29.870
 2608DPPC   C4A52988  18.350   0.610  30.200
 2608DPPC   C1B52989  19.310   1.460  30.230
 2608DPPC   C2B52990  19.090   1.190  30.210
 2608DPPC   C3B52991  18.830   0.820  30.270
 2608DPPC   C4B52992  18.810   0.400  30.330
 2609DPPC   NC352993  19.410   8.520  43.170
 2609DPPC   PO452994  19.240   8.680  42.760
 2609DPPC   GL152995  19.040   8.900  42.400
 2609DPPC   GL252996  19.190   8.750  42.150
 2609DPPC   C1A52997  19.220   9.250  42.220
 2609DPPC   C2A52998  19.540   9.340  41.930
 2609DPPC   C3A52999  19.550   9.760  41.810
 2609DPPC   C4A53000  19.300  10.150  41.820
 2609DPPC   C1B53001  19.580   8.780  42.150
 2609DPPC   C2B53002  19.800   8.820  41.780
 2609DPPC   C3B53003  19.910   9.220  41.590
 2609DPPC   C4B53004  19.880   9.520  41.230
 2610DPPC   NC353005  28.745  16.590  37.350
 2610DPPC   PO453006  28.635  16.370  37.720
 2610DPPC   GL153007  29.095  16.470  37.630
 2610DPPC   GL253008  29.265  16.310  37.390
 2610DPPC   C1A53009  29.395  16.880  37.540
 2610DPPC   C2A53010  29.845  17.000  37.430
 2610DPPC   C3A53011  30.255  17.120  37.540
 2610DPPC   C4A53012  30.525  17.180  37.850
 2610DPPC   C1B53013  29.695  16.400  37.340
 2610DPPC   C2B53014  29.955  16.500  37.560
 2610DPPC   C3B53015  30.335  16.670  37.780
 2610DPPC   C4B53016  30.625  16.780  38.140
 2611DPPC   NC353017  24.370  19.940  27.820
 2611DPPC   PO453018  24.520  19.810  27.430
 2611DPPC   GL153019  24.890  20.010  27.530
 2611DPPC   GL253020  24.910  19.940  27.820
 2611DPPC   C1A53021  25.280  20.130  27.360
 2611DPPC   C2A53022  25.690  20.320  27.410
 2611DPPC   C3A53023  25.980  20.620  27.270
 2611DPPC   C4A53024  26.180  20.820  26.930
 2611DPPC   C1B53025  25.110  20.280  27.940
 2611DPPC   C2B53026  25.450  20.490  27.820
 2611DPPC   C3B53027  25.710  20.770  27.810
 2611DPPC   C4B53028  25.640  21.160  27.650
 2612DPPC   NC353029  21.690  20.400  42.450
 2612DPPC   PO453030  21.660  20.660  42.760
 2612DPPC   GL153031  21.640  21.080  42.980
 2612DPPC   GL253032  21.440  21.180  42.680
 2612DPPC   C1A53033  21.480  21.210  43.170
 2612DPPC   C2A53034  21.140  21.450  43.350
 2612DPPC   C3A53035  20.860  21.410  43.660
 2612DPPC   C4A53036  20.760  21.120  44.000
 2612DPPC   C1B53037  21.100  21.360  42.870
 2612DPPC   C2B53038  20.650  21.520  43.020
 2612DPPC   C3B53039  20.490  21.660  43.440
 2612DPPC   C4B53040  20.080  21.730  43.580
 2613DPPC   NC353041  15.950   1.050  38.620
 2613DPPC   PO453042  16.160   1.310  38.430
 2613DPPC   GL153043  16.400   1.030  38.250
 2613DPPC   GL253044  16.330   0.810  38.480
 2613DPPC   C1A53045  16.720   0.720  38.160
 2613DPPC   C2A53046  16.980   0.320  38.020
 2613DPPC   C3A53047  17.290   0.060  38.250
 2613DPPC   C4A53048  17.740  26.400  38.410
 2613DPPC   C1B53049  16.410   0.460  38.720
 2613DPPC   C2B53050  16.610   0.080  38.900
 2613DPPC   C3B53051  16.740  26.120  39.240
 2613DPPC   C4B53052  16.880  25.740  39.160
 2614DPPC   NC353053  22.020  17.700  47.660
 2614DPPC   PO453054  22.160  18.160  47.450
 2614DPPC   GL153055  22.290  18.260  47.080
 2614DPPC   GL253056  21.960  18.520  47.010
 2614DPPC   C1A53057  22.390  18.000  46.690
 2614DPPC   C2A53058  22.330  17.830  46.310
 2614DPPC   C3A53059  22.470  17.340  46.190
 2614DPPC   C4A53060  22.590  16.940  46.000
 2614DPPC   C1B53061  21.900  18.340  46.650
 2614DPPC   C2B53062  21.930  18.170  46.240
 2614DPPC   C3B53063  22.100  18.100  45.960
 2614DPPC   C4B53064  22.390  18.470  45.720
 2615DPPC   NC353065  13.560   9.740  29.080
 2615DPPC   PO453066  13.730   9.400  29.240
 2615DPPC   GL153067  14.160   9.470  29.170
 2615DPPC   GL253068  14.420   9.330  29.100
 2615DPPC   C1A53069  14.440   9.820  28.860
 2615DPPC   C2A53070  14.470  10.200  28.990
 2615DPPC   C3A53071  14.310  10.560  29.060
 2615DPPC   C4A53072  13.980  10.680  28.820
 2615DPPC   C1B53073  14.820   9.540  29.030
 2615DPPC   C2B53074  15.250   9.570  29.150
 2615DPPC   C3B53075  15.520   9.880  29.120
 2615DPPC   C4B53076  15.650  10.260  28.940
 2616DPPC   NC353077  31.365  19.070  35.510
 2616DPPC   PO453078  31.345  19.380  35.230
 2616DPPC   GL153079  30.935  19.170  34.980
 2616DPPC   GL253080  30.695  19.100  35.240
 2616DPPC   C1A53081  30.665  18.930  34.670
 2616DPPC   C2A53082  30.425  18.710  34.530
 2616DPPC   C3A53083  30.115  18.530  34.750
 2616DPPC   C4A53084  29.765  18.710  34.880
 2616DPPC   C1B53085  30.435  19.070  35.650
 2616DPPC   C2B53086  30.205  19.070  36.020
 2616DPPC   C3B53087  29.995  18.780  36.260
 2616DPPC   C4B53088  29.615  18.690  36.200
 2617DPPC   NC353089   9.180  22.220  32.020
 2617DPPC   PO453090   9.260  21.820  31.820
 2617DPPC   GL153091   9.510  21.670  31.570
 2617DPPC   GL253092   9.770  21.560  31.680
 2617DPPC   C1A53093   9.790  21.610  31.180
 2617DPPC   C2A53094  10.140  21.500  31.020
 2617DPPC   C3A53095  10.530  21.610  30.890
 2617DPPC   C4A53096  10.920  21.490  31.080
 2617DPPC   C1B53097  10.210  21.710  31.540
 2617DPPC   C2B53098  10.560  21.370  31.420
 2617DPPC   C3B53099  10.960  21.080  31.330
 2617DPPC   C4B53100  11.300  20.880  31.250
 2618DPPC   NC353101  14.180  22.040  19.670
 2618DPPC   PO453102  14.060  21.840  20.070
 2618DPPC   GL153103  14.090  21.720  20.520
 2618DPPC   GL253104  14.170  22.030  20.800
 2618DPPC   C1A53105  14.240  21.490  20.910
 2618DPPC   C2A53106  14.520  21.350  21.190
 2618DPPC   C3A53107  14.670  21.270  21.590
 2618DPPC   C4A53108  14.970  21.300  21.830
 2618DPPC   C1B53109  14.290  22.030  21.150
 2618DPPC   C2B53110  14.300  21.770  21.530
 2618DPPC   C3B53111  14.250  21.450  21.870
 2618DPPC   C4B53112  14.480  21.290  22.120
 2619DPPC   NC353113  25.270  16.910  32.520
 2619DPPC   PO453114  25.190  17.150  32.160
 2619DPPC   GL153115  24.970  17.500  31.860
 2619DPPC   GL253116  25.100  17.810  31.730
 2619DPPC   C1A53117  24.520  17.830  31.870
 2619DPPC   C2A53118  24.350  18.170  31.820
 2619DPPC   C3A53119  24.210  18.380  31.580
 2619DPPC   C4A53120  24.310  18.610  31.190
 2619DPPC   C1B53121  25.060  17.950  31.320
 2619DPPC   C2B53122  25.150  18.310  31.150
 2619DPPC   C3B53123  25.500  18.480  31.000
 2619DPPC   C4B53124  25.710  18.790  30.810
 2620DPPC   NC353125  15.540   0.030  39.660
 2620DPPC   PO453126  15.110   0.130  39.480
 2620DPPC   GL153127  15.330  26.370  39.180
 2620DPPC   GL253128  15.460   0.210  39.060
 2620DPPC   C1A53129  15.460  26.010  38.950
 2620DPPC   C2A53130  15.920  25.780  38.840
 2620DPPC   C3A53131  16.130  25.380  38.710
 2620DPPC   C4A53132  16.200  25.020  38.860
 2620DPPC   C1B53133  15.260  26.390  38.690
 2620DPPC   C2B53134  15.240  25.940  38.490
 2620DPPC   C3B53135  15.170  25.590  38.200
 2620DPPC   C4B53136  14.900  25.190  38.170
 2621DPPC   NC353137  28.955  10.540  21.810
 2621DPPC   PO453138  28.965  10.600  21.380
 2621DPPC   GL153139  28.525  10.440  21.510
 2621DPPC   GL253140  28.295  10.550  21.260
 2621DPPC   C1A53141  28.255  10.770  21.850
 2621DPPC   C2A53142  28.155  11.090  22.130
 2621DPPC   C3A53143  27.845  11.230  22.380
 2621DPPC   C4A53144  27.665  11.010  22.660
 2621DPPC   C1B53145  28.075  10.720  21.350
 2621DPPC   C2B53146  27.795  10.880  21.630
 2621DPPC   C3B53147  27.675  10.940  21.950
 2621DPPC   C4B53148  27.475  10.780  22.260
 2622DPPC   NC353149  15.700  17.910  17.770
 2622DPPC   PO453150  15.910  18.100  18.080
 2622DPPC   GL153151  15.980  18.200  18.490
 2622DPPC   GL253152  15.780  18.220  18.750
 2622DPPC   C1A53153  16.190  18.600  18.760
 2622DPPC   C2A53154  16.610  18.930  18.880
 2622DPPC   C3A53155  16.860  18.950  19.280
 2622DPPC   C4A53156  16.970  19.150  19.680
 2622DPPC   C1B53157  16.170  18.110  19.050
 2622DPPC   C2B53158  16.520  18.240  19.060
 2622DPPC   C3B53159  16.940  18.000  19.200
 2622DPPC   C4B53160  17.140  18.190  19.600
 2623DPPC   NC353161  31.375  15.540  24.440
 2623DPPC   PO453162  31.285  15.990  24.450
 2623DPPC   GL153163  30.905  16.060  24.710
 2623DPPC   GL253164  30.825  16.410  24.610
 2623DPPC   C1A53165  30.475  15.970  24.970
 2623DPPC   C2A53166  30.075  15.960  25.220
 2623DPPC   C3A53167  29.695  15.910  25.370
 2623DPPC   C4A53168  29.425  15.920  25.790
 2623DPPC   C1B53169  30.775  16.360  25.060
 2623DPPC   C2B53170  30.565  16.290  25.370
 2623DPPC   C3B53171  30.335  16.070  25.670
 2623DPPC   C4B53172  29.865  16.110  25.860
 2624DPPC   NC353173  20.280  14.040  17.440
 2624DPPC   PO453174  20.200  13.830  17.850
 2624DPPC   GL153175  20.510  13.630  18.140
 2624DPPC   GL253176  20.560  13.220  18.180
 2624DPPC   C1A53177  20.570  13.780  18.550
 2624DPPC   C2A53178  20.720  14.110  18.780
 2624DPPC   C3A53179  20.930  14.500  18.900
 2624DPPC   C4A53180  21.150  14.830  19.160
 2624DPPC   C1B53181  20.660  13.310  18.550
 2624DPPC   C2B53182  20.550  13.420  19.010
 2624DPPC   C3B53183  20.560  13.800  19.300
 2624DPPC   C4B53184  20.480  13.990  19.700
 2625DPPC   NC353185  13.960  24.530  41.160
 2625DPPC   PO453186  14.170  24.280  40.740
 2625DPPC   GL153187  14.320  23.950  40.500
 2625DPPC   GL253188  14.390  23.820  40.700
 2625DPPC   C1A53189  14.660  23.810  40.230
 2625DPPC   C2A53190  14.910  23.590  39.850
 2625DPPC   C3A53191  15.150  23.730  39.440
 2625DPPC   C4A53192  15.230  24.180  39.290
 2625DPPC   C1B53193  14.690  23.450  40.610
 2625DPPC   C2B53194  14.880  23.090  40.610
 2625DPPC   C3B53195  14.770  22.540  40.630
 2625DPPC   C4B53196  14.810  22.190  40.400
 2626DPPC   NC353197  25.320   8.430  28.830
 2626DPPC   PO453198  25.260   8.240  28.410
 2626DPPC   GL153199  25.140   7.880  28.580
 2626DPPC   GL253200  25.040   7.690  28.380
 2626DPPC   C1A53201  25.250   7.330  28.750
 2626DPPC   C2A53202  25.490   7.050  28.470
 2626DPPC   C3A53203  25.400   6.670  28.380
 2626DPPC   C4A53204  25.380   6.310  28.180
 2626DPPC   C1B53205  24.980   7.310  28.130
 2626DPPC   C2B53206  25.070   6.890  28.100
 2626DPPC   C3B53207  25.290   6.590  27.800
 2626DPPC   C4B53208  25.300   6.050  27.760
 2627DPPC   NC353209  20.080  20.710  17.760
 2627DPPC   PO453210  20.060  20.350  17.730
 2627DPPC   GL153211  20.080  20.310  18.100
 2627DPPC   GL253212  20.410  20.220  18.240
 2627DPPC   C1A53213  20.000  20.150  18.530
 2627DPPC   C2A53214  19.910  19.860  18.860
 2627DPPC   C3A53215  19.900  20.020  19.260
 2627DPPC   C4A53216  19.590  20.190  19.530
 2627DPPC   C1B53217  20.230  19.780  18.290
 2627DPPC   C2B53218  20.400  19.350  18.360
 2627DPPC   C3B53219  20.370  19.170  18.760
 2627DPPC   C4B53220  20.520  18.910  19.060
 2628DPPC   NC353221  20.930  18.860  16.810
 2628DPPC   PO453222  20.840  19.000  17.200
 2628DPPC   GL153223  21.010  19.090  17.650
 2628DPPC   GL253224  21.090  19.390  17.820
 2628DPPC   C1A53225  20.680  18.990  17.900
 2628DPPC   C2A53226  20.610  18.910  18.310
 2628DPPC   C3A53227  20.170  18.700  18.390
 2628DPPC   C4A53228  20.070  18.430  18.820
 2628DPPC   C1B53229  21.140  19.010  18.130
 2628DPPC   C2B53230  21.290  18.630  18.310
 2628DPPC   C3B53231  21.210  18.440  18.710
 2628DPPC   C4B53232  21.040  18.150  19.040
 2629DPPC   NC353233  21.700  18.570  47.490
 2629DPPC   PO453234  21.280  18.370  47.610
 2629DPPC   GL153235  21.370  18.290  47.220
 2629DPPC   GL253236  21.690  18.100  47.230
 2629DPPC   C1A53237  21.460  18.210  46.810
 2629DPPC   C2A53238  21.440  18.230  46.440
 2629DPPC   C3A53239  21.440  18.150  46.050
 2629DPPC   C4A53240  21.680  17.930  45.770
 2629DPPC   C1B53241  21.850  17.860  46.740
 2629DPPC   C2B53242  21.830  17.700  46.250
 2629DPPC   C3B53243  21.980  17.420  46.000
 2629DPPC   C4B53244  22.210  17.200  45.680
 2630DPPC   NC353245  25.250   8.530  37.720
 2630DPPC   PO453246  25.510   8.650  37.960
 2630DPPC   GL153247  25.820   8.440  38.300
 2630DPPC   GL253248  25.740   8.560  38.580
 2630DPPC   C1A53249  26.160   8.250  38.560
 2630DPPC   C2A53250  26.320   8.020  38.880
 2630DPPC   C3A53251  26.535   7.740  39.000
 2630DPPC   C4A53252  26.815   7.510  38.810
 2630DPPC   C1B53253  25.510   8.210  38.590
 2630DPPC   C2B53254  25.660   7.970  38.460
 2630DPPC   C3B53255  25.840   7.570  38.440
 2630DPPC   C4B53256  25.700   7.050  38.380
 2631DPPC   NC353257  27.875  15.080  26.500
 2631DPPC   PO453258  27.685  15.410  26.220
 2631DPPC   GL153259  28.185  15.600  26.350
 2631DPPC   GL253260  28.365  15.300  26.470
 2631DPPC   C1A53261  28.565  15.730  26.520
 2631DPPC   C2A53262  28.755  16.050  26.630
 2631DPPC   C3A53263  28.995  16.240  26.990
 2631DPPC   C4A53264  29.395  16.190  27.190
 2631DPPC   C1B53265  28.695  15.050  26.490
 2631DPPC   C2B53266  29.215  15.120  26.580
 2631DPPC   C3B53267  29.645  14.870  26.550
 2631DPPC   C4B53268  29.915  14.460  26.670
 2632DPPC   NC353269  29.115  14.550  32.400
 2632DPPC   PO453270  29.185  14.130  32.180
 2632DPPC   GL153271  29.605  14.280  32.220
 2632DPPC   GL253272  29.845  14.080  32.320
 2632DPPC   C1A53273  30.055  14.330  32.010
 2632DPPC   C2A53274  30.495  14.460  31.800
 2632DPPC   C3A53275  30.555  14.670  31.460
 2632DPPC   C4A53276  31.015  14.820  31.270
 2632DPPC   C1B53277  30.115  14.470  32.500
 2632DPPC   C2B53278  30.295  14.770  32.760
 2632DPPC   C3B53279  30.755  14.810  32.790
 2632DPPC   C4B53280  30.995  14.740  33.190
 2633DPPC   NC353281  21.880  22.490  37.410
 2633DPPC   PO453282  21.620  22.630  37.810
 2633DPPC   GL153283  21.790  23.060  37.990
 2633DPPC   GL253284  21.970  23.130  37.690
 2633DPPC   C1A53285  22.190  23.360  38.150
 2633DPPC   C2A53286  22.520  23.520  38.230
 2633DPPC   C3A53287  22.760  23.840  38.340
 2633DPPC   C4A53288  23.000  24.180  38.460
 2633DPPC   C1B53289  21.910  23.460  37.710
 2633DPPC   C2B53290  21.950  23.740  37.980
 2633DPPC   C3B53291  22.080  24.270  37.830
 2633DPPC   C4B53292  22.080  24.430  37.500
 2634DPPC   NC353293  22.280  18.430  22.840
 2634DPPC   PO453294  22.380  18.740  22.530
 2634DPPC   GL153295  22.310  18.960  22.090
 2634DPPC   GL253296  22.090  18.700  21.970
 2634DPPC   C1A53297  22.600  19.070  21.710
 2634DPPC   C2A53298  22.670  19.220  21.390
 2634DPPC   C3A53299  22.860  19.410  21.040
 2634DPPC   C4A53300  22.860  19.900  20.990
 2634DPPC   C1B53301  22.170  18.840  21.600
 2634DPPC   C2B53302  22.280  18.990  21.200
 2634DPPC   C3B53303  22.230  19.050  20.720
 2634DPPC   C4B53304  22.200  19.080  20.200
 2635DPPC   NC353305  14.490  15.640  32.200
 2635DPPC   PO453306  14.730  15.140  32.210
 2635DPPC   GL153307  14.470  14.860  32.070
 2635DPPC   GL253308  14.320  14.710  32.380
 2635DPPC   C1A53309  14.180  14.660  31.920
 2635DPPC   C2A53310  13.810  14.430  32.070
 2635DPPC   C3A53311  13.510  14.110  32.100
 2635DPPC   C4A53312  13.550  14.090  32.510
 2635DPPC   C1B53313  14.070  14.830  32.630
 2635DPPC   C2B53314  13.830  15.110  32.940
 2635DPPC   C3B53315  13.410  15.240  33.040
 2635DPPC   C4B53316  12.970  15.080  32.880
 2636DPPC   NC353317  21.940   9.400  28.400
 2636DPPC   PO453318  22.160   9.110  28.040
 2636DPPC   GL153319  22.000   8.730  27.880
 2636DPPC   GL253320  22.100   8.480  27.800
 2636DPPC   C1A53321  21.610   8.460  27.820
 2636DPPC   C2A53322  21.370   8.180  27.610
 2636DPPC   C3A53323  21.400   7.900  27.250
 2636DPPC   C4A53324  21.390   7.600  27.180
 2636DPPC   C1B53325  21.930   8.130  27.550
 2636DPPC   C2B53326  21.870   7.670  27.390
 2636DPPC   C3B53327  21.800   7.220  27.240
 2636DPPC   C4B53328  21.950   6.750  27.110
 2637DPPC   NC353329  14.950  14.880  31.850
 2637DPPC   PO453330  15.210  14.900  31.610
 2637DPPC   GL153331  15.150  14.450  31.730
 2637DPPC   GL253332  14.930  14.390  31.930
 2637DPPC   C1A53333  15.100  13.920  31.770
 2637DPPC   C2A53334  14.790  13.790  31.750
 2637DPPC   C3A53335  14.390  13.550  31.710
 2637DPPC   C4A53336  14.050  13.180  31.740
 2637DPPC   C1B53337  14.560  14.250  31.890
 2637DPPC   C2B53338  14.210  14.030  31.850
 2637DPPC   C3B53339  13.820  14.130  31.700
 2637DPPC   C4B53340  13.470  14.350  31.640
 2638DPPC   NC353341  27.155  16.600  40.880
 2638DPPC   PO453342  27.255  16.830  40.540
 2638DPPC   GL153343  27.615  17.030  40.910
 2638DPPC   GL253344  27.555  16.700  41.120
 2638DPPC   C1A53345  27.955  17.110  40.930
 2638DPPC   C2A53346  28.355  16.970  40.780
 2638DPPC   C3A53347  28.565  16.600  40.910
 2638DPPC   C4A53348  28.715  16.240  40.720
 2638DPPC   C1B53349  27.825  16.430  41.390
 2638DPPC   C2B53350  27.945  16.330  41.780
 2638DPPC   C3B53351  27.875  16.030  42.210
 2638DPPC   C4B53352  27.935  15.690  42.490
 2639DPPC   NC353353  27.495  11.710  39.080
 2639DPPC   PO453354  27.725  11.770  39.460
 2639DPPC   GL153355  28.025  11.730  39.840
 2639DPPC   GL253356  27.795  11.510  39.900
 2639DPPC   C1A53357  28.455  11.890  39.820
 2639DPPC   C2A53358  28.945  12.050  39.750
 2639DPPC   C3A53359  29.285  12.330  39.750
 2639DPPC   C4A53360  29.735  12.320  39.660
 2639DPPC   C1B53361  27.825  11.140  40.050
 2639DPPC   C2B53362  28.045  10.930  40.400
 2639DPPC   C3B53363  27.865  10.490  40.610
 2639DPPC   C4B53364  28.035  10.430  40.900
 2640DPPC   NC353365  28.365   8.840  34.960
 2640DPPC   PO453366  28.765   9.130  35.050
 2640DPPC   GL153367  28.955   8.710  35.120
 2640DPPC   GL253368  28.735   8.590  35.210
 2640DPPC   C1A53369  29.195   8.510  35.180
 2640DPPC   C2A53370  29.445   8.410  35.470
 2640DPPC   C3A53371  29.445   8.350  35.840
 2640DPPC   C4A53372  29.165   8.320  36.070
 2640DPPC   C1B53373  28.905   8.320  35.530
 2640DPPC   C2B53374  28.975   7.990  35.700
 2640DPPC   C3B53375  29.095   7.540  35.790
 2640DPPC   C4B53376  28.965   7.080  35.740
 2641DPPC   NC353377  18.270   0.770  40.610
 2641DPPC   PO453378  18.190   0.440  40.340
 2641DPPC   GL153379  18.220   0.130  40.050
 2641DPPC   GL253380  18.180  26.310  40.140
 2641DPPC   C1A53381  18.310  26.400  39.660
 2641DPPC   C2A53382  18.240  26.210  39.300
 2641DPPC   C3A53383  18.590  25.980  39.060
 2641DPPC   C4A53384  18.980  25.890  39.260
 2641DPPC   C1B53385  18.430  25.970  40.150
 2641DPPC   C2B53386  18.830  25.770  40.040
 2641DPPC   C3B53387  19.050  25.420  40.040
 2641DPPC   C4B53388  19.410  25.170  40.010
 2642DPPC   NC353389  18.210  23.650  24.900
 2642DPPC   PO453390  18.170  23.750  25.330
 2642DPPC   GL153391  17.810  24.080  25.180
 2642DPPC   GL253392  17.970  24.180  24.920
 2642DPPC   C1A53393  17.410  24.380  25.170
 2642DPPC   C2A53394  17.230  24.670  25.030
 2642DPPC   C3A53395  17.090  24.990  24.930
 2642DPPC   C4A53396  16.920  25.360  24.670
 2642DPPC   C1B53397  18.440  24.300  24.880
 2642DPPC   C2B53398  18.660  24.670  24.720
 2642DPPC   C3B53399  18.930  24.700  24.460
 2642DPPC   C4B53400  19.310  24.900  24.330
 2643DPPC   NC353401  17.580  24.330  36.420
 2643DPPC   PO453402  17.510  24.540  36.140
 2643DPPC   GL153403  17.710  24.850  36.240
 2643DPPC   GL253404  17.910  25.100  36.130
 2643DPPC   C1A53405  17.670  25.150  36.590
 2643DPPC   C2A53406  17.770  25.460  36.930
 2643DPPC   C3A53407  17.580  25.680  37.230
 2643DPPC   C4A53408  17.330  25.770  37.570
 2643DPPC   C1B53409  18.150  25.470  36.020
 2643DPPC   C2B53410  17.930  25.870  36.060
 2643DPPC   C3B53411  17.960  26.280  35.890
 2643DPPC   C4B53412  18.120  26.320  35.430
 2644DPPC   NC353413  15.230   7.800  34.470
 2644DPPC   PO453414  15.010   7.730  34.100
 2644DPPC   GL153415  15.410   7.980  34.050
 2644DPPC   GL253416  15.540   8.220  34.290
 2644DPPC   C1A53417  15.670   8.270  33.760
 2644DPPC   C2A53418  16.010   8.650  33.800
 2644DPPC   C3A53419  16.280   8.910  33.860
 2644DPPC   C4A53420  16.700   9.070  33.680
 2644DPPC   C1B53421  15.880   8.510  34.250
 2644DPPC   C2B53422  16.150   8.730  34.440
 2644DPPC   C3B53423  16.370   9.120  34.610
 2644DPPC   C4B53424  16.670   9.540  34.600
 2645DPPC   NC353425  21.520   9.030  33.530
 2645DPPC   PO453426  21.090   8.800  33.460
 2645DPPC   GL153427  20.790   8.450  33.450
 2645DPPC   GL253428  21.000   8.240  33.590
 2645DPPC   C1A53429  20.600   8.180  33.280
 2645DPPC   C2A53430  20.230   7.930  33.040
 2645DPPC   C3A53431  19.890   7.850  32.800
 2645DPPC   C4A53432  19.680   7.530  32.640
 2645DPPC   C1B53433  20.660   7.900  33.700
 2645DPPC   C2B53434  20.660   7.520  33.790
 2645DPPC   C3B53435  20.580   7.140  33.510
 2645DPPC   C4B53436  20.520   7.110  32.990
 2646DPPC   NC353437  14.500  23.290  32.670
 2646DPPC   PO453438  14.120  23.140  32.760
 2646DPPC   GL153439  13.880  23.460  32.930
 2646DPPC   GL253440  13.990  23.810  32.720
 2646DPPC   C1A53441  13.560  23.830  32.970
 2646DPPC   C2A53442  13.210  24.190  33.100
 2646DPPC   C3A53443  12.960  24.440  33.450
 2646DPPC   C4A53444  12.810  24.640  33.770
 2646DPPC   C1B53445  13.720  24.240  32.750
 2646DPPC   C2B53446  13.620  24.560  32.920
 2646DPPC   C3B53447  13.630  25.020  32.890
 2646DPPC   C4B53448  13.480  25.370  32.620
 2647DPPC   NC353449  19.150   9.820  31.290
 2647DPPC   PO453450  19.100  10.010  31.730
 2647DPPC   GL153451  18.690   9.900  31.470
 2647DPPC   GL253452  18.670   9.870  31.110
 2647DPPC   C1A53453  18.190   9.880  31.460
 2647DPPC   C2A53454  17.670   9.820  31.430
 2647DPPC   C3A53455  17.300   9.680  31.340
 2647DPPC   C4A53456  16.930   9.440  31.130
 2647DPPC   C1B53457  18.410   9.540  31.020
 2647DPPC   C2B53458  18.290   9.030  31.080
 2647DPPC   C3B53459  18.470   8.670  30.860
 2647DPPC   C4B53460  18.650   8.250  30.780
 2648DPPC   NC353461  15.400  16.740  38.510
 2648DPPC   PO453462  15.210  16.730  38.950
 2648DPPC   GL153463  15.240  16.700  39.310
 2648DPPC   GL253464  15.270  16.900  39.460
 2648DPPC   C1A53465  15.160  16.460  39.620
 2648DPPC   C2A53466  15.110  16.640  39.950
 2648DPPC   C3A53467  14.770  16.810  40.160
 2648DPPC   C4A53468  14.540  17.040  40.370
 2648DPPC   C1B53469  14.980  17.080  39.710
 2648DPPC   C2B53470  14.550  17.010  39.780
 2648DPPC   C3B53471  14.200  16.840  39.990
 2648DPPC   C4B53472  13.940  16.520  40.240
 2649DPPC   NC353473  25.860  17.390  41.650
 2649DPPC   PO453474  25.860  17.030  41.900
 2649DPPC   GL153475  26.120  17.170  42.070
 2649DPPC   GL253476  26.170  17.560  42.120
 2649DPPC   C1A53477  26.465  17.110  42.260
 2649DPPC   C2A53478  26.845  16.940  42.540
 2649DPPC   C3A53479  27.255  17.130  42.570
 2649DPPC   C4A53480  27.625  17.350  42.750
 2649DPPC   C1B53481  26.410  17.800  42.460
 2649DPPC   C2B53482  26.625  17.890  42.780
 2649DPPC   C3B53483  26.885  18.150  43.010
 2649DPPC   C4B53484  27.235  18.320  42.960
 2650DPPC   NC353485  33.965  12.380  32.270
 2650DPPC   PO453486  33.595  12.510  32.630
 2650DPPC   GL153487  33.085  12.520  32.730
 2650DPPC   GL253488  33.025  12.660  33.080
 2650DPPC   C1A53489  32.675  12.250  32.680
 2650DPPC   C2A53490  32.555  11.870  32.810
 2650DPPC   C3A53491  32.565  11.430  32.840
 2650DPPC   C4A53492  32.675  10.980  32.750
 2650DPPC   C1B53493  32.635  12.710  33.270
 2650DPPC   C2B53494  32.205  12.640  33.390
 2650DPPC   C3B53495  31.735  12.450  33.390
 2650DPPC   C4B53496  31.365  12.200  33.280
 2651DPPC   NC353497  26.330  15.660  25.190
 2651DPPC   PO453498  26.715  16.070  25.150
 2651DPPC   GL153499  27.135  16.070  24.940
 2651DPPC   GL253500  27.135  16.250  24.710
 2651DPPC   C1A53501  27.625  16.130  25.010
 2651DPPC   C2A53502  27.895  16.260  24.780
 2651DPPC   C3A53503  28.325  16.190  24.820
 2651DPPC   C4A53504  28.825  16.180  24.790
 2651DPPC   C1B53505  27.495  16.440  24.580
 2651DPPC   C2B53506  27.715  16.720  24.430
 2651DPPC   C3B53507  27.905  17.070  24.100
 2651DPPC   C4B53508  27.775  17.370  23.750
 2652DPPC   NC353509  28.505  11.540  26.840
 2652DPPC   PO453510  28.645  11.330  27.150
 2652DPPC   GL153511  28.965  11.510  27.140
 2652DPPC   GL253512  29.045  11.680  27.460
 2652DPPC   C1A53513  29.435  11.360  27.100
 2652DPPC   C2A53514  29.815  11.470  27.090
 2652DPPC   C3A53515  30.205  11.690  27.030
 2652DPPC   C4A53516  30.565  11.620  26.940
 2652DPPC   C1B53517  29.355  11.820  27.230
 2652DPPC   C2B53518  29.765  11.980  27.010
 2652DPPC   C3B53519  29.935  12.220  26.760
 2652DPPC   C4B53520  30.415  12.170  26.920
 2653DPPC   NC353521  15.280  14.170  32.960
 2653DPPC   PO453522  15.070  14.490  33.360
 2653DPPC   GL153523  14.920  14.130  33.460
 2653DPPC   GL253524  14.890  13.910  33.250
 2653DPPC   C1A53525  14.660  13.830  33.720
 2653DPPC   C2A53526  14.170  13.760  33.680
 2653DPPC   C3A53527  14.010  14.040  33.220
 2653DPPC   C4A53528  13.790  13.890  32.980
 2653DPPC   C1B53529  14.720  13.590  32.990
 2653DPPC   C2B53530  14.530  13.160  33.070
 2653DPPC   C3B53531  14.090  12.900  33.200
 2653DPPC   C4B53532  14.250  12.580  32.930
 2654DPPC   NC353533  19.950  10.620  25.630
 2654DPPC   PO453534  19.610  10.580  25.840
 2654DPPC   GL153535  19.640  10.160  25.840
 2654DPPC   GL253536  19.770  10.150  25.520
 2654DPPC   C1A53537  19.540   9.730  25.710
 2654DPPC   C2A53538  19.200   9.350  25.760
 2654DPPC   C3A53539  18.800   9.370  25.720
 2654DPPC   C4A53540  18.490   9.460  25.480
 2654DPPC   C1B53541  19.380  10.090  25.370
 2654DPPC   C2B53542  19.100   9.740  25.290
 2654DPPC   C3B53543  19.210   9.300  25.280
 2654DPPC   C4B53544  19.040   9.000  25.440
 2655DPPC   NC353545  26.545   3.890  36.670
 2655DPPC   PO453546  26.440   3.850  37.040
 2655DPPC   GL153547  26.370   4.260  36.960
 2655DPPC   GL253548  26.715   4.240  36.990
 2655DPPC   C1A53549  26.340   4.750  36.990
 2655DPPC   C2A53550  26.310   5.210  36.920
 2655DPPC   C3A53551  26.390   5.670  36.790
 2655DPPC   C4A53552  26.180   6.000  36.470
 2655DPPC   C1B53553  26.755   4.570  36.670
 2655DPPC   C2B53554  26.725   4.870  36.610
 2655DPPC   C3B53555  26.635   5.320  36.450
 2655DPPC   C4B53556  26.815   5.850  36.390
 2656DPPC   NC353557  28.525   7.590  22.930
 2656DPPC   PO453558  28.435   7.310  23.220
 2656DPPC   GL153559  28.565   7.590  23.480
 2656DPPC   GL253560  28.715   7.500  23.740
 2656DPPC   C1A53561  28.365   7.920  23.690
 2656DPPC   C2A53562  28.115   8.200  23.800
 2656DPPC   C3A53563  28.215   8.700  23.610
 2656DPPC   C4A53564  27.985   8.980  23.700
 2656DPPC   C1B53565  28.845   7.900  23.770
 2656DPPC   C2B53566  28.845   8.070  24.150
 2656DPPC   C3B53567  29.085   8.170  24.520
 2656DPPC   C4B53568  29.105   8.520  24.730
 2657DPPC   NC353569  23.210  18.750  23.220
 2657DPPC   PO453570  22.980  19.200  23.180
 2657DPPC   GL153571  23.100  19.210  22.760
 2657DPPC   GL253572  23.410  19.310  22.790
 2657DPPC   C1A53573  23.110  19.490  22.410
 2657DPPC   C2A53574  23.350  19.600  22.130
 2657DPPC   C3A53575  23.580  19.630  21.690
 2657DPPC   C4A53576  23.760  19.900  21.450
 2657DPPC   C1B53577  23.650  19.270  22.390
 2657DPPC   C2B53578  24.040  19.460  22.170
 2657DPPC   C3B53579  24.210  19.690  21.860
 2657DPPC   C4B53580  24.500  19.960  21.730
 2658DPPC   NC353581  13.740  19.730  35.070
 2658DPPC   PO453582  13.820  20.030  34.850
 2658DPPC   GL153583  13.310  20.180  34.800
 2658DPPC   GL253584  13.280  20.060  35.120
 2658DPPC   C1A53585  12.970  20.380  34.900
 2658DPPC   C2A53586  12.520  20.330  34.710
 2658DPPC   C3A53587  12.180  20.180  34.630
 2658DPPC   C4A53588  11.730  20.290  34.620
 2658DPPC   C1B53589  12.950  20.040  35.240
 2658DPPC   C2B53590  12.530  20.100  35.230
 2658DPPC   C3B53591  12.160  20.030  35.250
 2658DPPC   C4B53592  11.740  20.070  35.130
 2659DPPC   NC353593  16.750  20.070  22.400
 2659DPPC   PO453594  16.940  19.960  22.110
 2659DPPC   GL153595  16.590  20.090  21.890
 2659DPPC   GL253596  16.300  20.040  21.760
 2659DPPC   C1A53597  16.620  20.430  21.720
 2659DPPC   C2A53598  16.490  20.790  21.490
 2659DPPC   C3A53599  16.270  20.840  21.080
 2659DPPC   C4A53600  16.180  20.560  20.790
 2659DPPC   C1B53601  15.930  20.110  21.570
 2659DPPC   C2B53602  15.720  20.170  21.230
 2659DPPC   C3B53603  15.430  20.430  20.970
 2659DPPC   C4B53604  14.950  20.520  21.100
 2660DPPC   NC353605  16.690  16.090  40.010
 2660DPPC   PO453606  16.250  15.780  39.880
 2660DPPC   GL153607  15.830  15.710  39.850
 2660DPPC   GL253608  15.880  15.450  39.710
 2660DPPC   C1A53609  15.420  15.760  40.050
 2660DPPC   C2A53610  15.090  15.650  40.260
 2660DPPC   C3A53611  14.760  15.960  40.450
 2660DPPC   C4A53612  14.610  16.110  40.840
 2660DPPC   C1B53613  15.530  15.230  39.810
 2660DPPC   C2B53614  15.340  14.840  39.760
 2660DPPC   C3B53615  15.250  14.340  39.720
 2660DPPC   C4B53616  15.150  13.910  39.970
 2661DPPC   NC353617  15.760  20.030  18.510
 2661DPPC   PO453618  15.270  20.040  18.530
 2661DPPC   GL153619  15.420  19.880  18.850
 2661DPPC   GL253620  15.220  19.940  19.090
 2661DPPC   C1A53621  15.720  19.930  19.140
 2661DPPC   C2A53622  15.830  20.010  19.560
 2661DPPC   C3A53623  15.920  20.450  19.750
 2661DPPC   C4A53624  15.810  20.830  19.970
 2661DPPC   C1B53625  15.350  19.880  19.510
 2661DPPC   C2B53626  15.400  19.960  19.950
 2661DPPC   C3B53627  15.180  20.200  20.270
 2661DPPC   C4B53628  15.150  20.490  20.520
 2662DPPC   NC353629  20.480  22.000  39.870
 2662DPPC   PO453630  20.150  22.240  40.040
 2662DPPC   GL153631  20.120  22.610  40.330
 2662DPPC   GL253632  19.820  22.740  40.490
 2662DPPC   C1A53633  20.230  23.080  40.460
 2662DPPC   C2A53634  20.230  23.490  40.730
 2662DPPC   C3A53635  19.980  23.790  41.040
 2662DPPC   C4A53636  19.850  24.200  41.150
 2662DPPC   C1B53637  19.790  23.130  40.620
 2662DPPC   C2B53638  19.470  23.540  40.680
 2662DPPC   C3B53639  19.470  23.890  40.780
 2662DPPC   C4B53640  19.160  24.170  40.950
 2663DPPC   NC353641  16.280  16.860  23.360
 2663DPPC   PO453642  16.110  16.400  23.450
 2663DPPC   GL153643  15.780  16.060  23.380
 2663DPPC   GL253644  15.800  15.760  23.510
 2663DPPC   C1A53645  15.590  15.810  23.060
 2663DPPC   C2A53646  15.290  15.620  22.940
 2663DPPC   C3A53647  15.050  15.260  23.100
 2663DPPC   C4A53648  15.330  14.980  23.170
 2663DPPC   C1B53649  15.420  15.630  23.550
 2663DPPC   C2B53650  15.150  15.300  23.580
 2663DPPC   C3B53651  14.790  15.090  23.510
 2663DPPC   C4B53652  14.350  14.880  23.440
 2664DPPC   NC353653  14.780  18.280  25.080
 2664DPPC   PO453654  14.970  18.560  24.780
 2664DPPC   GL153655  14.670  18.380  24.500
 2664DPPC   GL253656  14.790  18.360  24.230
 2664DPPC   C1A53657  14.180  18.390  24.410
 2664DPPC   C2A53658  14.080  18.820  24.120
 2664DPPC   C3A53659  13.810  18.950  23.610
 2664DPPC   C4A53660  13.640  18.580  23.330
 2664DPPC   C1B53661  14.420  18.290  23.910
 2664DPPC   C2B53662  14.060  18.250  23.900
 2664DPPC   C3B53663  13.630  18.000  23.940
 2664DPPC   C4B53664  13.280  17.780  23.840
 2665DPPC   NC353665  15.990  20.630  39.130
 2665DPPC   PO453666  16.090  21.090  39.070
 2665DPPC   GL153667  15.730  21.320  39.320
 2665DPPC   GL253668  15.810  21.560  39.160
 2665DPPC   C1A53669  15.420  21.470  39.590
 2665DPPC   C2A53670  15.000  21.450  39.690
 2665DPPC   C3A53671  14.740  21.350  39.880
 2665DPPC   C4A53672  14.380  21.340  40.250
 2665DPPC   C1B53673  15.390  21.770  39.160
 2665DPPC   C2B53674  14.950  21.960  39.140
 2665DPPC   C3B53675  14.610  22.170  39.220
 2665DPPC   C4B53676  14.280  22.030  39.400
 2666DPPC   NC353677  17.610  23.500  37.370
 2666DPPC   PO453678  17.430  23.670  37.860
 2666DPPC   GL153679  17.260  23.980  38.130
 2666DPPC   GL253680  17.050  23.830  38.350
 2666DPPC   C1A53681  17.140  24.410  38.220
 2666DPPC   C2A53682  17.320  24.760  38.430
 2666DPPC   C3A53683  17.000  25.060  38.650
 2666DPPC   C4A53684  16.580  25.180  38.520
 2666DPPC   C1B53685  16.750  24.200  38.250
 2666DPPC   C2B53686  16.670  24.670  38.130
 2666DPPC   C3B53687  16.900  25.030  38.120
 2666DPPC   C4B53688  16.780  25.430  38.150
 2667DPPC   NC353689  32.405  17.470  33.520
 2667DPPC   PO453690  32.245  17.760  33.850
 2667DPPC   GL153691  32.005  17.490  33.850
 2667DPPC   GL253692  31.735  17.530  33.870
 2667DPPC   C1A53693  31.845  17.080  33.730
 2667DPPC   C2A53694  31.485  16.760  33.960
 2667DPPC   C3A53695  31.405  16.440  34.250
 2667DPPC   C4A53696  31.145  16.130  34.460
 2667DPPC   C1B53697  31.395  17.230  34.110
 2667DPPC   C2B53698  31.225  16.910  34.350
 2667DPPC   C3B53699  30.955  16.520  34.280
 2667DPPC   C4B53700  30.745  16.290  34.120
 2668DPPC   NC353701  20.890  24.130  34.190
 2668DPPC   PO453702  20.680  24.070  34.470
 2668DPPC   GL153703  20.690  24.470  34.460
 2668DPPC   GL253704  20.760  24.600  34.190
 2668DPPC   C1A53705  20.600  24.960  34.650
 2668DPPC   C2A53706  20.510  25.290  34.900
 2668DPPC   C3A53707  20.630  25.660  34.990
 2668DPPC   C4A53708  20.960  26.070  34.950
 2668DPPC   C1B53709  21.070  24.880  34.070
 2668DPPC   C2B53710  21.210  25.240  34.290
 2668DPPC   C3B53711  20.950  25.620  34.190
 2668DPPC   C4B53712  21.040  26.020  33.960
 2669DPPC   NC353713  18.180  24.690  31.970
 2669DPPC   PO453714  18.400  24.630  32.330
 2669DPPC   GL153715  18.480  25.080  32.240
 2669DPPC   GL253716  18.410  25.310  32.420
 2669DPPC   C1A53717  18.280  25.390  31.980
 2669DPPC   C2A53718  18.210  25.800  31.770
 2669DPPC   C3A53719  18.090  26.220  31.880
 2669DPPC   C4A53720  17.860   0.100  32.040
 2669DPPC   C1B53721  18.520  25.640  32.700
 2669DPPC   C2B53722  18.780  25.980  32.690
 2669DPPC   C3B53723  19.000  26.270  32.900
 2669DPPC   C4B53724  18.980   0.220  32.810
 2670DPPC   NC353725  17.750  25.080  33.700
 2670DPPC   PO453726  18.050  24.860  33.330
 2670DPPC   GL153727  18.120  25.280  33.380
 2670DPPC   GL253728  18.430  25.380  33.630
 2670DPPC   C1A53729  18.030  25.680  33.500
 2670DPPC   C2A53730  18.080  26.040  33.460
 2670DPPC   C3A53731  17.970  26.420  33.460
 2670DPPC   C4A53732  18.140   0.210  33.620
 2670DPPC   C1B53733  18.460  25.800  33.740
 2670DPPC   C2B53734  18.470  26.270  33.760
 2670DPPC   C3B53735  18.490   0.030  34.080
 2670DPPC   C4B53736  18.690   0.160  34.420
 2671DPPC   NC353737  21.330  12.480  40.470
 2671DPPC   PO453738  21.000  12.330  40.820
 2671DPPC   GL153739  20.640  12.130  41.110
 2671DPPC   GL253740  20.340  12.330  41.420
 2671DPPC   C1A53741  20.420  11.810  41.150
 2671DPPC   C2A53742  20.110  11.630  41.400
 2671DPPC   C3A53743  19.670  11.600  41.390
 2671DPPC   C4A53744  19.230  11.590  41.360
 2671DPPC   C1B53745  20.270  12.020  41.720
 2671DPPC   C2B53746  20.130  11.580  42.000
 2671DPPC   C3B53747  19.790  11.380  41.790
 2671DPPC   C4B53748  19.480  11.160  41.520
 2672DPPC   NC353749  33.815  12.490  33.150
 2672DPPC   PO453750  33.465  12.830  33.090
 2672DPPC   GL153751  33.095  13.090  33.320
 2672DPPC   GL253752  32.985  13.410  33.390
 2672DPPC   C1A53753  32.815  12.990  33.600
 2672DPPC   C2A53754  32.635  12.610  33.850
 2672DPPC   C3A53755  32.495  12.350  34.180
 2672DPPC   C4A53756  32.185  12.120  34.320
 2672DPPC   C1B53757  32.535  13.270  33.250
 2672DPPC   C2B53758  32.195  13.150  33.290
 2672DPPC   C3B53759  31.715  12.930  33.280
 2672DPPC   C4B53760  31.355  12.740  33.280
 2673DPPC   NC353761  24.680  20.270  38.990
 2673DPPC   PO453762  25.050  20.500  38.970
 2673DPPC   GL153763  25.390  20.750  39.080
 2673DPPC   GL253764  25.350  20.840  39.280
 2673DPPC   C1A53765  25.780  20.910  39.050
 2673DPPC   C2A53766  26.130  21.130  38.820
 2673DPPC   C3A53767  26.380  21.190  39.200
 2673DPPC   C4A53768  26.535  21.440  39.570
 2673DPPC   C1B53769  25.650  21.290  39.380
 2673DPPC   C2B53770  26.000  21.500  39.420
 2673DPPC   C3B53771  26.110  21.870  39.520
 2673DPPC   C4B53772  26.330  22.190  39.340
 2674DPPC   NC353773  24.240  15.630  21.530
 2674DPPC   PO453774  23.970  15.970  21.450
 2674DPPC   GL153775  24.310  16.150  21.290
 2674DPPC   GL253776  24.670  16.200  21.460
 2674DPPC   C1A53777  24.580  16.180  20.910
 2674DPPC   C2A53778  24.940  16.300  20.690
 2674DPPC   C3A53779  24.890  16.360  20.330
 2674DPPC   C4A53780  24.930  16.200  19.850
 2674DPPC   C1B53781  24.980  16.020  21.100
 2674DPPC   C2B53782  24.890  15.790  20.640
 2674DPPC   C3B53783  24.540  15.530  20.560
 2674DPPC   C4B53784  24.380  15.100  20.420
 2675DPPC   NC353785  29.625  13.310  34.080
 2675DPPC   PO453786  29.605  13.840  34.170
 2675DPPC   GL153787  30.105  13.990  34.190
 2675DPPC   GL253788  30.125  14.340  34.120
 2675DPPC   C1A53789  30.465  13.920  34.430
 2675DPPC   C2A53790  30.895  13.980  34.610
 2675DPPC   C3A53791  31.325  13.880  34.390
 2675DPPC   C4A53792  31.665  14.060  34.480
 2675DPPC   C1B53793  30.635  14.350  34.170
 2675DPPC   C2B53794  31.075  14.290  34.190
 2675DPPC   C3B53795  31.255  14.380  34.450
 2675DPPC   C4B53796  31.405  14.730  34.650
 2676DPPC   NC353797  20.540  23.720  28.660
 2676DPPC   PO453798  20.730  23.840  28.260
 2676DPPC   GL153799  20.960  24.140  28.300
 2676DPPC   GL253800  21.230  24.010  28.110
 2676DPPC   C1A53801  21.190  24.540  28.170
 2676DPPC   C2A53802  21.320  25.010  28.140
 2676DPPC   C3A53803  21.250  25.160  27.700
 2676DPPC   C4A53804  21.380  25.580  27.430
 2676DPPC   C1B53805  21.420  24.310  27.730
 2676DPPC   C2B53806  21.610  24.690  27.890
 2676DPPC   C3B53807  21.790  25.090  28.080
 2676DPPC   C4B53808  22.050  25.290  28.350
 2677DPPC   NC353809  18.520  11.320  34.260
 2677DPPC   PO453810  18.440  10.890  34.300
 2677DPPC   GL153811  18.060  10.580  34.380
 2677DPPC   GL253812  17.900  10.550  34.690
 2677DPPC   C1A53813  17.690  10.410  34.090
 2677DPPC   C2A53814  17.560  10.140  33.740
 2677DPPC   C3A53815  17.300   9.850  33.560
 2677DPPC   C4A53816  17.010   9.560  33.610
 2677DPPC   C1B53817  17.770  10.130  34.540
 2677DPPC   C2B53818  17.780   9.740  34.600
 2677DPPC   C3B53819  17.820   9.320  34.820
 2677DPPC   C4B53820  18.170   9.080  34.790
 2678DPPC   NC353821  14.980  19.100  24.840
 2678DPPC   PO453822  14.770  19.340  24.480
 2678DPPC   GL153823  14.390  19.510  24.450
 2678DPPC   GL253824  14.200  19.240  24.340
 2678DPPC   C1A53825  14.060  19.800  24.250
 2678DPPC   C2A53826  13.900  20.180  24.050
 2678DPPC   C3A53827  13.550  20.420  23.890
 2678DPPC   C4A53828  13.160  20.290  23.680
 2678DPPC   C1B53829  13.990  19.330  23.950
 2678DPPC   C2B53830  13.690  19.430  23.860
 2678DPPC   C3B53831  13.220  19.530  23.740
 2678DPPC   C4B53832  12.960  19.220  23.740
 2679DPPC   NC353833  20.220  15.390  16.840
 2679DPPC   PO453834  20.200  15.600  17.250
 2679DPPC   GL153835  20.500  15.910  17.560
 2679DPPC   GL253836  20.440  15.830  17.960
 2679DPPC   C1A53837  20.850  16.230  17.730
 2679DPPC   C2A53838  21.200  16.430  17.700
 2679DPPC   C3A53839  21.420  16.530  18.130
 2679DPPC   C4A53840  21.750  16.720  18.440
 2679DPPC   C1B53841  20.760  16.000  18.160
 2679DPPC   C2B53842  20.800  16.230  18.480
 2679DPPC   C3B53843  20.980  16.400  18.880
 2679DPPC   C4B53844  21.410  16.460  18.710
 2680DPPC   NC353845  21.720   1.940  32.570
 2680DPPC   PO453846  21.440   1.540  32.620
 2680DPPC   GL153847  21.150   1.320  32.520
 2680DPPC   GL253848  20.950   1.340  32.290
 2680DPPC   C1A53849  20.940   1.000  32.700
 2680DPPC   C2A53850  20.670   0.710  32.700
 2680DPPC   C3A53851  20.720   0.390  32.880
 2680DPPC   C4A53852  20.320   0.120  33.000
 2680DPPC   C1B53853  20.700   0.940  32.230
 2680DPPC   C2B53854  20.470   0.580  32.030
 2680DPPC   C3B53855  20.220   0.230  31.980
 2680DPPC   C4B53856  20.060  26.310  31.880
 2681DPPC   NC353857  30.805   5.510  31.460
 2681DPPC   PO453858  30.435   5.480  31.220
 2681DPPC   GL153859  30.065   5.690  31.280
 2681DPPC   GL253860  30.195   6.040  31.280
 2681DPPC   C1A53861  29.675   5.890  31.250
 2681DPPC   C2A53862  29.245   6.130  31.210
 2681DPPC   C3A53863  28.935   6.350  31.450
 2681DPPC   C4A53864  29.065   6.700  31.570
 2681DPPC   C1B53865  30.155   6.390  31.520
 2681DPPC   C2B53866  30.065   6.770  31.560
 2681DPPC   C3B53867  29.815   7.140  31.710
 2681DPPC   C4B53868  29.405   7.450  31.750
 2682DPPC   NC353869  17.070   2.100  29.790
 2682DPPC   PO453870  16.700   2.020  29.810
 2682DPPC   GL153871  16.620   1.600  29.650
 2682DPPC   GL253872  16.400   1.480  29.670
 2682DPPC   C1A53873  16.740   1.240  29.940
 2682DPPC   C2A53874  16.670   0.810  30.160
 2682DPPC   C3A53875  16.640   0.390  30.140
 2682DPPC   C4A53876  16.560  26.380  30.130
 2682DPPC   C1B53877  16.260   1.050  29.800
 2682DPPC   C2B53878  16.450   0.650  29.570
 2682DPPC   C3B53879  16.660   0.270  29.630
 2682DPPC   C4B53880  17.010  26.350  29.790
 2683DPPC   NC353881  22.760  21.220  30.010
 2683DPPC   PO453882  23.190  21.270  29.800
 2683DPPC   GL153883  23.540  21.390  30.060
 2683DPPC   GL253884  23.620  21.560  29.810
 2683DPPC   C1A53885  23.830  21.080  30.160
 2683DPPC   C2A53886  24.100  20.820  30.550
 2683DPPC   C3A53887  24.410  20.970  30.950
 2683DPPC   C4A53888  24.860  21.070  31.240
 2683DPPC   C1B53889  23.970  21.390  29.800
 2683DPPC   C2B53890  24.420  21.330  30.000
 2683DPPC   C3B53891  24.880  21.200  30.050
 2683DPPC   C4B53892  25.250  20.890  29.970
 2684DPPC   NC353893  21.070  22.730  39.940
 2684DPPC   PO453894  21.010  22.520  40.400
 2684DPPC   GL153895  21.220  22.660  40.640
 2684DPPC   GL253896  21.210  22.570  40.980
 2684DPPC   C1A53897  21.430  23.090  40.870
 2684DPPC   C2A53898  21.490  23.350  41.280
 2684DPPC   C3A53899  21.400  23.360  41.760
 2684DPPC   C4A53900  21.050  23.360  42.030
 2684DPPC   C1B53901  21.290  22.830  41.390
 2684DPPC   C2B53902  21.660  23.020  41.580
 2684DPPC   C3B53903  22.070  23.030  41.490
 2684DPPC   C4B53904  22.230  22.800  41.810
 2685DPPC   NC353905  17.350  12.300  38.120
 2685DPPC   PO453906  17.060  12.750  38.180
 2685DPPC   GL153907  16.560  12.760  38.380
 2685DPPC   GL253908  16.270  12.840  38.200
 2685DPPC   C1A53909  16.400  12.420  38.630
 2685DPPC   C2A53910  16.430  12.120  38.970
 2685DPPC   C3A53911  16.260  11.850  39.240
 2685DPPC   C4A53912  16.260  11.470  39.400
 2685DPPC   C1B53913  16.150  12.350  38.160
 2685DPPC   C2B53914  15.990  12.010  38.480
 2685DPPC   C3B53915  15.880  12.030  38.840
 2685DPPC   C4B53916  15.870  12.400  38.860
 2686DPPC   NC353917  18.500  24.330  31.900
 2686DPPC   PO453918  18.700  24.660  31.830
 2686DPPC   GL153919  18.620  25.080  31.610
 2686DPPC   GL253920  18.550  25.090  31.230
 2686DPPC   C1A53921  18.610  25.530  31.470
 2686DPPC   C2A53922  18.580  26.070  31.420
 2686DPPC   C3A53923  18.360   0.070  31.520
 2686DPPC   C4A53924  18.180   0.410  31.660
 2686DPPC   C1B53925  18.800  25.330  31.090
 2686DPPC   C2B53926  18.940  25.710  31.150
 2686DPPC   C3B53927  19.190  26.020  31.370
 2686DPPC   C4B53928  19.170  26.200  31.790
 2687DPPC   NC353929  24.580   7.690  31.810
 2687DPPC   PO453930  24.600   7.240  31.590
 2687DPPC   GL153931  24.780   6.870  31.390
 2687DPPC   GL253932  24.750   6.690  31.050
 2687DPPC   C1A53933  24.790   6.450  31.480
 2687DPPC   C2A53934  25.130   6.130  31.380
 2687DPPC   C3A53935  25.320   5.780  31.600
 2687DPPC   C4A53936  25.670   5.550  31.710
 2687DPPC   C1B53937  24.950   6.310  30.920
 2687DPPC   C2B53938  24.950   5.850  30.920
 2687DPPC   C3B53939  25.260   5.540  30.990
 2687DPPC   C4B53940  25.120   5.250  31.420
 2688DPPC   NC353941  21.010  23.140  37.410
 2688DPPC   PO453942  21.200  23.200  37.010
 2688DPPC   GL153943  21.330  23.500  37.400
 2688DPPC   GL253944  21.400  23.370  37.670
 2688DPPC   C1A53945  21.630  23.830  37.610
 2688DPPC   C2A53946  21.590  24.220  37.850
 2688DPPC   C3A53947  21.740  24.620  37.970
 2688DPPC   C4A53948  22.120  24.740  37.870
 2688DPPC   C1B53949  21.490  23.540  38.070
 2688DPPC   C2B53950  21.620  23.950  38.320
 2688DPPC   C3B53951  21.840  24.180  38.280
 2688DPPC   C4B53952  22.120  24.380  38.630
 2689DPPC   NC353953  23.410  20.340  24.660
 2689DPPC   PO453954  23.260  20.500  24.980
 2689DPPC   GL153955  23.460  20.820  24.710
 2689DPPC   GL253956  23.530  21.210  24.820
 2689DPPC   C1A53957  23.910  21.090  24.470
 2689DPPC   C2A53958  24.060  21.500  24.500
 2689DPPC   C3A53959  24.440  21.760  24.610
 2689DPPC   C4A53960  24.750  22.040  24.570
 2689DPPC   C1B53961  23.660  21.670  24.920
 2689DPPC   C2B53962  23.630  22.040  24.690
 2689DPPC   C3B53963  23.590  22.340  24.480
 2689DPPC   C4B53964  23.710  22.710  24.220
 2690DPPC   NC353965  14.630   8.750  30.370
 2690DPPC   PO453966  14.930   8.390  30.510
 2690DPPC   GL153967  15.120   8.800  30.540
 2690DPPC   GL253968  15.020   9.070  30.350
 2690DPPC   C1A53969  15.520   9.130  30.600
 2690DPPC   C2A53970  15.920   9.320  30.350
 2690DPPC   C3A53971  16.360   9.270  30.200
 2690DPPC   C4A53972  16.770   9.520  30.140
 2690DPPC   C1B53973  15.190   9.330  30.190
 2690DPPC   C2B53974  15.240   9.710  30.070
 2690DPPC   C3B53975  15.100  10.170  30.240
 2690DPPC   C4B53976  15.020  10.610  30.370
 2691DPPC   NC353977  21.140  20.160  30.630
 2691DPPC   PO453978  21.540  20.330  30.490
 2691DPPC   GL153979  21.880  20.010  30.490
 2691DPPC   GL253980  21.950  20.020  30.720
 2691DPPC   C1A53981  21.850  19.510  30.500
 2691DPPC   C2A53982  21.870  19.240  30.900
 2691DPPC   C3A53983  22.120  18.980  31.160
 2691DPPC   C4A53984  22.280  18.650  31.400
 2691DPPC   C1B53985  22.170  19.680  30.860
 2691DPPC   C2B53986  22.430  19.300  30.960
 2691DPPC   C3B53987  22.630  19.040  31.210
 2691DPPC   C4B53988  22.780  18.690  31.370
 2692DPPC   NC353989  18.460  11.510  27.060
 2692DPPC   PO453990  18.130  11.670  27.320
 2692DPPC   GL153991  17.850  11.420  27.100
 2692DPPC   GL253992  17.840  11.200  27.260
 2692DPPC   C1A53993  17.680  11.220  26.730
 2692DPPC   C2A53994  17.330  10.940  26.470
 2692DPPC   C3A53995  16.910  10.720  26.250
 2692DPPC   C4A53996  16.470  10.740  26.030
 2692DPPC   C1B53997  17.620  10.850  27.370
 2692DPPC   C2B53998  17.420  10.750  27.070
 2692DPPC   C3B53999  17.170  10.540  26.750
 2692DPPC   C4B54000  16.820  10.550  26.710
 2693DPPC   NC354001  20.250  25.580  42.860
 2693DPPC   PO454002  20.010  25.310  43.130
 2693DPPC   GL154003  20.270  25.020  42.910
 2693DPPC   GL254004  20.030  25.070  42.640
 2693DPPC   C1A54005  20.220  24.600  42.750
 2693DPPC   C2A54006  20.170  24.310  42.530
 2693DPPC   C3A54007  20.360  24.120  42.140
 2693DPPC   C4A54008  20.130  23.810  41.950
 2693DPPC   C1B54009  20.140  24.860  42.250
 2693DPPC   C2B54010  20.400  24.690  42.150
 2693DPPC   C3B54011  20.600  24.430  41.800
 2693DPPC   C4B54012  20.670  23.930  41.750
 2694DPPC   NC354013  14.780  16.430  27.440
 2694DPPC   PO454014  14.780  16.220  27.930
 2694DPPC   GL154015  14.430  16.220  27.790
 2694DPPC   GL254016  14.380  16.230  27.350
 2694DPPC   C1A54017  14.200  15.910  27.740
 2694DPPC   C2A54018  13.830  15.720  27.560
 2694DPPC   C3A54019  13.410  15.770  27.420
 2694DPPC   C4A54020  13.060  15.710  27.530
 2694DPPC   C1B54021  14.050  15.970  27.220
 2694DPPC   C2B54022  13.770  15.790  27.090
 2694DPPC   C3B54023  13.370  15.490  26.950
 2694DPPC   C4B54024  13.030  15.270  26.780
 2695DPPC   NC354025  32.015  15.960  24.930
 2695DPPC   PO454026  31.775  16.140  25.240
 2695DPPC   GL154027  31.505  15.910  25.440
 2695DPPC   GL254028  31.295  15.960  25.750
 2695DPPC   C1A54029  31.165  15.960  25.160
 2695DPPC   C2A54030  30.835  15.620  25.090
 2695DPPC   C3A54031  30.415  15.600  25.320
 2695DPPC   C4A54032  30.035  15.470  25.220
 2695DPPC   C1B54033  31.075  15.630  25.560
 2695DPPC   C2B54034  30.745  15.320  25.430
 2695DPPC   C3B54035  30.375  15.220  25.550
 2695DPPC   C4B54036  29.935  15.140  25.730
 2696DPPC   NC354037  15.490  23.310  27.950
 2696DPPC   PO454038  15.030  23.010  28.000
 2696DPPC   GL154039  14.870  23.280  27.700
 2696DPPC   GL254040  15.090  23.500  27.720
 2696DPPC   C1A54041  14.540  23.370  27.560
 2696DPPC   C2A54042  14.330  23.660  27.280
 2696DPPC   C3A54043  14.010  23.680  26.800
 2696DPPC   C4A54044  13.680  23.560  26.610
 2696DPPC   C1B54045  14.770  23.790  27.560
 2696DPPC   C2B54046  14.530  24.180  27.440
 2696DPPC   C3B54047  14.400  24.560  27.150
 2696DPPC   C4B54048  13.950  24.810  27.000
 2697DPPC   NC354049  25.700   3.710  31.350
 2697DPPC   PO454050  26.150   3.620  31.410
 2697DPPC   GL154051  26.180   3.990  31.560
 2697DPPC   GL254052  25.990   4.200  31.420
 2697DPPC   C1A54053  26.210   4.230  31.930
 2697DPPC   C2A54054  26.420   4.460  32.160
 2697DPPC   C3A54055  26.440   4.810  32.400
 2697DPPC   C4A54056  26.635   5.160  32.410
 2697DPPC   C1B54057  25.990   4.590  31.460
 2697DPPC   C2B54058  26.090   5.000  31.430
 2697DPPC   C3B54059  26.230   5.380  31.700
 2697DPPC   C4B54060  26.625   5.630  31.700
 2698DPPC   NC354061  15.290  14.920  33.280
 2698DPPC   PO454062  15.150  14.690  32.880
 2698DPPC   GL154063  14.790  14.440  32.980
 2698DPPC   GL254064  14.530  14.570  32.910
 2698DPPC   C1A54065  14.520  14.030  32.830
 2698DPPC   C2A54066  14.250  13.690  32.660
 2698DPPC   C3A54067  13.900  13.490  32.650
 2698DPPC   C4A54068  13.490  13.480  32.720
 2698DPPC   C1B54069  14.210  14.410  32.860
 2698DPPC   C2B54070  13.840  14.340  32.820
 2698DPPC   C3B54071  13.500  14.650  32.970
 2698DPPC   C4B54072  13.150  14.710  33.220
 2699DPPC   NC354073  19.490   4.880  31.330
 2699DPPC   PO454074  19.250   5.240  31.580
 2699DPPC   GL154075  19.380   5.590  31.540
 2699DPPC   GL254076  19.040   5.790  31.600
 2699DPPC   C1A54077  19.490   5.920  31.210
 2699DPPC   C2A54078  19.740   6.040  30.880
 2699DPPC   C3A54079  20.140   5.950  30.670
 2699DPPC   C4A54080  20.390   5.690  30.390
 2699DPPC   C1B54081  19.030   6.010  31.240
 2699DPPC   C2B54082  19.200   6.260  30.930
 2699DPPC   C3B54083  19.460   6.480  30.860
 2699DPPC   C4B54084  19.890   6.530  31.010
 2700DPPC   NC354085  18.930  16.040  42.340
 2700DPPC   PO454086  18.820  16.560  42.350
 2700DPPC   GL154087  18.760  16.350  42.690
 2700DPPC   GL254088  18.740  16.590  42.920
 2700DPPC   C1A54089  18.720  16.030  42.970
 2700DPPC   C2A54090  18.580  15.840  43.260
 2700DPPC   C3A54091  18.150  15.630  43.520
 2700DPPC   C4A54092  17.850  15.430  43.740
 2700DPPC   C1B54093  18.440  16.490  43.150
 2700DPPC   C2B54094  18.300  16.340  43.440
 2700DPPC   C3B54095  18.150  16.380  43.760
 2700DPPC   C4B54096  18.410  16.160  44.060
 2701DPPC   NC354097   8.360  20.030  29.360
 2701DPPC   PO454098   8.820  20.100  29.430
 2701DPPC   GL154099   9.250  20.240  29.470
 2701DPPC   GL254100   9.420  20.050  29.590
 2701DPPC   C1A54101   9.590  20.560  29.300
 2701DPPC   C2A54102   9.630  21.010  29.110
 2701DPPC   C3A54103   9.830  21.390  29.130
 2701DPPC   C4A54104  10.290  21.490  28.890
 2701DPPC   C1B54105   9.840  20.150  29.560
 2701DPPC   C2B54106  10.090  20.410  29.280
 2701DPPC   C3B54107  10.490  20.390  28.930
 2701DPPC   C4B54108  10.850  20.250  28.690
 2702DPPC   NC354109  28.135  16.590  30.130
 2702DPPC   PO454110  27.895  16.850  30.390
 2702DPPC   GL154111  28.105  17.130  30.300
 2702DPPC   GL254112  28.405  17.060  30.160
 2702DPPC   C1A54113  28.175  17.480  30.220
 2702DPPC   C2A54114  28.235  17.920  30.040
 2702DPPC   C3A54115  28.045  18.340  30.020
 2702DPPC   C4A54116  28.075  18.700  30.250
 2702DPPC   C1B54117  28.515  17.330  29.830
 2702DPPC   C2B54118  28.645  17.700  29.790
 2702DPPC   C3B54119  28.705  18.110  29.990
 2702DPPC   C4B54120  28.995  18.380  30.030
 2703DPPC   NC354121  11.710  15.280  40.150
 2703DPPC   PO454122  11.950  15.670  40.410
 2703DPPC   GL154123  11.920  15.790  39.970
 2703DPPC   GL254124  12.170  15.590  39.740
 2703DPPC   C1A54125  11.870  16.050  39.570
 2703DPPC   C2A54126  11.920  16.150  39.140
 2703DPPC   C3A54127  12.030  16.240  38.690
 2703DPPC   C4A54128  12.420  16.520  38.620
 2703DPPC   C1B54129  12.250  15.830  39.390
 2703DPPC   C2B54130  12.390  16.210  39.520
 2703DPPC   C3B54131  12.060  16.490  39.500
 2703DPPC   C4B54132  11.680  16.460  39.830
 2704DPPC   NC354133  10.680  14.130  30.790
 2704DPPC   PO454134  10.420  14.440  30.840
 2704DPPC   GL154135  10.660  14.800  31.030
 2704DPPC   GL254136  10.580  15.150  30.880
 2704DPPC   C1A54137  11.100  14.640  31.150
 2704DPPC   C2A54138  11.320  14.870  31.460
 2704DPPC   C3A54139  11.730  14.840  31.730
 2704DPPC   C4A54140  12.020  15.090  31.930
 2704DPPC   C1B54141  10.780  15.480  30.820
 2704DPPC   C2B54142  10.940  15.810  31.160
 2704DPPC   C3B54143  11.220  16.010  31.480
 2704DPPC   C4B54144  11.560  16.240  31.690
 2705DPPC   NC354145  20.780  10.380  25.150
 2705DPPC   PO454146  20.790   9.980  24.940
 2705DPPC   GL154147  20.700   9.590  24.760
 2705DPPC   GL254148  20.370   9.730  24.750
 2705DPPC   C1A54149  20.560   9.100  24.650
 2705DPPC   C2A54150  20.450   8.760  24.470
 2705DPPC   C3A54151  20.290   8.740  24.080
 2705DPPC   C4A54152  20.160   8.460  23.890
 2705DPPC   C1B54153  20.430   9.420  24.360
 2705DPPC   C2B54154  20.660   9.140  24.050
 2705DPPC   C3B54155  20.840   8.760  23.990
 2705DPPC   C4B54156  20.760   8.320  23.900
 2706DPPC   NC354157  24.310  12.860  42.130
 2706DPPC   PO454158  24.010  12.500  42.040
 2706DPPC   GL154159  24.260  12.350  42.450
 2706DPPC   GL254160  24.460  12.610  42.620
 2706DPPC   C1A54161  24.070  12.190  42.870
 2706DPPC   C2A54162  23.780  12.090  43.150
 2706DPPC   C3A54163  23.840  11.720  43.480
 2706DPPC   C4A54164  23.860  11.550  43.930
 2706DPPC   C1B54165  24.260  12.700  42.980
 2706DPPC   C2B54166  24.370  12.690  43.420
 2706DPPC   C3B54167  24.570  12.510  43.790
 2706DPPC   C4B54168  24.420  12.840  44.190
 2707DPPC   NC354169  25.410  11.050  23.830
 2707DPPC   PO454170  25.430  11.410  23.650
 2707DPPC   GL154171  25.740  11.230  23.520
 2707DPPC   GL254172  26.000  11.210  23.870
 2707DPPC   C1A54173  26.050  11.200  23.110
 2707DPPC   C2A54174  26.090  10.980  22.710
 2707DPPC   C3A54175  26.030  10.910  22.190
 2707DPPC   C4A54176  26.020  10.930  21.760
 2707DPPC   C1B54177  26.340  11.200  23.630
 2707DPPC   C2B54178  26.665  10.840  23.540
 2707DPPC   C3B54179  26.995  10.860  23.130
 2707DPPC   C4B54180  27.215  10.660  22.820
 2708DPPC   NC354181  23.230  19.300  28.390
 2708DPPC   PO454182  23.500  19.670  28.560
 2708DPPC   GL154183  23.930  19.670  28.780
 2708DPPC   GL254184  24.060  19.910  28.680
 2708DPPC   C1A54185  24.270  19.870  29.140
 2708DPPC   C2A54186  24.620  20.080  29.270
 2708DPPC   C3A54187  24.890  19.950  29.540
 2708DPPC   C4A54188  25.190  19.950  29.880
 2708DPPC   C1B54189  24.470  19.900  28.610
 2708DPPC   C2B54190  24.800  20.160  28.730
 2708DPPC   C3B54191  25.070  20.500  28.880
 2708DPPC   C4B54192  25.310  20.650  29.200
 2709DPPC   NC354193  15.360  20.070  39.130
 2709DPPC   PO454194  15.270  20.400  39.020
 2709DPPC   GL154195  15.310  20.690  39.340
 2709DPPC   GL254196  15.530  20.910  39.380
 2709DPPC   C1A54197  15.070  20.930  39.610
 2709DPPC   C2A54198  14.660  20.980  39.580
 2709DPPC   C3A54199  14.240  20.750  39.660
 2709DPPC   C4A54200  14.040  20.940  40.050
 2709DPPC   C1B54201  15.140  21.300  39.200
 2709DPPC   C2B54202  14.720  21.360  39.260
 2709DPPC   C3B54203  14.350  21.450  39.400
 2709DPPC   C4B54204  14.230  21.320  39.790
 2710DPPC   NC354205  17.180  14.350  25.520
 2710DPPC   PO454206  17.100  13.890  25.550
 2710DPPC   GL154207  16.790  13.510  25.480
 2710DPPC   GL254208  16.450  13.650  25.500
 2710DPPC   C1A54209  16.680  13.250  25.280
 2710DPPC   C2A54210  16.360  13.000  24.920
 2710DPPC   C3A54211  16.090  12.720  24.760
 2710DPPC   C4A54212  15.740  12.530  24.600
 2710DPPC   C1B54213  16.110  13.360  25.600
 2710DPPC   C2B54214  15.800  13.030  25.620
 2710DPPC   C3B54215  15.710  12.710  25.310
 2710DPPC   C4B54216  15.730  12.280  25.080
 2711DPPC   NC354217  28.315  16.910  44.630
 2711DPPC   PO454218  28.485  16.550  44.510
 2711DPPC   GL154219  28.465  16.510  44.140
 2711DPPC   GL254220  28.185  16.450  44.040
 2711DPPC   C1A54221  28.545  16.290  43.720
 2711DPPC   C2A54222  28.585  16.280  43.330
 2711DPPC   C3A54223  28.235  16.400  42.980
 2711DPPC   C4A54224  27.915  16.440  42.650
 2711DPPC   C1B54225  27.985  16.450  43.720
 2711DPPC   C2B54226  27.555  16.590  43.640
 2711DPPC   C3B54227  27.205  16.900  43.600
 2711DPPC   C4B54228  26.725  16.720  43.560
 2712DPPC   NC354229  25.540  18.190  28.220
 2712DPPC   PO454230  25.320  18.530  27.940
 2712DPPC   GL154231  25.730  18.730  27.990
 2712DPPC   GL254232  26.020  18.580  28.130
 2712DPPC   C1A54233  25.700  19.160  28.180
 2712DPPC   C2A54234  25.990  19.360  28.480
 2712DPPC   C3A54235  26.130  19.780  28.260
 2712DPPC   C4A54236  26.250  20.150  28.200
 2712DPPC   C1B54237  26.080  18.840  28.420
 2712DPPC   C2B54238  26.360  19.050  28.730
 2712DPPC   C3B54239  26.595  19.260  29.010
 2712DPPC   C4B54240  26.925  19.510  29.000
 2713DPPC   NC354241  22.400  18.520  17.280
 2713DPPC   PO454242  22.370  18.220  17.630
 2713DPPC   GL154243  22.490  18.020  17.990
 2713DPPC   GL254244  22.720  18.350  18.140
 2713DPPC   C1A54245  22.400  17.650  18.150
 2713DPPC   C2A54246  22.230  17.350  18.620
 2713DPPC   C3A54247  21.940  17.120  18.780
 2713DPPC   C4A54248  21.900  16.570  18.840
 2713DPPC   C1B54249  22.530  18.010  18.490
 2713DPPC   C2B54250  22.630  17.590  18.760
 2713DPPC   C3B54251  22.330  17.450  19.130
 2713DPPC   C4B54252  21.920  17.510  19.440
 2714DPPC   NC354253  31.755   9.060  25.020
 2714DPPC   PO454254  31.595   9.210  24.630
 2714DPPC   GL154255  31.295   9.180  24.870
 2714DPPC   GL254256  31.235   9.490  25.010
 2714DPPC   C1A54257  30.805   9.210  25.120
 2714DPPC   C2A54258  30.345   9.370  25.310
 2714DPPC   C3A54259  30.295   9.510  25.700
 2714DPPC   C4A54260  30.275   9.780  26.050
 2714DPPC   C1B54261  30.885   9.680  25.060
 2714DPPC   C2B54262  30.495   9.830  25.140
 2714DPPC   C3B54263  30.175   9.890  25.380
 2714DPPC   C4B54264  29.985  10.070  25.750
 2715DPPC   NC354265   9.350  19.610  25.510
 2715DPPC   PO454266   9.710  19.820  25.590
 2715DPPC   GL154267  10.150  19.950  25.720
 2715DPPC   GL254268  10.350  19.600  25.640
 2715DPPC   C1A54269  10.490  19.900  25.970
 2715DPPC   C2A54270  10.770  19.760  26.300
 2715DPPC   C3A54271  11.110  19.710  26.260
 2715DPPC   C4A54272  11.510  19.520  26.570
 2715DPPC   C1B54273  10.620  19.440  25.950
 2715DPPC   C2B54274  10.950  19.100  25.910
 2715DPPC   C3B54275  11.420  19.060  25.890
 2715DPPC   C4B54276  11.860  19.170  25.660
 2716DPPC   NC354277  14.090  18.680  28.330
 2716DPPC   PO454278  13.560  18.620  28.530
 2716DPPC   GL154279  13.120  18.430  28.460
 2716DPPC   GL254280  12.780  18.440  28.690
 2716DPPC   C1A54281  12.780  18.310  28.170
 2716DPPC   C2A54282  12.410  18.430  28.230
 2716DPPC   C3A54283  12.010  18.570  28.320
 2716DPPC   C4A54284  11.710  18.800  28.580
 2716DPPC   C1B54285  12.330  18.480  28.720
 2716DPPC   C2B54286  11.920  18.170  28.670
 2716DPPC   C3B54287  11.580  17.900  28.680
 2716DPPC   C4B54288  11.220  17.770  28.570
 2717DPPC   NC354289  27.335   8.840  35.120
 2717DPPC   PO454290  27.915   8.890  35.110
 2717DPPC   GL154291  28.055   8.420  34.980
 2717DPPC   GL254292  28.185   8.170  34.750
 2717DPPC   C1A54293  28.055   7.970  35.200
 2717DPPC   C2A54294  28.315   7.900  35.580
 2717DPPC   C3A54295  28.495   7.590  35.790
 2717DPPC   C4A54296  28.605   7.300  36.110
 2717DPPC   C1B54297  28.365   7.730  34.970
 2717DPPC   C2B54298  28.585   7.190  35.010
 2717DPPC   C3B54299  28.885   6.990  35.140
 2717DPPC   C4B54300  29.145   6.750  35.400
 2718DPPC   NC354301  23.500  16.730  21.310
 2718DPPC   PO454302  23.260  17.130  21.340
 2718DPPC   GL154303  23.630  17.270  21.080
 2718DPPC   GL254304  23.990  17.430  21.240
 2718DPPC   C1A54305  23.780  17.360  20.630
 2718DPPC   C2A54306  23.770  17.160  20.240
 2718DPPC   C3A54307  23.740  16.890  20.080
 2718DPPC   C4A54308  23.740  16.490  20.150
 2718DPPC   C1B54309  24.320  17.350  20.800
 2718DPPC   C2B54310  24.620  17.350  20.470
 2718DPPC   C3B54311  24.870  17.430  20.180
 2718DPPC   C4B54312  25.150  17.440  19.800
 2719DPPC   NC354313  16.540  23.670  28.190
 2719DPPC   PO454314  16.420  23.950  28.550
 2719DPPC   GL154315  16.420  24.330  28.560
 2719DPPC   GL254316  16.530  24.540  28.310
 2719DPPC   C1A54317  16.230  24.560  28.820
 2719DPPC   C2A54318  15.880  24.780  29.150
 2719DPPC   C3A54319  15.690  25.140  29.260
 2719DPPC   C4A54320  15.950  25.460  29.260
 2719DPPC   C1B54321  16.350  24.940  28.270
 2719DPPC   C2B54322  16.300  25.430  28.340
 2719DPPC   C3B54323  16.200  25.830  28.450
 2719DPPC   C4B54324  15.910  26.210  28.530
 2720DPPC   NC354325  25.510  24.860  40.980
 2720DPPC   PO454326  25.380  25.100  40.560
 2720DPPC   GL154327  25.100  24.790  40.650
 2720DPPC   GL254328  25.190  24.450  40.700
 2720DPPC   C1A54329  24.700  24.570  40.580
 2720DPPC   C2A54330  24.370  24.210  40.590
 2720DPPC   C3A54331  24.060  23.920  40.630
 2720DPPC   C4A54332  23.620  23.810  40.490
 2720DPPC   C1B54333  25.100  24.290  40.430
 2720DPPC   C2B54334  24.810  24.040  40.430
 2720DPPC   C3B54335  24.530  23.720  40.460
 2720DPPC   C4B54336  24.330  23.480  40.430
 2721DPPC   NC354337  32.995  14.140  28.080
 2721DPPC   PO454338  33.175  14.180  28.550
 2721DPPC   GL154339  32.615  14.180  28.470
 2721DPPC   GL254340  32.725  13.880  28.440
 2721DPPC   C1A54341  32.205  14.480  28.510
 2721DPPC   C2A54342  32.125  14.740  28.840
 2721DPPC   C3A54343  31.725  14.850  29.110
 2721DPPC   C4A54344  31.285  15.070  29.110
 2721DPPC   C1B54345  32.215  13.880  28.370
 2721DPPC   C2B54346  31.835  13.840  28.530
 2721DPPC   C3B54347  31.325  13.850  28.600
 2721DPPC   C4B54348  31.125  14.140  28.330
 2722DPPC   NC354349  16.830   0.340  40.360
 2722DPPC   PO454350  16.620  26.390  40.610
 2722DPPC   GL154351  16.790  25.980  40.600
 2722DPPC   GL254352  17.090  26.110  40.690
 2722DPPC   C1A54353  16.760  25.760  40.220
 2722DPPC   C2A54354  17.060  25.450  39.950
 2722DPPC   C3A54355  17.120  25.320  39.470
 2722DPPC   C4A54356  17.190  25.300  39.080
 2722DPPC   C1B54357  17.400  25.810  40.700
 2722DPPC   C2B54358  17.540  25.630  40.340
 2722DPPC   C3B54359  17.550  25.480  39.920
 2722DPPC   C4B54360  17.700  25.220  39.560
 2723DPPC   NC354361  24.770   8.060  28.200
 2723DPPC   PO454362  24.900   8.250  27.990
 2723DPPC   GL154363  25.240   7.900  27.950
 2723DPPC   GL254364  25.020   7.740  27.740
 2723DPPC   C1A54365  25.420   7.530  28.040
 2723DPPC   C2A54366  25.560   7.110  27.970
 2723DPPC   C3A54367  25.730   6.790  28.010
 2723DPPC   C4A54368  25.970   6.440  28.260
 2723DPPC   C1B54369  25.210   7.400  27.610
 2723DPPC   C2B54370  25.210   6.930  27.520
 2723DPPC   C3B54371  25.010   6.650  27.270
 2723DPPC   C4B54372  24.660   6.590  27.140
 2724DPPC   NC354373  29.185  10.150  31.020
 2724DPPC   PO454374  29.055   9.810  31.150
 2724DPPC   GL154375  29.465   9.710  31.070
 2724DPPC   GL254376  29.435   9.370  31.200
 2724DPPC   C1A54377  29.795   9.840  30.990
 2724DPPC   C2A54378  30.175   9.950  30.790
 2724DPPC   C3A54379  30.515   9.850  30.450
 2724DPPC   C4A54380  30.545   9.560  30.130
 2724DPPC   C1B54381  29.835   9.340  31.060
 2724DPPC   C2B54382  30.155   9.160  30.870
 2724DPPC   C3B54383  30.585   9.090  31.140
 2724DPPC   C4B54384  31.055   9.170  31.280
 2725DPPC   NC354385  18.910  19.900  21.700
 2725DPPC   PO454386  18.380  19.920  21.750
 2725DPPC   GL154387  18.210  20.140  21.370
 2725DPPC   GL254388  18.100  19.980  21.170
 2725DPPC   C1A54389  18.120  20.550  21.190
 2725DPPC   C2A54390  18.250  20.960  21.180
 2725DPPC   C3A54391  18.470  21.190  21.270
 2725DPPC   C4A54392  18.560  21.570  21.210
 2725DPPC   C1B54393  17.740  20.080  20.940
 2725DPPC   C2B54394  17.530  20.270  20.640
 2725DPPC   C3B54395  17.460  20.670  20.330
 2725DPPC   C4B54396  17.740  20.950  20.300
 2726DPPC   NC354397  30.235  19.580  30.880
 2726DPPC   PO454398  30.605  19.530  31.010
 2726DPPC   GL154399  30.365  19.360  31.340
 2726DPPC   GL254400  30.295  19.440  31.780
 2726DPPC   C1A54401  30.375  18.970  31.540
 2726DPPC   C2A54402  30.705  18.680  31.700
 2726DPPC   C3A54403  30.725  18.450  32.020
 2726DPPC   C4A54404  30.475  18.270  32.300
 2726DPPC   C1B54405  30.025  19.160  31.960
 2726DPPC   C2B54406  30.035  18.940  32.270
 2726DPPC   C3B54407  29.975  18.470  32.330
 2726DPPC   C4B54408  29.825  18.130  32.230
 2727DPPC   NC354409  14.610  16.640  34.690
 2727DPPC   PO454410  14.390  17.050  34.390
 2727DPPC   GL154411  14.040  16.780  34.220
 2727DPPC   GL254412  13.770  16.900  34.020
 2727DPPC   C1A54413  13.750  16.430  34.310
 2727DPPC   C2A54414  13.340  16.290  34.260
 2727DPPC   C3A54415  12.810  16.200  34.220
 2727DPPC   C4A54416  12.420  16.330  34.200
 2727DPPC   C1B54417  13.430  16.730  34.030
 2727DPPC   C2B54418  13.000  16.640  34.100
 2727DPPC   C3B54419  12.730  16.810  34.470
 2727DPPC   C4B54420  12.350  16.800  34.660
 2728DPPC   NC354421  20.910   9.280  28.140
 2728DPPC   PO454422  20.520   9.200  28.310
 2728DPPC   GL154423  20.270   8.810  28.150
 2728DPPC   GL254424  20.410   8.730  27.760
 2728DPPC   C1A54425  20.030   8.540  28.520
 2728DPPC   C2A54426  19.820   8.180  28.630
 2728DPPC   C3A54427  20.030   7.760  28.830
 2728DPPC   C4A54428  20.050   7.510  29.140
 2728DPPC   C1B54429  20.670   8.500  27.720
 2728DPPC   C2B54430  20.860   8.130  27.670
 2728DPPC   C3B54431  20.790   7.840  27.470
 2728DPPC   C4B54432  20.450   7.850  27.030
 2729DPPC   NC354433  24.660  18.640  27.450
 2729DPPC   PO454434  24.990  18.820  27.680
 2729DPPC   GL154435  25.190  19.080  28.020
 2729DPPC   GL254436  25.450  19.150  27.800
 2729DPPC   C1A54437  25.260  19.240  28.450
 2729DPPC   C2A54438  25.530  19.690  28.490
 2729DPPC   C3A54439  25.900  20.020  28.680
 2729DPPC   C4A54440  26.170  20.150  28.980
 2729DPPC   C1B54441  25.860  19.160  27.540
 2729DPPC   C2B54442  26.220  19.440  27.380
 2729DPPC   C3B54443  26.645  19.680  27.380
 2729DPPC   C4B54444  26.915  20.040  27.530
 2730DPPC   NC354445  29.405  14.030  29.580
 2730DPPC   PO454446  29.115  14.230  29.350
 2730DPPC   GL154447  29.495  14.460  29.420
 2730DPPC   GL254448  29.865  14.180  29.340
 2730DPPC   C1A54449  29.805  14.670  29.590
 2730DPPC   C2A54450  30.185  14.800  29.510
 2730DPPC   C3A54451  30.595  14.740  29.500
 2730DPPC   C4A54452  31.025  14.730  29.680
 2730DPPC   C1B54453  30.165  13.970  29.110
 2730DPPC   C2B54454  30.545  13.740  29.090
 2730DPPC   C3B54455  30.975  13.670  28.950
 2730DPPC   C4B54456  31.195  13.260  28.750
 2731DPPC   NC354457  25.030  14.380  17.750
 2731DPPC   PO454458  25.410  14.190  17.950
 2731DPPC   GL154459  25.350  14.020  18.310
 2731DPPC   GL254460  25.050  13.910  18.360
 2731DPPC   C1A54461  25.630  14.300  18.520
 2731DPPC   C2A54462  25.730  14.140  18.910
 2731DPPC   C3A54463  26.000  13.770  19.030
 2731DPPC   C4A54464  26.290  13.400  19.210
 2731DPPC   C1B54465  25.220  14.050  18.790
 2731DPPC   C2B54466  25.260  14.240  19.100
 2731DPPC   C3B54467  25.260  14.300  19.500
 2731DPPC   C4B54468  25.220  14.110  19.880
 2732DPPC   NC354469  28.895   9.270  33.640
 2732DPPC   PO454470  29.035   8.940  33.460
 2732DPPC   GL154471  29.545   8.890  33.520
 2732DPPC   GL254472  29.815   9.000  33.350
 2732DPPC   C1A54473  29.695   8.480  33.360
 2732DPPC   C2A54474  29.725   7.980  33.260
 2732DPPC   C3A54475  30.045   7.700  33.040
 2732DPPC   C4A54476  30.325   7.910  32.850
 2732DPPC   C1B54477  30.205   9.040  33.540
 2732DPPC   C2B54478  30.595   9.280  33.830
 2732DPPC   C3B54479  31.025   8.950  34.010
 2732DPPC   C4B54480  31.425   9.050  34.120
 2733DPPC   NC354481  23.400  21.760  33.750
 2733DPPC   PO454482  23.730  21.430  33.720
 2733DPPC   GL154483  23.890  21.840  33.570
 2733DPPC   GL254484  23.730  22.090  33.520
 2733DPPC   C1A54485  24.200  22.170  33.450
 2733DPPC   C2A54486  24.250  22.510  33.110
 2733DPPC   C3A54487  24.440  22.950  33.140
 2733DPPC   C4A54488  24.550  23.450  33.050
 2733DPPC   C1B54489  23.960  21.910  33.040
 2733DPPC   C2B54490  24.290  22.100  32.750
 2733DPPC   C3B54491  24.640  22.250  32.490
 2733DPPC   C4B54492  24.740  22.430  32.130
 2734DPPC   NC354493  21.760  18.160  31.890
 2734DPPC   PO454494  21.790  18.600  31.870
 2734DPPC   GL154495  22.180  18.620  31.910
 2734DPPC   GL254496  22.210  18.820  32.100
 2734DPPC   C1A54497  22.640  18.510  31.800
 2734DPPC   C2A54498  22.950  18.710  31.820
 2734DPPC   C3A54499  23.080  19.040  31.710
 2734DPPC   C4A54500  23.420  19.240  31.560
 2734DPPC   C1B54501  22.500  19.030  31.790
 2734DPPC   C2B54502  22.720  19.410  31.570
 2734DPPC   C3B54503  23.100  19.650  31.560
 2734DPPC   C4B54504  23.240  20.140  31.570
 2735DPPC   NC354505  17.760  16.050  17.710
 2735DPPC   PO454506  17.880  16.510  17.750
 2735DPPC   GL154507  18.040  16.580  18.080
 2735DPPC   GL254508  18.470  16.630  18.230
 2735DPPC   C1A54509  18.120  16.510  18.610
 2735DPPC   C2A54510  18.080  16.160  18.790
 2735DPPC   C3A54511  18.340  15.850  19.010
 2735DPPC   C4A54512  18.660  15.660  19.260
 2735DPPC   C1B54513  18.550  16.790  18.630
 2735DPPC   C2B54514  18.490  16.880  19.060
 2735DPPC   C3B54515  18.020  17.080  19.040
 2735DPPC   C4B54516  17.670  17.080  18.770
 2736DPPC   NC354517  15.050  15.330  19.270
 2736DPPC   PO454518  15.110  14.920  19.280
 2736DPPC   GL154519  15.450  15.000  19.600
 2736DPPC   GL254520  15.450  14.890  19.940
 2736DPPC   C1A54521  15.730  15.220  19.770
 2736DPPC   C2A54522  16.000  15.080  19.980
 2736DPPC   C3A54523  16.220  15.080  20.350
 2736DPPC   C4A54524  16.400  15.190  20.800
 2736DPPC   C1B54525  15.770  14.810  20.310
 2736DPPC   C2B54526  15.620  14.780  20.850
 2736DPPC   C3B54527  15.310  14.790  21.180
 2736DPPC   C4B54528  15.140  14.470  21.020
 2737DPPC   NC354529  13.180  18.640  28.890
 2737DPPC   PO454530  12.800  18.980  28.710
 2737DPPC   GL154531  12.330  19.030  28.870
 2737DPPC   GL254532  12.110  19.070  28.540
 2737DPPC   C1A54533  12.020  19.130  29.020
 2737DPPC   C2A54534  11.730  19.210  29.300
 2737DPPC   C3A54535  11.420  19.490  29.360
 2737DPPC   C4A54536  11.200  19.670  29.660
 2737DPPC   C1B54537  11.850  19.370  28.270
 2737DPPC   C2B54538  11.550  19.530  28.020
 2737DPPC   C3B54539  11.540  19.320  27.650
 2737DPPC   C4B54540  11.820  19.010  27.380
 2738DPPC   NC354541  22.970  22.640  34.850
 2738DPPC   PO454542  22.860  23.010  35.160
 2738DPPC   GL154543  23.100  23.240  35.150
 2738DPPC   GL254544  23.050  23.510  35.120
 2738DPPC   C1A54545  23.460  23.380  35.340
 2738DPPC   C2A54546  23.510  23.680  35.600
 2738DPPC   C3A54547  23.810  23.950  35.700
 2738DPPC   C4A54548  24.170  24.280  35.610
 2738DPPC   C1B54549  23.380  23.740  35.060
 2738DPPC   C2B54550  23.770  23.810  35.190
 2738DPPC   C3B54551  24.090  24.110  35.180
 2738DPPC   C4B54552  24.020  24.500  35.050
 2739DPPC   NC354553  17.660  24.360  28.910
 2739DPPC   PO454554  17.900  24.600  29.220
 2739DPPC   GL154555  18.170  24.970  29.130
 2739DPPC   GL254556  18.090  25.280  29.270
 2739DPPC   C1A54557  18.580  25.320  29.200
 2739DPPC   C2A54558  18.860  25.660  29.110
 2739DPPC   C3A54559  18.960  25.830  28.730
 2739DPPC   C4A54560  19.300  26.070  28.660
 2739DPPC   C1B54561  18.140  25.680  29.450
 2739DPPC   C2B54562  17.930  26.050  29.660
 2739DPPC   C3B54563  17.920   0.070  29.600
 2739DPPC   C4B54564  17.840   0.420  29.360
 2740DPPC   NC354565  23.310  22.240  38.660
 2740DPPC   PO454566  23.480  22.040  39.000
 2740DPPC   GL154567  23.520  22.460  39.070
 2740DPPC   GL254568  23.310  22.490  39.180
 2740DPPC   C1A54569  23.840  22.750  39.010
 2740DPPC   C2A54570  23.940  23.230  39.200
 2740DPPC   C3A54571  23.760  23.450  39.590
 2740DPPC   C4A54572  23.550  23.750  39.760
 2740DPPC   C1B54573  23.160  22.840  39.280
 2740DPPC   C2B54574  23.330  23.180  39.410
 2740DPPC   C3B54575  23.430  23.210  39.900
 2740DPPC   C4B54576  23.720  23.090  40.100
 2741DPPC   NC354577  29.595  11.110  31.440
 2741DPPC   PO454578  29.845  10.790  31.480
 2741DPPC   GL154579  30.225  10.630  31.540
 2741DPPC   GL254580  30.425  10.830  31.810
 2741DPPC   C1A54581  30.635  10.450  31.450
 2741DPPC   C2A54582  30.845  10.140  31.820
 2741DPPC   C3A54583  31.025   9.890  32.110
 2741DPPC   C4A54584  31.155   9.610  32.520
 2741DPPC   C1B54585  30.825  10.760  31.820
 2741DPPC   C2B54586  31.255  10.800  31.780
 2741DPPC   C3B54587  31.625  10.920  31.980
 2741DPPC   C4B54588  32.025  10.760  32.210
 2742DPPC   NC354589  26.575  17.900  32.790
 2742DPPC   PO454590  26.875  17.710  32.500
 2742DPPC   GL154591  26.785  18.110  32.360
 2742DPPC   GL254592  26.885  18.260  32.660
 2742DPPC   C1A54593  26.715  18.540  32.290
 2742DPPC   C2A54594  26.975  18.950  32.160
 2742DPPC   C3A54595  27.175  19.230  32.040
 2742DPPC   C4A54596  27.285  19.330  31.670
 2742DPPC   C1B54597  26.845  18.610  32.760
 2742DPPC   C2B54598  27.025  18.990  32.680
 2742DPPC   C3B54599  27.155  19.410  32.600
 2742DPPC   C4B54600  27.155  19.730  32.290
 2743DPPC   NC354601  22.510   5.830  40.550
 2743DPPC   PO454602  22.880   5.820  40.540
 2743DPPC   GL154603  22.710   6.260  40.430
 2743DPPC   GL254604  22.540   6.150  40.130
 2743DPPC   C1A54605  22.850   6.570  40.150
 2743DPPC   C2A54606  23.150   6.820  40.020
 2743DPPC   C3A54607  23.500   6.930  40.170
 2743DPPC   C4A54608  23.890   6.970  39.830
 2743DPPC   C1B54609  22.790   6.180  39.750
 2743DPPC   C2B54610  23.040   6.530  39.640
 2743DPPC   C3B54611  22.890   6.960  39.420
 2743DPPC   C4B54612  22.610   7.310  39.490
 2744DPPC   NC354613  22.460  10.700  23.960
 2744DPPC   PO454614  22.150  10.670  24.250
 2744DPPC   GL154615  22.070  10.330  23.990
 2744DPPC   GL254616  21.910  10.100  24.140
 2744DPPC   C1A54617  22.060  10.150  23.550
 2744DPPC   C2A54618  22.130  10.180  23.200
 2744DPPC   C3A54619  22.350  10.010  22.880
 2744DPPC   C4A54620  22.680   9.910  22.800
 2744DPPC   C1B54621  21.930   9.840  23.890
 2744DPPC   C2B54622  21.980   9.670  23.440
 2744DPPC   C3B54623  21.980   9.680  22.950
 2744DPPC   C4B54624  22.230   9.720  22.510
 2745DPPC   NC354625  17.060  12.690  26.800
 2745DPPC   PO454626  17.170  12.560  26.460
 2745DPPC   GL154627  16.830  12.320  26.380
 2745DPPC   GL254628  16.660  12.450  26.170
 2745DPPC   C1A54629  16.480  12.240  26.640
 2745DPPC   C2A54630  16.190  11.890  26.750
 2745DPPC   C3A54631  15.780  11.610  26.760
 2745DPPC   C4A54632  15.420  11.580  26.680
 2745DPPC   C1B54633  16.300  12.030  26.210
 2745DPPC   C2B54634  15.900  12.130  26.240
 2745DPPC   C3B54635  15.570  12.170  26.060
 2745DPPC   C4B54636  15.230  12.070  25.790
 2746DPPC   NC354637  30.395  20.220  41.630
 2746DPPC   PO454638  30.165  20.430  41.330
 2746DPPC   GL154639  29.785  20.250  41.360
 2746DPPC   GL254640  29.525  20.250  41.640
 2746DPPC   C1A54641  29.365  20.170  41.140
 2746DPPC   C2A54642  28.955  20.190  41.110
 2746DPPC   C3A54643  28.525  20.150  41.030
 2746DPPC   C4A54644  28.155  19.970  40.870
 2746DPPC   C1B54645  29.125  20.010  41.550
 2746DPPC   C2B54646  28.635  19.900  41.500
 2746DPPC   C3B54647  28.225  19.680  41.330
 2746DPPC   C4B54648  27.975  19.500  41.120
 2747DPPC   NC354649  29.985  13.050  31.990
 2747DPPC   PO454650  29.965  12.730  32.290
 2747DPPC   GL154651  30.345  12.530  32.420
 2747DPPC   GL254652  30.615  12.660  32.770
 2747DPPC   C1A54653  30.785  12.270  32.480
 2747DPPC   C2A54654  30.955  11.950  32.200
 2747DPPC   C3A54655  30.995  11.520  32.130
 2747DPPC   C4A54656  31.395  11.310  32.060
 2747DPPC   C1B54657  30.425  13.000  32.620
 2747DPPC   C2B54658  30.605  13.330  32.660
 2747DPPC   C3B54659  31.015  13.390  32.550
 2747DPPC   C4B54660  31.455  13.470  32.540
 2748DPPC   NC354661  23.920   9.760  38.260
 2748DPPC   PO454662  24.170   9.380  38.460
 2748DPPC   GL154663  24.330   8.970  38.650
 2748DPPC   GL254664  24.250   8.730  38.470
 2748DPPC   C1A54665  24.300   8.730  39.090
 2748DPPC   C2A54666  24.330   8.470  39.380
 2748DPPC   C3A54667  24.390   8.170  39.660
 2748DPPC   C4A54668  24.500   7.790  39.720
 2748DPPC   C1B54669  24.530   8.480  38.720
 2748DPPC   C2B54670  24.470   8.070  39.100
 2748DPPC   C3B54671  24.510   7.620  39.220
 2748DPPC   C4B54672  24.580   7.130  39.290
 2749DPPC   NC354673  22.860  10.880  23.030
 2749DPPC   PO454674  23.080  10.690  23.350
 2749DPPC   GL154675  23.240  10.380  23.070
 2749DPPC   GL254676  23.480  10.510  22.890
 2749DPPC   C1A54677  23.210   9.930  22.910
 2749DPPC   C2A54678  23.360   9.450  23.090
 2749DPPC   C3A54679  23.430   9.080  23.400
 2749DPPC   C4A54680  23.420   8.840  23.680
 2749DPPC   C1B54681  23.490  10.280  22.520
 2749DPPC   C2B54682  23.420   9.900  22.240
 2749DPPC   C3B54683  23.270   9.630  22.000
 2749DPPC   C4B54684  23.310   9.380  21.710
 2750DPPC   NC354685  16.410   2.210  30.730
 2750DPPC   PO454686  16.590   1.860  30.610
 2750DPPC   GL154687  16.950   1.520  30.570
 2750DPPC   GL254688  16.690   1.320  30.610
 2750DPPC   C1A54689  17.390   1.260  30.550
 2750DPPC   C2A54690  17.710   1.020  30.720
 2750DPPC   C3A54691  18.150   0.940  30.570
 2750DPPC   C4A54692  18.450   1.100  30.320
 2750DPPC   C1B54693  16.720   1.010  30.830
 2750DPPC   C2B54694  16.700   0.700  31.090
 2750DPPC   C3B54695  16.490   0.370  31.110
 2750DPPC   C4B54696  16.450  26.340  31.310
 2751DPPC   NC354697  25.780  16.380  30.580
 2751DPPC   PO454698  26.110  16.770  30.570
 2751DPPC   GL154699  26.050  17.120  30.480
 2751DPPC   GL254700  25.710  17.370  30.670
 2751DPPC   C1A54701  26.310  17.470  30.280
 2751DPPC   C2A54702  26.280  17.930  30.300
 2751DPPC   C3A54703  26.050  18.360  30.440
 2751DPPC   C4A54704  25.940  18.780  30.390
 2751DPPC   C1B54705  25.970  17.700  30.760
 2751DPPC   C2B54706  26.360  17.970  30.830
 2751DPPC   C3B54707  26.535  18.280  30.610
 2751DPPC   C4B54708  26.925  18.230  30.360
 2752DPPC   NC354709  18.720   5.710  25.740
 2752DPPC   PO454710  18.650   5.800  26.170
 2752DPPC   GL154711  19.050   6.170  26.180
 2752DPPC   GL254712  19.270   6.270  26.320
 2752DPPC   C1A54713  18.930   6.640  26.150
 2752DPPC   C2A54714  19.050   7.100  26.340
 2752DPPC   C3A54715  19.330   7.540  26.320
 2752DPPC   C4A54716  19.560   7.930  26.190
 2752DPPC   C1B54717  19.250   6.720  26.710
 2752DPPC   C2B54718  19.220   7.130  26.860
 2752DPPC   C3B54719  18.980   7.470  26.740
 2752DPPC   C4B54720  19.050   7.800  26.970
 2753DPPC   NC354721  10.590  23.590  25.730
 2753DPPC   PO454722  10.870  23.460  25.370
 2753DPPC   GL154723  11.190  23.430  25.010
 2753DPPC   GL254724  11.290  23.170  24.830
 2753DPPC   C1A54725  11.690  23.680  24.940
 2753DPPC   C2A54726  12.170  23.470  25.100
 2753DPPC   C3A54727  12.660  23.260  25.230
 2753DPPC   C4A54728  12.900  22.900  25.380
 2753DPPC   C1B54729  11.690  23.130  25.070
 2753DPPC   C2B54730  11.830  23.000  25.410
 2753DPPC   C3B54731  11.610  23.060  25.710
 2753DPPC   C4B54732  11.450  23.400  26.060
 2754DPPC   NC354733  22.510  20.410  22.950
 2754DPPC   PO454734  22.190  20.200  22.690
 2754DPPC   GL154735  22.470  20.010  22.550
 2754DPPC   GL254736  22.760  20.070  22.630
 2754DPPC   C1A54737  22.780  19.830  22.210
 2754DPPC   C2A54738  23.070  19.990  21.900
 2754DPPC   C3A54739  23.180  20.440  21.910
 2754DPPC   C4A54740  23.070  20.890  21.840
 2754DPPC   C1B54741  23.190  20.160  22.370
 2754DPPC   C2B54742  23.570  20.420  22.240
 2754DPPC   C3B54743  23.860  20.720  21.980
 2754DPPC   C4B54744  23.930  20.870  21.530
 2755DPPC   NC354745  20.810  10.270  38.570
 2755DPPC   PO454746  21.290  10.250  38.600
 2755DPPC   GL154747  21.120   9.900  38.770
 2755DPPC   GL254748  21.180   9.640  38.680
 2755DPPC   C1A54749  20.790   9.620  38.900
 2755DPPC   C2A54750  20.750   9.190  39.010
 2755DPPC   C3A54751  20.510   8.920  39.130
 2755DPPC   C4A54752  20.360   8.470  39.210
 2755DPPC   C1B54753  21.250   9.190  38.780
 2755DPPC   C2B54754  20.950   8.900  38.550
 2755DPPC   C3B54755  21.020   8.530  38.710
 2755DPPC   C4B54756  21.130   8.080  38.710
 2756DPPC   NC354757  32.915  14.170  40.110
 2756DPPC   PO454758  32.505  14.340  40.190
 2756DPPC   GL154759  32.015  14.420  40.210
 2756DPPC   GL254760  31.925  14.110  40.120
 2756DPPC   C1A54761  31.665  14.670  39.950
 2756DPPC   C2A54762  31.235  14.650  39.820
 2756DPPC   C3A54763  30.835  14.630  39.950
 2756DPPC   C4A54764  30.375  14.570  39.890
 2756DPPC   C1B54765  31.575  14.090  39.870
 2756DPPC   C2B54766  31.535  14.080  39.310
 2756DPPC   C3B54767  31.445  14.150  38.870
 2756DPPC   C4B54768  31.335  14.000  38.490
 2757DPPC   NC354769  25.400  20.280  39.260
 2757DPPC   PO454770  25.310  20.040  39.630
 2757DPPC   GL154771  25.380  20.490  39.710
 2757DPPC   GL254772  25.620  20.480  39.710
 2757DPPC   C1A54773  25.330  20.980  39.770
 2757DPPC   C2A54774  25.650  21.290  39.890
 2757DPPC   C3A54775  26.040  21.450  39.950
 2757DPPC   C4A54776  26.400  21.760  39.960
 2757DPPC   C1B54777  25.990  20.740  39.630
 2757DPPC   C2B54778  26.220  21.010  39.790
 2757DPPC   C3B54779  26.475  21.260  40.090
 2757DPPC   C4B54780  26.725  21.530  40.310
 2758DPPC   NC354781  24.880  20.890  36.410
 2758DPPC   PO454782  24.900  21.290  36.320
 2758DPPC   GL154783  25.220  21.580  36.480
 2758DPPC   GL254784  25.290  21.740  36.740
 2758DPPC   C1A54785  25.610  21.740  36.280
 2758DPPC   C2A54786  25.950  22.030  36.080
 2758DPPC   C3A54787  26.110  21.950  35.760
 2758DPPC   C4A54788  26.280  22.070  35.460
 2758DPPC   C1B54789  25.540  22.000  36.720
 2758DPPC   C2B54790  25.900  22.200  36.970
 2758DPPC   C3B54791  26.050  22.460  36.710
 2758DPPC   C4B54792  26.160  22.470  36.220
 2759DPPC   NC354793  18.860  22.700  38.650
 2759DPPC   PO454794  18.990  22.900  39.010
 2759DPPC   GL154795  19.110  23.400  39.250
 2759DPPC   GL254796  19.290  23.730  39.120
 2759DPPC   C1A54797  19.000  23.570  39.620
 2759DPPC   C2A54798  18.740  23.710  40.040
 2759DPPC   C3A54799  18.670  24.130  40.270
 2759DPPC   C4A54800  18.900  24.490  40.440
 2759DPPC   C1B54801  19.500  24.100  39.340
 2759DPPC   C2B54802  19.640  24.500  39.570
 2759DPPC   C3B54803  19.310  24.780  39.780
 2759DPPC   C4B54804  18.970  24.640  39.950
 2760DPPC   NC354805  14.430  18.660  37.210
 2760DPPC   PO454806  14.750  18.510  37.440
 2760DPPC   GL154807  14.350  18.510  37.670
 2760DPPC   GL254808  14.130  18.250  37.770
 2760DPPC   C1A54809  13.920  18.710  37.690
 2760DPPC   C2A54810  13.600  19.120  37.610
 2760DPPC   C3A54811  13.330  19.500  37.760
 2760DPPC   C4A54812  12.890  19.470  38.020
 2760DPPC   C1B54813  13.700  18.170  37.740
 2760DPPC   C2B54814  13.270  18.300  37.810
 2760DPPC   C3B54815  12.940  18.350  37.620
 2760DPPC   C4B54816  12.760  18.690  37.840
 2761DPPC   NC354817  31.235  19.430  34.020
 2761DPPC   PO454818  30.985  19.120  33.760
 2761DPPC   GL154819  30.725  18.790  33.670
 2761DPPC   GL254820  30.925  18.700  33.480
 2761DPPC   C1A54821  30.365  18.540  33.780
 2761DPPC   C2A54822  30.315  18.050  33.690
 2761DPPC   C3A54823  30.205  17.650  33.680
 2761DPPC   C4A54824  29.915  17.280  33.620
 2761DPPC   C1B54825  30.605  18.340  33.360
 2761DPPC   C2B54826  30.295  18.040  33.130
 2761DPPC   C3B54827  30.045  17.840  32.980
 2761DPPC   C4B54828  30.125  17.500  32.700
 2762DPPC   NC354829  18.500   9.960  20.540
 2762DPPC   PO454830  18.910   9.810  20.540
 2762DPPC   GL154831  19.270  10.020  20.800
 2762DPPC   GL254832  19.210   9.850  21.130
 2762DPPC   C1A54833  19.560  10.280  20.850
 2762DPPC   C2A54834  19.920  10.330  21.020
 2762DPPC   C3A54835  20.300  10.110  20.880
 2762DPPC   C4A54836  20.290   9.910  20.460
 2762DPPC   C1B54837  19.490  10.110  21.330
 2762DPPC   C2B54838  19.790  10.450  21.470
 2762DPPC   C3B54839  20.050  10.650  21.770
 2762DPPC   C4B54840  19.990  10.870  22.140
 2763DPPC   NC354841  15.550  18.860  38.920
 2763DPPC   PO454842  15.190  18.610  39.080
 2763DPPC   GL154843  14.830  18.740  39.340
 2763DPPC   GL254844  14.910  18.590  39.570
 2763DPPC   C1A54845  14.390  18.780  39.560
 2763DPPC   C2A54846  14.000  18.840  39.770
 2763DPPC   C3A54847  13.850  19.070  40.120
 2763DPPC   C4A54848  13.850  19.250  40.580
 2763DPPC   C1B54849  14.730  18.500  39.940
 2763DPPC   C2B54850  14.340  18.480  40.260
 2763DPPC   C3B54851  13.930  18.610  40.240
 2763DPPC   C4B54852  13.700  18.790  40.540
 2764DPPC   NC354853  10.270  16.340  29.240
 2764DPPC   PO454854  10.160  16.560  28.800
 2764DPPC   GL154855  10.470  16.770  29.050
 2764DPPC   GL254856  10.410  17.080  29.350
 2764DPPC   C1A54857  10.840  16.870  29.300
 2764DPPC   C2A54858  11.200  16.970  29.380
 2764DPPC   C3A54859  11.560  16.980  29.140
 2764DPPC   C4A54860  11.970  17.100  29.180
 2764DPPC   C1B54861  10.570  17.310  29.490
 2764DPPC   C2B54862  10.930  17.480  29.520
 2764DPPC   C3B54863  11.320  17.460  29.580
 2764DPPC   C4B54864  11.320  17.800  29.780
 2765DPPC   NC354865  21.930  23.070  31.170
 2765DPPC   PO454866  22.050  23.370  31.600
 2765DPPC   GL154867  21.990  23.750  31.680
 2765DPPC   GL254868  22.070  23.950  32.000
 2765DPPC   C1A54869  22.230  24.110  31.390
 2765DPPC   C2A54870  22.190  24.530  31.290
 2765DPPC   C3A54871  22.460  24.800  31.380
 2765DPPC   C4A54872  22.620  25.080  31.630
 2765DPPC   C1B54873  21.920  24.340  32.230
 2765DPPC   C2B54874  21.840  24.770  32.270
 2765DPPC   C3B54875  21.880  25.210  32.290
 2765DPPC   C4B54876  21.890  25.660  32.310
 2766DPPC   NC354877  12.590  24.050  22.140
 2766DPPC   PO454878  12.860  24.330  22.460
 2766DPPC   GL154879  12.700  24.040  22.760
 2766DPPC   GL254880  12.640  23.780  22.630
 2766DPPC   C1A54881  12.740  23.940  23.210
 2766DPPC   C2A54882  12.890  24.170  23.630
 2766DPPC   C3A54883  13.090  24.540  23.710
 2766DPPC   C4A54884  13.360  24.770  23.620
 2766DPPC   C1B54885  12.960  23.620  22.840
 2766DPPC   C2B54886  13.240  23.200  23.050
 2766DPPC   C3B54887  13.550  22.860  22.930
 2766DPPC   C4B54888  13.930  22.900  22.820
 2767DPPC   NC354889  29.075  14.070  33.080
 2767DPPC   PO454890  29.155  14.300  32.840
 2767DPPC   GL154891  29.575  14.590  32.610
 2767DPPC   GL254892  29.605  14.790  32.250
 2767DPPC   C1A54893  29.875  14.990  32.710
 2767DPPC   C2A54894  30.185  15.160  32.490
 2767DPPC   C3A54895  30.595  15.270  32.470
 2767DPPC   C4A54896  30.775  15.250  32.070
 2767DPPC   C1B54897  29.935  14.830  32.100
 2767DPPC   C2B54898  30.365  14.770  32.220
 2767DPPC   C3B54899  30.725  14.690  32.210
 2767DPPC   C4B54900  30.925  14.520  32.440
 2768DPPC   NC354901  25.450  16.260  22.700
 2768DPPC   PO454902  25.830  16.120  23.050
 2768DPPC   GL154903  26.230  16.050  23.000
 2768DPPC   GL254904  26.200  15.660  22.980
 2768DPPC   C1A54905  26.665  16.190  23.060
 2768DPPC   C2A54906  26.995  16.170  22.810
 2768DPPC   C3A54907  27.365  16.120  22.560
 2768DPPC   C4A54908  27.805  16.120  22.660
 2768DPPC   C1B54909  26.615  15.780  22.820
 2768DPPC   C2B54910  27.065  15.680  22.590
 2768DPPC   C3B54911  27.435  15.510  22.830
 2768DPPC   C4B54912  27.855  15.270  22.750
 2769DPPC   NC354913  19.760  12.340  40.170
 2769DPPC   PO454914  19.960  12.280  40.520
 2769DPPC   GL154915  19.570  12.070  40.720
 2769DPPC   GL254916  19.640  11.760  40.560
 2769DPPC   C1A54917  19.240  11.810  40.920
 2769DPPC   C2A54918  18.880  11.600  40.930
 2769DPPC   C3A54919  18.610  11.380  41.100
 2769DPPC   C4A54920  18.170  11.550  41.190
 2769DPPC   C1B54921  19.210  11.690  40.370
 2769DPPC   C2B54922  18.820  11.640  40.330
 2769DPPC   C3B54923  18.760  11.240  40.360
 2769DPPC   C4B54924  18.840  10.760  40.350
 2770DPPC   NC354925  23.420   7.760  28.840
 2770DPPC   PO454926  23.230   8.130  29.170
 2770DPPC   GL154927  23.030   7.740  29.220
 2770DPPC   GL254928  23.070   7.550  29.610
 2770DPPC   C1A54929  22.850   7.500  28.900
 2770DPPC   C2A54930  22.700   7.130  28.910
 2770DPPC   C3A54931  22.730   6.710  29.110
 2770DPPC   C4A54932  22.890   6.230  28.960
 2770DPPC   C1B54933  22.970   7.200  29.390
 2770DPPC   C2B54934  23.080   6.780  29.450
 2770DPPC   C3B54935  23.080   6.430  29.710
 2770DPPC   C4B54936  23.360   6.140  29.960
 2771DPPC   NC354937  27.575  14.970  45.860
 2771DPPC   PO454938  27.935  15.140  45.630
 2771DPPC   GL154939  27.595  15.250  45.430
 2771DPPC   GL254940  27.595  15.310  45.080
 2771DPPC   C1A54941  27.185  15.270  45.470
 2771DPPC   C2A54942  26.805  15.510  45.350
 2771DPPC   C3A54943  26.390  15.550  45.280
 2771DPPC   C4A54944  26.050  15.550  45.220
 2771DPPC   C1B54945  27.095  15.210  44.970
 2771DPPC   C2B54946  26.705  15.430  44.860
 2771DPPC   C3B54947  26.575  15.450  44.460
 2771DPPC   C4B54948  26.270  15.590  44.120
 2772DPPC   NC354949  24.730   3.400  29.750
 2772DPPC   PO454950  24.320   3.350  29.800
 2772DPPC   GL154951  24.330   3.750  29.690
 2772DPPC   GL254952  24.200   3.980  29.380
 2772DPPC   C1A54953  24.170   4.140  29.940
 2772DPPC   C2A54954  24.290   4.570  29.880
 2772DPPC   C3A54955  24.350   4.940  29.660
 2772DPPC   C4A54956  24.160   5.180  29.300
 2772DPPC   C1B54957  24.620   4.090  29.610
 2772DPPC   C2B54958  24.740   4.360  29.920
 2772DPPC   C3B54959  24.680   4.650  30.140
 2772DPPC   C4B54960  24.300   4.800  30.390
 2773DPPC   NC354961   8.890  20.090  30.750
 2773DPPC   PO454962   9.230  19.940  30.400
 2773DPPC   GL154963   9.670  19.920  30.550
 2773DPPC   GL254964   9.730  20.000  30.280
 2773DPPC   C1A54965  10.130  20.030  30.660
 2773DPPC   C2A54966  10.520  20.140  30.690
 2773DPPC   C3A54967  10.900  20.360  30.510
 2773DPPC   C4A54968  11.420  20.230  30.590
 2773DPPC   C1B54969   9.920  20.330  30.040
 2773DPPC   C2B54970  10.180  20.520  29.730
 2773DPPC   C3B54971  10.550  20.440  29.400
 2773DPPC   C4B54972  10.930  20.530  29.520
 2774DPPC   NC354973  17.890  11.140  29.100
 2774DPPC   PO454974  18.060  11.210  28.690
 2774DPPC   GL154975  17.860  10.860  28.620
 2774DPPC   GL254976  17.610  10.960  28.710
 2774DPPC   C1A54977  17.760  10.440  28.650
 2774DPPC   C2A54978  17.440  10.180  28.640
 2774DPPC   C3A54979  17.430   9.860  28.360
 2774DPPC   C4A54980  17.330   9.630  28.100
 2774DPPC   C1B54981  17.450  10.660  28.930
 2774DPPC   C2B54982  17.470  10.260  29.120
 2774DPPC   C3B54983  17.880  10.050  29.050
 2774DPPC   C4B54984  17.950   9.920  28.550
 2775DPPC   NC354985  29.525  11.980  30.590
 2775DPPC   PO454986  29.775  11.840  30.950
 2775DPPC   GL154987  30.155  11.710  30.870
 2775DPPC   GL254988  30.265  11.960  30.620
 2775DPPC   C1A54989  30.465  11.450  30.920
 2775DPPC   C2A54990  30.785  11.250  30.940
 2775DPPC   C3A54991  31.155  11.410  30.990
 2775DPPC   C4A54992  31.215  11.860  30.940
 2775DPPC   C1B54993  30.735  11.840  30.820
 2775DPPC   C2B54994  30.905  12.150  31.170
 2775DPPC   C3B54995  31.365  12.310  31.220
 2775DPPC   C4B54996  31.705  12.140  31.300
 2776DPPC   NC354997  13.240   9.970  32.740
 2776DPPC   PO454998  13.570   9.610  32.830
 2776DPPC   GL154999  13.990   9.850  32.910
 2776DPPC   GL255000  14.090  10.100  33.070
 2776DPPC   C1A55001  14.460   9.960  32.820
 2776DPPC   C2A55002  14.790  10.200  32.850
 2776DPPC   C3A55003  15.110  10.490  32.870
 2776DPPC   C4A55004  15.270  10.930  32.900
 2776DPPC   C1B55005  14.390  10.430  33.110
 2776DPPC   C2B55006  14.580  10.790  32.770
 2776DPPC   C3B55007  14.770  10.920  32.390
 2776DPPC   C4B55008  15.080  10.900  32.030
 2777DPPC   NC355009  21.780   1.530  38.000
 2777DPPC   PO455010  22.100   1.140  37.990
 2777DPPC   GL155011  22.000   0.800  37.680
 2777DPPC   GL255012  22.280   0.840  37.470
 2777DPPC   C1A55013  21.730   0.390  37.630
 2777DPPC   C2A55014  21.440   0.070  37.600
 2777DPPC   C3A55015  21.070   0.250  37.890
 2777DPPC   C4A55016  21.000   0.580  38.160
 2777DPPC   C1B55017  22.240   0.380  37.360
 2777DPPC   C2B55018  22.040   0.020  37.510
 2777DPPC   C3B55019  21.790  26.010  37.520
 2777DPPC   C4B55020  21.460  25.690  37.480
 2778DPPC   NC355021  24.540  18.580  28.640
 2778DPPC   PO455022  24.230  18.890  28.860
 2778DPPC   GL155023  24.450  19.060  29.280
 2778DPPC   GL255024  24.720  19.000  29.110
 2778DPPC   C1A55025  24.670  19.140  29.710
 2778DPPC   C2A55026  24.620  19.360  30.130
 2778DPPC   C3A55027  24.520  19.400  30.530
 2778DPPC   C4A55028  24.180  19.470  30.770
 2778DPPC   C1B55029  25.090  19.180  28.880
 2778DPPC   C2B55030  25.400  19.470  29.080
 2778DPPC   C3B55031  25.730  19.620  28.890
 2778DPPC   C4B55032  26.250  19.590  28.960
 2779DPPC   NC355033  28.895  16.290  44.660
 2779DPPC   PO455034  29.035  16.070  44.360
 2779DPPC   GL155035  28.775  15.890  44.080
 2779DPPC   GL255036  28.855  15.920  43.860
 2779DPPC   C1A55037  28.365  15.900  44.020
 2779DPPC   C2A55038  28.025  15.940  43.950
 2779DPPC   C3A55039  27.595  16.250  43.990
 2779DPPC   C4A55040  27.325  16.190  44.380
 2779DPPC   C1B55041  29.035  15.970  43.490
 2779DPPC   C2B55042  29.425  16.000  43.280
 2779DPPC   C3B55043  29.525  16.170  42.940
 2779DPPC   C4B55044  29.505  16.460  42.500
 2780DPPC   NC355045  30.335  18.710  42.190
 2780DPPC   PO455046  30.125  18.570  42.620
 2780DPPC   GL155047  29.795  18.430  42.430
 2780DPPC   GL255048  29.825  18.530  42.010
 2780DPPC   C1A55049  29.765  17.950  42.360
 2780DPPC   C2A55050  29.635  17.610  42.380
 2780DPPC   C3A55051  29.685  17.220  42.190
 2780DPPC   C4A55052  29.405  16.940  42.160
 2780DPPC   C1B55053  29.385  18.240  42.110
 2780DPPC   C2B55054  29.155  17.940  42.280
 2780DPPC   C3B55055  28.745  17.760  42.410
 2780DPPC   C4B55056  28.365  17.880  42.520
 2781DPPC   NC355057  13.800  23.110  30.480
 2781DPPC   PO455058  13.660  22.920  30.030
 2781DPPC   GL155059  13.300  23.010  30.020
 2781DPPC   GL255060  13.130  22.740  30.180
 2781DPPC   C1A55061  12.980  23.270  30.120
 2781DPPC   C2A55062  12.760  23.660  30.110
 2781DPPC   C3A55063  12.700  24.030  30.340
 2781DPPC   C4A55064  12.650  24.390  30.590
 2781DPPC   C1B55065  12.810  22.840  30.270
 2781DPPC   C2B55066  12.450  23.210  30.200
 2781DPPC   C3B55067  12.060  23.210  30.010
 2781DPPC   C4B55068  11.820  23.240  29.680
 2782DPPC   NC355069  32.785  16.110  31.050
 2782DPPC   PO455070  32.775  15.870  31.380
 2782DPPC   GL155071  32.505  15.510  31.420
 2782DPPC   GL255072  32.225  15.790  31.390
 2782DPPC   C1A55073  32.135  15.380  31.710
 2782DPPC   C2A55074  31.685  15.380  31.860
 2782DPPC   C3A55075  31.305  15.330  32.030
 2782DPPC   C4A55076  31.095  15.670  32.290
 2782DPPC   C1B55077  31.785  15.680  31.480
 2782DPPC   C2B55078  31.345  15.510  31.490
 2782DPPC   C3B55079  30.965  15.240  31.610
 2782DPPC   C4B55080  30.895  14.830  31.800
 2783DPPC   NC355081  11.960  14.560  24.510
 2783DPPC   PO455082  11.900  14.200  24.540
 2783DPPC   GL155083  12.220  14.100  24.520
 2783DPPC   GL255084  12.400  14.350  24.450
 2783DPPC   C1A55085  12.320  13.910  24.900
 2783DPPC   C2A55086  12.620  13.580  25.190
 2783DPPC   C3A55087  13.040  13.670  25.330
 2783DPPC   C4A55088  13.410  13.370  25.080
 2783DPPC   C1B55089  12.910  14.390  24.440
 2783DPPC   C2B55090  13.250  14.390  24.700
 2783DPPC   C3B55091  13.510  14.440  25.030
 2783DPPC   C4B55092  13.940  14.240  25.220
 2784DPPC   NC355093  33.135  13.530  39.180
 2784DPPC   PO455094  32.915  13.330  38.990
 2784DPPC   GL155095  32.535  13.150  38.890
 2784DPPC   GL255096  32.325  13.350  38.660
 2784DPPC   C1A55097  32.195  12.910  38.690
 2784DPPC   C2A55098  31.925  12.740  38.490
 2784DPPC   C3A55099  31.645  12.510  38.160
 2784DPPC   C4A55100  31.265  12.630  38.020
 2784DPPC   C1B55101  32.015  13.600  38.660
 2784DPPC   C2B55102  31.635  13.620  38.840
 2784DPPC   C3B55103  31.245  13.400  38.850
 2784DPPC   C4B55104  30.825  13.280  38.940
 2785DPPC   NC355105  19.110  11.700  25.070
 2785DPPC   PO455106  18.770  11.960  25.060
 2785DPPC   GL155107  18.730  11.830  24.700
 2785DPPC   GL255108  18.410  11.970  24.740
 2785DPPC   C1A55109  18.680  11.510  24.410
 2785DPPC   C2A55110  18.830  11.130  24.270
 2785DPPC   C3A55111  18.960  10.960  23.820
 2785DPPC   C4A55112  18.770  10.730  23.510
 2785DPPC   C1B55113  18.200  11.490  24.810
 2785DPPC   C2B55114  17.960  11.350  24.430
 2785DPPC   C3B55115  17.760  11.120  24.100
 2785DPPC   C4B55116  17.370  10.900  24.210
 2786DPPC   NC355117  18.290  18.520  17.300
 2786DPPC   PO455118  18.300  18.990  17.300
 2786DPPC   GL155119  18.530  19.070  17.670
 2786DPPC   GL255120  18.660  18.720  17.770
 2786DPPC   C1A55121  18.510  19.250  18.010
 2786DPPC   C2A55122  18.550  19.310  18.390
 2786DPPC   C3A55123  18.530  19.270  18.870
 2786DPPC   C4A55124  18.570  19.390  19.320
 2786DPPC   C1B55125  18.490  18.710  18.310
 2786DPPC   C2B55126  18.820  18.810  18.730
 2786DPPC   C3B55127  19.050  18.980  19.100
 2786DPPC   C4B55128  18.900  18.980  19.610
 2787DPPC   NC355129  18.990  23.280  24.520
 2787DPPC   PO455130  18.680  23.230  24.130
 2787DPPC   GL155131  18.500  23.430  23.770
 2787DPPC   GL255132  18.230  23.510  23.800
 2787DPPC   C1A55133  18.240  23.270  23.400
 2787DPPC   C2A55134  18.000  23.420  23.150
 2787DPPC   C3A55135  17.920  23.470  22.760
 2787DPPC   C4A55136  18.020  23.550  22.270
 2787DPPC   C1B55137  18.250  23.810  23.360
 2787DPPC   C2B55138  18.160  23.830  22.920
 2787DPPC   C3B55139  18.250  23.880  22.510
 2787DPPC   C4B55140  18.510  23.800  22.270
 2788DPPC   NC355141  17.110   2.030  28.700
 2788DPPC   PO455142  17.380   2.100  28.950
 2788DPPC   GL155143  17.350   1.620  29.120
 2788DPPC   GL255144  17.110   1.580  29.450
 2788DPPC   C1A55145  17.460   1.210  29.220
 2788DPPC   C2A55146  17.500   0.860  29.370
 2788DPPC   C3A55147  17.550   0.730  29.760
 2788DPPC   C4A55148  17.300   0.440  30.180
 2788DPPC   C1B55149  17.180   1.150  29.660
 2788DPPC   C2B55150  17.130   0.910  30.000
 2788DPPC   C3B55151  17.100   0.870  30.460
 2788DPPC   C4B55152  16.800   0.560  30.640
 2789DPPC   NC355153  29.515  14.410  33.240
 2789DPPC   PO455154  29.425  14.460  33.670
 2789DPPC   GL155155  29.835  14.250  33.670
 2789DPPC   GL255156  30.015  14.400  33.500
 2789DPPC   C1A55157  30.145  13.980  33.710
 2789DPPC   C2A55158  30.505  13.810  33.920
 2789DPPC   C3A55159  30.865  13.810  34.120
 2789DPPC   C4A55160  31.185  13.520  34.050
 2789DPPC   C1B55161  30.405  14.370  33.680
 2789DPPC   C2B55162  30.785  14.180  33.770
 2789DPPC   C3B55163  31.105  14.320  33.450
 2789DPPC   C4B55164  31.375  13.980  33.250
 2790DPPC   NC355165  29.045  10.900  36.990
 2790DPPC   PO455166  29.055  10.490  36.890
 2790DPPC   GL155167  29.305  10.090  36.990
 2790DPPC   GL255168  29.345  10.200  37.260
 2790DPPC   C1A55169  29.755   9.860  37.080
 2790DPPC   C2A55170  30.095   9.820  37.370
 2790DPPC   C3A55171  30.445  10.000  37.390
 2790DPPC   C4A55172  30.505  10.430  37.440
 2790DPPC   C1B55173  29.675  10.010  37.530
 2790DPPC   C2B55174  29.955  10.200  37.770
 2790DPPC   C3B55175  30.115  10.300  38.190
 2790DPPC   C4B55176  30.285  10.410  38.660
 2791DPPC   NC355177  27.255  12.480  40.310
 2791DPPC   PO455178  27.275  12.190  40.080
 2791DPPC   GL155179  27.605  11.910  40.260
 2791DPPC   GL255180  27.545  11.630  40.380
 2791DPPC   C1A55181  27.845  11.870  40.660
 2791DPPC   C2A55182  28.095  12.050  40.990
 2791DPPC   C3A55183  28.265  12.410  41.280
 2791DPPC   C4A55184  28.275  12.780  41.570
 2791DPPC   C1B55185  27.855  11.440  40.500
 2791DPPC   C2B55186  28.195  11.440  40.240
 2791DPPC   C3B55187  28.625  11.520  40.220
 2791DPPC   C4B55188  28.895  11.620  39.960
 2792DPPC   NC355189  14.730  21.280  43.940
 2792DPPC   PO455190  15.040  21.000  44.330
 2792DPPC   GL155191  15.300  20.880  44.020
 2792DPPC   GL255192  15.330  20.490  43.930
 2792DPPC   C1A55193  15.460  20.900  43.540
 2792DPPC   C2A55194  15.530  21.260  43.290
 2792DPPC   C3A55195  15.770  21.550  43.010
 2792DPPC   C4A55196  15.680  21.900  42.970
 2792DPPC   C1B55197  15.560  20.370  43.490
 2792DPPC   C2B55198  15.760  20.080  43.070
 2792DPPC   C3B55199  15.780  20.040  42.650
 2792DPPC   C4B55200  15.910  20.420  42.410
 2793DPPC   NC355201  18.480  15.390  41.390
 2793DPPC   PO455202  18.800  15.490  41.650
 2793DPPC   GL155203  18.550  15.290  41.960
 2793DPPC   GL255204  18.560  15.250  42.320
 2793DPPC   C1A55205  18.150  15.030  42.060
 2793DPPC   C2A55206  18.040  14.830  42.350
 2793DPPC   C3A55207  17.620  14.620  42.550
 2793DPPC   C4A55208  17.530  14.930  42.890
 2793DPPC   C1B55209  18.350  15.230  42.670
 2793DPPC   C2B55210  18.060  14.850  42.870
 2793DPPC   C3B55211  17.850  14.620  43.140
 2793DPPC   C4B55212  17.810  14.290  43.470
 2794DPPC   NC355213  31.345  18.270  26.360
 2794DPPC   PO455214  31.165  18.050  26.050
 2794DPPC   GL155215  30.705  18.070  26.000
 2794DPPC   GL255216  30.495  17.740  25.940
 2794DPPC   C1A55217  30.285  18.290  26.200
 2794DPPC   C2A55218  29.855  18.340  26.320
 2794DPPC   C3A55219  29.365  18.370  26.230
 2794DPPC   C4A55220  28.865  18.270  26.130
 2794DPPC   C1B55221  30.115  17.790  26.110
 2794DPPC   C2B55222  29.695  17.830  26.100
 2794DPPC   C3B55223  29.275  17.850  26.160
 2794DPPC   C4B55224  28.965  17.780  25.920
 2795DPPC   NC355225  27.705  12.190  39.740
 2795DPPC   PO455226  27.755  12.410  40.130
 2795DPPC   GL155227  28.185  12.170  40.160
 2795DPPC   GL255228  28.135  11.910  40.330
 2795DPPC   C1A55229  28.585  12.020  40.310
 2795DPPC   C2A55230  28.915  11.850  40.550
 2795DPPC   C3A55231  29.165  12.050  40.890
 2795DPPC   C4A55232  29.175  12.210  41.340
 2795DPPC   C1B55233  28.375  11.660  40.640
 2795DPPC   C2B55234  28.655  11.850  40.980
 2795DPPC   C3B55235  28.725  12.250  41.140
 2795DPPC   C4B55236  28.755  12.380  41.620
 2796DPPC   NC355237  17.920  13.440  26.080
 2796DPPC   PO455238  17.650  13.180  25.810
 2796DPPC   GL155239  17.300  12.900  25.500
 2796DPPC   GL255240  16.950  12.900  25.450
 2796DPPC   C1A55241  17.200  12.490  25.310
 2796DPPC   C2A55242  17.150  12.140  25.070
 2796DPPC   C3A55243  17.280  11.820  24.800
 2796DPPC   C4A55244  17.710  11.620  24.750
 2796DPPC   C1B55245  16.740  12.470  25.590
 2796DPPC   C2B55246  16.610  12.160  25.320
 2796DPPC   C3B55247  16.500  11.810  25.240
 2796DPPC   C4B55248  16.630  11.370  25.310
 2797DPPC   NC355249  33.195  10.760  27.340
 2797DPPC   PO455250  32.715  10.910  27.320
 2797DPPC   GL155251  32.245  11.090  27.450
 2797DPPC   GL255252  32.175  11.550  27.520
 2797DPPC   C1A55253  31.785  11.230  27.660
 2797DPPC   C2A55254  31.445  11.260  28.020
 2797DPPC   C3A55255  31.255  11.560  28.250
 2797DPPC   C4A55256  30.955  11.770  28.440
 2797DPPC   C1B55257  31.795  11.760  27.600
 2797DPPC   C2B55258  31.365  11.650  27.570
 2797DPPC   C3B55259  30.985  11.670  27.850
 2797DPPC   C4B55260  30.555  11.860  27.910
 2798DPPC   NC355261  17.970  24.560  35.970
 2798DPPC   PO455262  18.110  24.410  36.360
 2798DPPC   GL155263  18.120  24.790  36.580
 2798DPPC   GL255264  17.780  24.660  36.720
 2798DPPC   C1A55265  18.150  25.250  36.590
 2798DPPC   C2A55266  18.130  25.730  36.460
 2798DPPC   C3A55267  18.230  26.110  36.500
 2798DPPC   C4A55268  18.450  26.350  36.900
 2798DPPC   C1B55269  17.930  24.970  37.010
 2798DPPC   C2B55270  18.210  25.290  37.110
 2798DPPC   C3B55271  18.120  25.700  37.280
 2798DPPC   C4B55272  17.910  25.960  37.530
 2799DPPC   NC355273  25.310  25.730  33.220
 2799DPPC   PO455274  25.440  25.700  33.630
 2799DPPC   GL155275  25.350  25.290  33.460
 2799DPPC   GL255276  25.630  25.070  33.290
 2799DPPC   C1A55277  25.130  24.910  33.530
 2799DPPC   C2A55278  25.080  24.470  33.310
 2799DPPC   C3A55279  24.710  24.190  33.410
 2799DPPC   C4A55280  24.830  23.800  33.420
 2799DPPC   C1B55281  25.640  24.630  33.450
 2799DPPC   C2B55282  25.360  24.290  33.680
 2799DPPC   C3B55283  24.950  24.150  33.860
 2799DPPC   C4B55284  24.630  23.840  33.940
 2800DPPC   NC355285  28.475  12.890  44.690
 2800DPPC   PO455286  28.575  13.290  44.830
 2800DPPC   GL155287  28.265  13.310  44.470
 2800DPPC   GL255288  28.455  13.310  44.220
 2800DPPC   C1A55289  27.895  13.210  44.380
 2800DPPC   C2A55290  27.445  13.040  44.070
 2800DPPC   C3A55291  27.155  13.370  43.900
 2800DPPC   C4A55292  26.795  13.530  43.960
 2800DPPC   C1B55293  28.245  12.910  44.120
 2800DPPC   C2B55294  27.935  12.590  44.050
 2800DPPC   C3B55295  27.495  12.470  44.100
 2800DPPC   C4B55296  27.145  12.610  43.810
 2801DPPC   NC355297  22.180   6.130  41.090
 2801DPPC   PO455298  22.240   6.210  40.660
 2801DPPC   GL155299  22.150   6.530  40.390
 2801DPPC   GL255300  22.140   6.950  40.600
 2801DPPC   C1A55301  22.350   6.560  39.940
 2801DPPC   C2A55302  22.550   6.570  39.550
 2801DPPC   C3A55303  22.500   6.880  39.140
 2801DPPC   C4A55304  22.190   7.160  38.900
 2801DPPC   C1B55305  22.280   7.070  40.210
 2801DPPC   C2B55306  22.640   7.120  39.970
 2801DPPC   C3B55307  22.980   7.220  39.860
 2801DPPC   C4B55308  23.390   7.220  39.720
 2802DPPC   NC355309  25.790  14.930  41.880
 2802DPPC   PO455310  25.700  14.580  41.840
 2802DPPC   GL155311  25.930  14.650  42.330
 2802DPPC   GL255312  25.810  14.400  42.480
 2802DPPC   C1A55313  26.120  14.810  42.680
 2802DPPC   C2A55314  26.160  14.830  43.170
 2802DPPC   C3A55315  26.455  14.870  43.360
 2802DPPC   C4A55316  26.815  14.890  43.540
 2802DPPC   C1B55317  25.930  14.270  42.830
 2802DPPC   C2B55318  26.300  13.980  43.060
 2802DPPC   C3B55319  26.475  13.730  43.450
 2802DPPC   C4B55320  26.605  13.970  43.810
 2803DPPC   NC355321  26.565   7.760  30.970
 2803DPPC   PO455322  26.705   7.810  31.350
 2803DPPC   GL155323  26.825   7.390  31.230
 2803DPPC   GL255324  26.835   7.360  31.540
 2803DPPC   C1A55325  26.775   6.940  31.100
 2803DPPC   C2A55326  26.745   6.560  31.180
 2803DPPC   C3A55327  26.515   6.190  31.260
 2803DPPC   C4A55328  26.260   5.820  31.380
 2803DPPC   C1B55329  27.095   6.970  31.480
 2803DPPC   C2B55330  27.195   6.540  31.390
 2803DPPC   C3B55331  27.585   6.350  31.610
 2803DPPC   C4B55332  27.855   6.520  31.800
 2804DPPC   NC355333  16.900  20.510  17.970
 2804DPPC   PO455334  16.630  20.570  18.260
 2804DPPC   GL155335  16.860  20.570  18.670
 2804DPPC   GL255336  17.090  20.410  18.510
 2804DPPC   C1A55337  16.990  20.820  19.060
 2804DPPC   C2A55338  17.270  20.900  19.370
 2804DPPC   C3A55339  17.410  20.620  19.680
 2804DPPC   C4A55340  17.420  20.310  20.040
 2804DPPC   C1B55341  17.310  20.040  18.320
 2804DPPC   C2B55342  17.540  19.670  18.210
 2804DPPC   C3B55343  17.790  19.300  18.490
 2804DPPC   C4B55344  18.130  19.080  18.650
 2805DPPC   NC355345  24.450   7.550  32.360
 2805DPPC   PO455346  24.290   7.240  32.540
 2805DPPC   GL155347  24.450   6.960  32.810
 2805DPPC   GL255348  24.210   6.990  32.960
 2805DPPC   C1A55349  24.610   6.590  33.020
 2805DPPC   C2A55350  24.590   6.130  32.850
 2805DPPC   C3A55351  24.510   5.760  32.990
 2805DPPC   C4A55352  24.320   5.470  33.170
 2805DPPC   C1B55353  24.210   6.590  32.680
 2805DPPC   C2B55354  24.130   6.140  32.650
 2805DPPC   C3B55355  23.960   5.810  32.750
 2805DPPC   C4B55356  23.850   5.390  32.900
 2806DPPC   NC355357  23.890  19.990  33.260
 2806DPPC   PO455358  24.260  20.400  33.380
 2806DPPC   GL155359  24.500  20.750  33.190
 2806DPPC   GL255360  24.610  20.470  33.050
 2806DPPC   C1A55361  24.810  20.940  32.930
 2806DPPC   C2A55362  25.090  21.240  32.850
 2806DPPC   C3A55363  25.280  21.260  32.430
 2806DPPC   C4A55364  25.370  21.670  32.230
 2806DPPC   C1B55365  24.860  20.530  32.730
 2806DPPC   C2B55366  25.230  20.770  32.480
 2806DPPC   C3B55367  25.350  20.940  32.010
 2806DPPC   C4B55368  25.370  21.390  31.820
 2807DPPC   NC355369  12.680   0.730  29.840
 2807DPPC   PO455370  13.090   0.630  29.580
 2807DPPC   GL155371  13.470   0.450  29.790
 2807DPPC   GL255372  13.390   0.150  29.700
 2807DPPC   C1A55373  13.800   0.130  29.990
 2807DPPC   C2A55374  14.140  26.380  30.180
 2807DPPC   C3A55375  14.600  26.400  30.240
 2807DPPC   C4A55376  15.060  26.430  30.400
 2807DPPC   C1B55377  13.690  26.210  29.540
 2807DPPC   C2B55378  13.930  25.900  29.570
 2807DPPC   C3B55379  14.220  25.590  29.740
 2807DPPC   C4B55380  14.150  25.240  29.450
 2808DPPC   NC355381  22.340   9.120  36.280
 2808DPPC   PO455382  22.360   8.950  36.750
 2808DPPC   GL155383  22.130   8.550  36.870
 2808DPPC   GL255384  21.870   8.650  36.640
 2808DPPC   C1A55385  22.060   8.220  36.980
 2808DPPC   C2A55386  22.060   7.830  36.820
 2808DPPC   C3A55387  21.850   7.420  37.020
 2808DPPC   C4A55388  21.650   7.070  37.090
 2808DPPC   C1B55389  21.990   8.300  36.420
 2808DPPC   C2B55390  21.830   7.910  36.280
 2808DPPC   C3B55391  21.910   7.460  36.260
 2808DPPC   C4B55392  21.610   7.080  36.150
 2809DPPC   NC355393  17.180  23.790  30.120
 2809DPPC   PO455394  17.310  24.040  29.890
 2809DPPC   GL155395  17.210  24.410  29.970
 2809DPPC   GL255396  17.100  24.490  29.690
 2809DPPC   C1A55397  17.070  24.820  30.120
 2809DPPC   C2A55398  16.960  25.180  30.080
 2809DPPC   C3A55399  17.050  25.590  30.040
 2809DPPC   C4A55400  17.010  25.980  30.170
 2809DPPC   C1B55401  16.600  24.560  29.550
 2809DPPC   C2B55402  16.170  24.720  29.620
 2809DPPC   C3B55403  15.950  25.030  29.780
 2809DPPC   C4B55404  16.030  25.530  29.760
 2810DPPC   NC355405  19.790  11.340  38.740
 2810DPPC   PO455406  19.710  10.970  38.550
 2810DPPC   GL155407  19.680  10.760  38.940
 2810DPPC   GL255408  19.650  10.940  39.270
 2810DPPC   C1A55409  19.520  10.300  39.010
 2810DPPC   C2A55410  19.360   9.850  39.140
 2810DPPC   C3A55411  19.370   9.360  39.190
 2810DPPC   C4A55412  19.360   8.930  39.350
 2810DPPC   C1B55413  19.360  10.650  39.460
 2810DPPC   C2B55414  19.180  10.230  39.350
 2810DPPC   C3B55415  18.820  10.000  39.480
 2810DPPC   C4B55416  18.500   9.860  39.730
 2811DPPC   NC355417  20.550  22.250  40.340
 2811DPPC   PO455418  20.460  22.010  40.690
 2811DPPC   GL155419  20.320  22.440  40.740
 2811DPPC   GL255420  20.620  22.640  40.620
 2811DPPC   C1A55421  20.220  22.810  40.870
 2811DPPC   C2A55422  20.320  23.100  41.220
 2811DPPC   C3A55423  20.460  23.240  41.710
 2811DPPC   C4A55424  20.440  23.450  41.970
 2811DPPC   C1B55425  20.600  23.090  40.760
 2811DPPC   C2B55426  20.630  23.470  41.000
 2811DPPC   C3B55427  20.700  23.930  41.080
 2811DPPC   C4B55428  20.900  24.400  40.940
 2812DPPC   NC355429  24.020  18.120  28.370
 2812DPPC   PO455430  24.160  18.330  28.800
 2812DPPC   GL155431  24.210  18.440  29.160
 2812DPPC   GL255432  24.510  18.490  29.190
 2812DPPC   C1A55433  24.290  18.600  29.620
 2812DPPC   C2A55434  24.430  18.710  30.010
 2812DPPC   C3A55435  24.150  19.070  30.340
 2812DPPC   C4A55436  23.960  19.030  30.700
 2812DPPC   C1B55437  24.870  18.770  29.490
 2812DPPC   C2B55438  25.110  18.980  29.870
 2812DPPC   C3B55439  25.400  18.870  30.260
 2812DPPC   C4B55440  25.270  18.900  30.690
 2813DPPC   NC355441  19.850  10.520  27.430
 2813DPPC   PO455442  19.730  10.090  27.520
 2813DPPC   GL155443  19.410   9.920  27.110
 2813DPPC   GL255444  19.100  10.030  27.090
 2813DPPC   C1A55445  19.180   9.510  27.010
 2813DPPC   C2A55446  18.840   9.290  27.220
 2813DPPC   C3A55447  18.750   8.950  27.480
 2813DPPC   C4A55448  18.500   8.790  27.810
 2813DPPC   C1B55449  18.820   9.810  27.270
 2813DPPC   C2B55450  18.400   9.810  27.530
 2813DPPC   C3B55451  18.070   9.640  27.520
 2813DPPC   C4B55452  17.970   9.360  27.630
 2814DPPC   NC355453  24.480  20.000  33.550
 2814DPPC   PO455454  24.660  19.990  33.930
 2814DPPC   GL155455  24.810  20.450  33.680
 2814DPPC   GL255456  24.610  20.670  33.640
 2814DPPC   C1A55457  24.980  20.520  33.340
 2814DPPC   C2A55458  25.310  20.800  33.020
 2814DPPC   C3A55459  25.600  20.820  32.760
 2814DPPC   C4A55460  25.710  20.720  32.330
 2814DPPC   C1B55461  24.880  20.970  33.510
 2814DPPC   C2B55462  25.210  21.160  33.340
 2814DPPC   C3B55463  25.490  21.470  33.100
 2814DPPC   C4B55464  25.750  21.800  33.030
 2815DPPC   NC355465  16.560  18.840  21.890
 2815DPPC   PO455466  16.720  19.130  21.620
 2815DPPC   GL155467  16.750  19.360  21.260
 2815DPPC   GL255468  17.100  19.380  21.090
 2815DPPC   C1A55469  16.530  19.510  20.930
 2815DPPC   C2A55470  16.640  19.620  20.540
 2815DPPC   C3A55471  16.920  19.850  20.450
 2815DPPC   C4A55472  17.170  19.930  20.180
 2815DPPC   C1B55473  16.920  19.220  20.610
 2815DPPC   C2B55474  16.980  18.920  20.310
 2815DPPC   C3B55475  16.570  18.720  20.200
 2815DPPC   C4B55476  16.170  18.590  20.440
 2816DPPC   NC355477  21.250   3.900  32.900
 2816DPPC   PO455478  21.710   3.960  32.910
 2816DPPC   GL155479  21.570   4.440  32.820
 2816DPPC   GL255480  21.540   4.670  33.060
 2816DPPC   C1A55481  21.620   4.800  32.540
 2816DPPC   C2A55482  21.640   5.150  32.360
 2816DPPC   C3A55483  21.630   5.590  32.420
 2816DPPC   C4A55484  21.470   6.050  32.550
 2816DPPC   C1B55485  21.850   4.920  33.020
 2816DPPC   C2B55486  22.310   5.070  33.110
 2816DPPC   C3B55487  22.480   5.500  33.110
 2816DPPC   C4B55488  22.560   5.870  33.270
 2817DPPC   NC355489  21.630  13.820  42.670
 2817DPPC   PO455490  21.270  13.720  42.490
 2817DPPC   GL155491  21.230  13.420  42.790
 2817DPPC   GL255492  20.800  13.540  43.010
 2817DPPC   C1A55493  21.130  13.060  43.080
 2817DPPC   C2A55494  20.970  12.670  43.100
 2817DPPC   C3A55495  20.900  12.200  43.180
 2817DPPC   C4A55496  20.830  11.860  43.000
 2817DPPC   C1B55497  20.770  13.300  43.340
 2817DPPC   C2B55498  20.500  12.960  43.380
 2817DPPC   C3B55499  20.330  12.580  43.580
 2817DPPC   C4B55500  20.030  12.470  43.950
 2818DPPC   NC355501  10.080  17.540  37.080
 2818DPPC   PO455502  10.350  17.210  37.300
 2818DPPC   GL155503  10.750  17.260  37.060
 2818DPPC   GL255504  10.840  16.980  36.840
 2818DPPC   C1A55505  11.020  17.410  36.670
 2818DPPC   C2A55506  11.400  17.590  36.610
 2818DPPC   C3A55507  11.680  17.900  36.540
 2818DPPC   C4A55508  12.010  17.970  36.820
 2818DPPC   C1B55509  11.240  16.920  36.510
 2818DPPC   C2B55510  11.610  16.880  36.380
 2818DPPC   C3B55511  11.940  16.800  36.210
 2818DPPC   C4B55512  12.170  16.970  36.020
 2819DPPC   NC355513  26.605  23.360  29.690
 2819DPPC   PO455514  26.585  22.970  29.650
 2819DPPC   GL155515  26.180  22.790  29.800
 2819DPPC   GL255516  26.120  23.130  29.820
 2819DPPC   C1A55517  25.940  22.380  29.870
 2819DPPC   C2A55518  25.490  22.280  29.830
 2819DPPC   C3A55519  24.990  22.250  29.820
 2819DPPC   C4A55520  24.550  22.240  29.740
 2819DPPC   C1B55521  25.710  22.810  29.920
 2819DPPC   C2B55522  25.260  22.860  29.770
 2819DPPC   C3B55523  24.900  22.700  29.520
 2819DPPC   C4B55524  24.910  22.240  29.290
 2820DPPC   NC355525  27.635   8.170  34.680
 2820DPPC   PO455526  27.575   8.430  35.030
 2820DPPC   GL155527  27.485   7.980  35.150
 2820DPPC   GL255528  27.195   7.800  35.240
 2820DPPC   C1A55529  27.745   7.590  35.060
 2820DPPC   C2A55530  27.625   7.240  35.030
 2820DPPC   C3A55531  27.185   7.060  35.220
 2820DPPC   C4A55532  27.025   6.780  35.550
 2820DPPC   C1B55533  27.495   7.550  35.520
 2820DPPC   C2B55534  27.615   7.150  35.530
 2820DPPC   C3B55535  27.565   6.760  35.590
 2820DPPC   C4B55536  27.605   6.500  35.380
 2821DPPC   NC355537  15.390  15.130  27.990
 2821DPPC   PO455538  15.550  14.690  28.030
 2821DPPC   GL155539  15.100  14.550  27.960
 2821DPPC   GL255540  14.810  14.820  28.030
 2821DPPC   C1A55541  14.770  14.280  27.870
 2821DPPC   C2A55542  14.610  13.840  27.710
 2821DPPC   C3A55543  14.440  13.690  27.370
 2821DPPC   C4A55544  14.560  13.620  26.960
 2821DPPC   C1B55545  14.420  14.690  27.940
 2821DPPC   C2B55546  14.290  14.240  27.870
 2821DPPC   C3B55547  14.090  13.950  27.590
 2821DPPC   C4B55548  13.890  13.610  27.220
 2822DPPC   NC355549  29.545  13.000  32.400
 2822DPPC   PO455550  29.685  13.130  32.860
 2822DPPC   GL155551  30.075  13.250  33.090
 2822DPPC   GL255552  30.075  13.520  33.310
 2822DPPC   C1A55553  30.465  13.000  33.190
 2822DPPC   C2A55554  30.885  12.870  33.400
 2822DPPC   C3A55555  31.195  13.180  33.510
 2822DPPC   C4A55556  31.525  13.560  33.530
 2822DPPC   C1B55557  30.475  13.520  33.290
 2822DPPC   C2B55558  30.835  13.370  33.080
 2822DPPC   C3B55559  31.115  12.950  32.910
 2822DPPC   C4B55560  31.475  13.060  32.790
 2823DPPC   NC355561  25.820  18.660  40.880
 2823DPPC   PO455562  25.950  18.320  40.590
 2823DPPC   GL155563  26.340  18.520  40.790
 2823DPPC   GL255564  26.290  18.590  41.100
 2823DPPC   C1A55565  26.815  18.660  40.870
 2823DPPC   C2A55566  27.025  18.750  41.270
 2823DPPC   C3A55567  27.235  18.580  41.660
 2823DPPC   C4A55568  27.475  18.440  42.020
 2823DPPC   C1B55569  26.585  18.550  41.250
 2823DPPC   C2B55570  26.765  18.290  41.590
 2823DPPC   C3B55571  26.985  18.260  41.970
 2823DPPC   C4B55572  26.875  18.400  42.460
 2824DPPC   NC355573  29.275  11.620  33.730
 2824DPPC   PO455574  29.675  11.580  33.440
 2824DPPC   GL155575  30.055  11.620  33.460
 2824DPPC   GL255576  30.245  11.370  33.200
 2824DPPC   C1A55577  30.485  11.490  33.590
 2824DPPC   C2A55578  30.975  11.470  33.650
 2824DPPC   C3A55579  31.125  11.830  34.090
 2824DPPC   C4A55580  31.335  12.180  34.260
 2824DPPC   C1B55581  30.715  11.170  33.150
 2824DPPC   C2B55582  31.185  11.010  33.340
 2824DPPC   C3B55583  31.455  11.250  33.460
 2824DPPC   C4B55584  31.865  11.320  33.360
 2825DPPC   NC355585  27.515   8.460  32.860
 2825DPPC   PO455586  27.505   8.160  32.560
 2825DPPC   GL155587  27.865   7.960  32.470
 2825DPPC   GL255588  28.005   7.730  32.670
 2825DPPC   C1A55589  28.165   7.730  32.200
 2825DPPC   C2A55590  28.235   7.450  31.890
 2825DPPC   C3A55591  28.465   7.100  31.710
 2825DPPC   C4A55592  28.415   6.640  31.680
 2825DPPC   C1B55593  28.345   7.560  32.630
 2825DPPC   C2B55594  28.485   7.110  32.700
 2825DPPC   C3B55595  28.315   6.710  32.560
 2825DPPC   C4B55596  28.105   6.590  32.200
 2826DPPC   NC355597  15.220  10.150  41.160
 2826DPPC   PO455598  15.540  10.510  40.940
 2826DPPC   GL155599  15.590  10.790  40.680
 2826DPPC   GL255600  15.830  10.660  40.470
 2826DPPC   C1A55601  15.690  11.280  40.690
 2826DPPC   C2A55602  15.980  11.410  40.750
 2826DPPC   C3A55603  16.280  11.400  41.010
 2826DPPC   C4A55604  16.690  11.500  40.820
 2826DPPC   C1B55605  15.990  11.080  40.370
 2826DPPC   C2B55606  16.390  11.100  40.540
 2826DPPC   C3B55607  16.780  11.300  40.360
 2826DPPC   C4B55608  17.200  11.050  40.360
 2827DPPC   NC355609  21.220  23.620  28.500
 2827DPPC   PO455610  21.510  23.570  28.220
 2827DPPC   GL155611  21.760  23.870  27.980
 2827DPPC   GL255612  21.780  24.030  28.240
 2827DPPC   C1A55613  22.020  24.350  27.910
 2827DPPC   C2A55614  22.180  24.730  28.010
 2827DPPC   C3A55615  22.200  25.190  27.820
 2827DPPC   C4A55616  22.260  25.560  28.010
 2827DPPC   C1B55617  21.650  24.320  28.250
 2827DPPC   C2B55618  21.620  24.700  28.530
 2827DPPC   C3B55619  21.570  25.220  28.570
 2827DPPC   C4B55620  21.330  25.540  28.710
 2828DPPC   NC355621  12.480  13.050  39.780
 2828DPPC   PO455622  12.140  13.290  40.000
 2828DPPC   GL155623  12.480  13.600  39.750
 2828DPPC   GL255624  12.520  13.920  39.900
 2828DPPC   C1A55625  12.860  13.690  39.560
 2828DPPC   C2A55626  13.120  13.990  39.290
 2828DPPC   C3A55627  13.430  14.130  39.010
 2828DPPC   C4A55628  13.840  14.170  38.820
 2828DPPC   C1B55629  12.880  14.130  39.830
 2828DPPC   C2B55630  13.040  14.520  39.950
 2828DPPC   C3B55631  13.330  14.780  39.940
 2828DPPC   C4B55632  13.570  15.010  40.190
 2829DPPC   NC355633  20.660   8.980  32.490
 2829DPPC   PO455634  20.550   8.820  32.090
 2829DPPC   GL155635  20.130   8.720  32.050
 2829DPPC   GL255636  20.020   8.480  32.070
 2829DPPC   C1A55637  19.640   8.810  32.030
 2829DPPC   C2A55638  19.230   8.700  32.130
 2829DPPC   C3A55639  19.070   8.310  32.200
 2829DPPC   C4A55640  18.960   7.870  32.120
 2829DPPC   C1B55641  19.930   8.120  32.020
 2829DPPC   C2B55642  19.750   7.710  32.000
 2829DPPC   C3B55643  19.410   7.670  31.910
 2829DPPC   C4B55644  18.990   7.400  31.730
 2830DPPC   NC355645  14.430   9.980  25.100
 2830DPPC   PO455646  14.400  10.420  24.970
 2830DPPC   GL155647  14.740  10.740  24.880
 2830DPPC   GL255648  14.580  11.060  24.930
 2830DPPC   C1A55649  15.190  10.990  25.010
 2830DPPC   C2A55650  15.640  10.930  25.070
 2830DPPC   C3A55651  15.830  11.160  25.370
 2830DPPC   C4A55652  15.780  11.200  25.820
 2830DPPC   C1B55653  14.890  11.360  25.060
 2830DPPC   C2B55654  15.300  11.420  25.300
 2830DPPC   C3B55655  15.710  11.660  25.520
 2830DPPC   C4B55656  15.960  11.700  25.950
 2831DPPC   NC355657  21.320  13.190  42.330
 2831DPPC   PO455658  20.910  13.420  42.390
 2831DPPC   GL155659  20.790  13.220  42.630
 2831DPPC   GL255660  21.080  12.890  42.610
 2831DPPC   C1A55661  20.610  12.970  42.910
 2831DPPC   C2A55662  20.570  12.400  42.870
 2831DPPC   C3A55663  20.650  12.030  42.540
 2831DPPC   C4A55664  20.370  11.980  42.200
 2831DPPC   C1B55665  21.400  12.590  42.830
 2831DPPC   C2B55666  21.410  12.210  43.150
 2831DPPC   C3B55667  21.490  11.680  43.110
 2831DPPC   C4B55668  21.810  11.630  42.840
 2832DPPC   NC355669  26.505   8.230  32.300
 2832DPPC   PO455670  26.475   7.830  32.560
 2832DPPC   GL155671  26.775   7.480  32.600
 2832DPPC   GL255672  27.005   7.550  32.920
 2832DPPC   C1A55673  27.015   7.150  32.580
 2832DPPC   C2A55674  27.195   6.840  32.480
 2832DPPC   C3A55675  27.295   6.380  32.630
 2832DPPC   C4A55676  27.485   6.020  32.660
 2832DPPC   C1B55677  27.205   7.230  33.010
 2832DPPC   C2B55678  27.445   6.800  32.870
 2832DPPC   C3B55679  27.675   6.350  32.990
 2832DPPC   C4B55680  27.945   6.200  33.320
 2833DPPC   NC355681  28.255   9.560  28.210
 2833DPPC   PO455682  28.005   9.190  28.160
 2833DPPC   GL155683  28.405   9.080  28.020
 2833DPPC   GL255684  28.325   8.820  27.790
 2833DPPC   C1A55685  28.845   9.160  27.870
 2833DPPC   C2A55686  29.235   9.120  27.750
 2833DPPC   C3A55687  29.695   8.920  27.810
 2833DPPC   C4A55688  29.945   8.820  28.060
 2833DPPC   C1B55689  28.265   8.560  27.340
 2833DPPC   C2B55690  28.375   8.300  27.160
 2833DPPC   C3B55691  28.565   8.230  26.770
 2833DPPC   C4B55692  28.575   8.490  26.380
 2834DPPC   NC355693  21.410  20.660  31.780
 2834DPPC   PO455694  21.650  20.710  31.340
 2834DPPC   GL155695  21.900  20.440  31.340
 2834DPPC   GL255696  21.920  20.130  31.320
 2834DPPC   C1A55697  22.430  20.320  31.210
 2834DPPC   C2A55698  22.760  20.030  31.360
 2834DPPC   C3A55699  22.780  19.640  31.110
 2834DPPC   C4A55700  23.110  19.320  31.040
 2834DPPC   C1B55701  22.280  19.990  31.730
 2834DPPC   C2B55702  22.780  20.180  31.890
 2834DPPC   C3B55703  23.140  20.060  32.110
 2834DPPC   C4B55704  23.450  19.950  32.320
 2835DPPC   NC355705  26.360  13.920  17.620
 2835DPPC   PO455706  26.485  13.940  18.060
 2835DPPC   GL155707  26.380  13.920  18.440
 2835DPPC   GL255708  26.310  13.640  18.620
 2835DPPC   C1A55709  26.230  14.140  18.840
 2835DPPC   C2A55710  26.020  14.210  19.320
 2835DPPC   C3A55711  25.780  14.070  19.610
 2835DPPC   C4A55712  25.500  13.720  19.610
 2835DPPC   C1B55713  25.850  13.730  18.490
 2835DPPC   C2B55714  25.380  13.580  18.650
 2835DPPC   C3B55715  25.070  13.570  18.850
 2835DPPC   C4B55716  24.740  13.290  18.890
 2836DPPC   NC355717  20.000  23.110  18.780
 2836DPPC   PO455718  19.710  23.030  18.630
 2836DPPC   GL155719  19.560  23.110  19.020
 2836DPPC   GL255720  19.650  22.960  19.280
 2836DPPC   C1A55721  19.280  23.240  19.340
 2836DPPC   C2A55722  18.780  23.270  19.470
 2836DPPC   C3A55723  18.510  23.200  19.740
 2836DPPC   C4A55724  18.080  23.220  19.790
 2836DPPC   C1B55725  19.430  22.770  19.540
 2836DPPC   C2B55726  19.370  22.670  20.020
 2836DPPC   C3B55727  19.270  22.840  20.390
 2836DPPC   C4B55728  19.620  22.630  20.740
 2837DPPC   NC355729  15.720  24.190  31.160
 2837DPPC   PO455730  15.440  23.860  31.380
 2837DPPC   GL155731  15.190  24.220  31.130
 2837DPPC   GL255732  14.910  24.220  31.250
 2837DPPC   C1A55733  14.990  24.380  30.760
 2837DPPC   C2A55734  14.720  24.760  30.640
 2837DPPC   C3A55735  14.390  25.060  30.580
 2837DPPC   C4A55736  14.170  25.390  30.870
 2837DPPC   C1B55737  14.700  24.600  31.200
 2837DPPC   C2B55738  14.400  24.890  31.050
 2837DPPC   C3B55739  14.070  25.000  31.230
 2837DPPC   C4B55740  13.700  25.220  31.520
 2838DPPC   NC355741  23.000  14.880  21.380
 2838DPPC   PO455742  22.550  14.990  21.360
 2838DPPC   GL155743  22.840  15.110  20.930
 2838DPPC   GL255744  22.770  15.440  20.820
 2838DPPC   C1A55745  23.130  15.030  20.560
 2838DPPC   C2A55746  23.100  15.190  20.170
 2838DPPC   C3A55747  23.230  15.480  19.880
 2838DPPC   C4A55748  23.400  15.820  19.740
 2838DPPC   C1B55749  23.100  15.570  20.520
 2838DPPC   C2B55750  23.490  15.500  20.400
 2838DPPC   C3B55751  23.750  15.560  19.970
 2838DPPC   C4B55752  23.980  15.780  19.750
 2839DPPC   NC355753  28.535  23.730  35.450
 2839DPPC   PO455754  28.215  23.850  35.610
 2839DPPC   GL155755  28.035  23.430  35.790
 2839DPPC   GL255756  28.045  23.350  35.410
 2839DPPC   C1A55757  27.915  23.090  36.080
 2839DPPC   C2A55758  27.715  22.850  36.420
 2839DPPC   C3A55759  27.515  22.530  36.710
 2839DPPC   C4A55760  27.475  21.990  36.740
 2839DPPC   C1B55761  27.625  23.140  35.590
 2839DPPC   C2B55762  27.485  22.900  35.940
 2839DPPC   C3B55763  27.295  22.600  36.270
 2839DPPC   C4B55764  27.065  22.360  36.540
 2840DPPC   NC355765  21.730   8.930  30.260
 2840DPPC   PO455766  21.790   8.470  30.160
 2840DPPC   GL155767  21.620   8.000  30.090
 2840DPPC   GL255768  21.360   7.880  30.370
 2840DPPC   C1A55769  21.740   7.520  30.140
 2840DPPC   C2A55770  21.830   7.200  30.230
 2840DPPC   C3A55771  21.860   6.780  30.330
 2840DPPC   C4A55772  21.670   6.380  30.350
 2840DPPC   C1B55773  21.520   7.490  30.570
 2840DPPC   C2B55774  21.650   7.090  30.710
 2840DPPC   C3B55775  21.580   6.990  31.120
 2840DPPC   C4B55776  21.720   6.810  31.460
 2841DPPC   NC355777  16.110  24.640  42.720
 2841DPPC   PO455778  16.500  24.780  42.900
 2841DPPC   GL155779  16.700  24.390  42.930
 2841DPPC   GL255780  16.720  24.160  43.190
 2841DPPC   C1A55781  16.830  24.030  42.670
 2841DPPC   C2A55782  17.010  23.840  42.270
 2841DPPC   C3A55783  17.120  23.610  42.010
 2841DPPC   C4A55784  17.350  23.370  41.640
 2841DPPC   C1B55785  17.030  23.810  43.080
 2841DPPC   C2B55786  17.270  23.700  42.810
 2841DPPC   C3B55787  17.560  23.600  42.560
 2841DPPC   C4B55788  17.790  23.350  42.260
 2842DPPC   NC355789  14.710  17.390  27.990
 2842DPPC   PO455790  14.360  17.280  27.880
 2842DPPC   GL155791  14.180  16.950  27.700
 2842DPPC   GL255792  14.260  16.640  27.730
 2842DPPC   C1A55793  13.990  16.830  27.320
 2842DPPC   C2A55794  13.660  16.770  27.110
 2842DPPC   C3A55795  13.410  16.830  26.790
 2842DPPC   C4A55796  13.060  16.880  26.560
 2842DPPC   C1B55797  13.890  16.320  27.660
 2842DPPC   C2B55798  13.570  16.330  27.310
 2842DPPC   C3B55799  13.250  16.140  27.080
 2842DPPC   C4B55800  12.940  15.690  26.970
 2843DPPC   NC355801  26.120   3.090  31.720
 2843DPPC   PO455802  25.850   3.500  31.760
 2843DPPC   GL155803  25.660   3.940  31.720
 2843DPPC   GL255804  25.760   4.070  32.030
 2843DPPC   C1A55805  25.470   4.360  31.710
 2843DPPC   C2A55806  25.220   4.730  31.740
 2843DPPC   C3A55807  25.120   5.100  32.010
 2843DPPC   C4A55808  25.050   5.480  31.930
 2843DPPC   C1B55809  25.900   4.350  32.290
 2843DPPC   C2B55810  25.780   4.710  32.430
 2843DPPC   C3B55811  25.690   5.140  32.600
 2843DPPC   C4B55812  25.330   5.380  32.540
 2844DPPC   NC355813  23.320   9.140  38.320
 2844DPPC   PO455814  23.640   9.430  38.540
 2844DPPC   GL155815  23.490   9.090  38.780
 2844DPPC   GL255816  23.850   9.090  38.850
 2844DPPC   C1A55817  23.320   8.740  38.890
 2844DPPC   C2A55818  23.350   8.310  38.910
 2844DPPC   C3A55819  23.380   8.120  39.320
 2844DPPC   C4A55820  23.550   7.820  39.580
 2844DPPC   C1B55821  23.810   8.710  38.940
 2844DPPC   C2B55822  23.970   8.290  39.010
 2844DPPC   C3B55823  23.940   7.900  39.010
 2844DPPC   C4B55824  24.110   7.430  39.050
 2845DPPC   NC355825  20.820  20.560  22.610
 2845DPPC   PO455826  20.590  20.250  22.430
 2845DPPC   GL155827  20.700  20.600  22.120
 2845DPPC   GL255828  20.480  20.700  21.860
 2845DPPC   C1A55829  20.820  21.050  21.940
 2845DPPC   C2A55830  21.040  21.320  21.920
 2845DPPC   C3A55831  21.350  21.510  21.780
 2845DPPC   C4A55832  21.490  21.810  21.720
 2845DPPC   C1B55833  20.810  20.740  21.600
 2845DPPC   C2B55834  21.010  20.830  21.440
 2845DPPC   C3B55835  21.280  20.930  21.160
 2845DPPC   C4B55836  21.560  21.350  21.180
 2846DPPC   NC355837  29.715  22.010  34.490
 2846DPPC   PO455838  29.485  22.020  34.860
 2846DPPC   GL155839  29.065  21.930  34.830
 2846DPPC   GL255840  28.885  22.160  34.620
 2846DPPC   C1A55841  28.695  21.660  35.060
 2846DPPC   C2A55842  28.375  21.410  35.110
 2846DPPC   C3A55843  27.955  21.280  35.290
 2846DPPC   C4A55844  27.715  20.860  35.330
 2846DPPC   C1B55845  28.475  22.070  34.850
 2846DPPC   C2B55846  28.275  21.920  35.130
 2846DPPC   C3B55847  27.905  21.850  35.250
 2846DPPC   C4B55848  27.565  21.750  35.310
 2847DPPC   NC355849  19.000   0.980  24.220
 2847DPPC   PO455850  19.300   0.740  24.400
 2847DPPC   GL155851  19.280   0.360  24.490
 2847DPPC   GL255852  19.200   0.330  24.800
 2847DPPC   C1A55853  19.380  26.290  24.510
 2847DPPC   C2A55854  19.610  26.160  24.820
 2847DPPC   C3A55855  19.870  25.790  24.760
 2847DPPC   C4A55856  19.980  25.340  24.730
 2847DPPC   C1B55857  18.940   0.070  24.920
 2847DPPC   C2B55858  19.070  26.010  24.820
 2847DPPC   C3B55859  19.380  25.740  24.540
 2847DPPC   C4B55860  19.510  25.390  24.550
 2848DPPC   NC355861  23.150  20.700  33.060
 2848DPPC   PO455862  23.480  20.830  33.140
 2848DPPC   GL155863  23.820  20.870  32.790
 2848DPPC   GL255864  23.680  20.840  32.500
 2848DPPC   C1A55865  24.260  20.940  32.630
 2848DPPC   C2A55866  24.550  21.090  32.410
 2848DPPC   C3A55867  24.930  21.120  32.110
 2848DPPC   C4A55868  24.780  21.000  31.710
 2848DPPC   C1B55869  23.960  20.930  32.230
 2848DPPC   C2B55870  24.330  20.800  32.060
 2848DPPC   C3B55871  24.530  20.500  31.800
 2848DPPC   C4B55872  24.570  20.070  31.970
 2849DPPC   NC355873  15.710  13.680  29.240
 2849DPPC   PO455874  15.870  14.070  28.980
 2849DPPC   GL155875  15.580  13.880  28.770
 2849DPPC   GL255876  15.630  13.830  28.490
 2849DPPC   C1A55877  15.250  13.580  28.860
 2849DPPC   C2A55878  14.970  13.370  29.200
 2849DPPC   C3A55879  14.710  13.170  29.420
 2849DPPC   C4A55880  14.500  12.790  29.450
 2849DPPC   C1B55881  15.300  13.520  28.370
 2849DPPC   C2B55882  14.910  13.310  28.490
 2849DPPC   C3B55883  14.540  13.100  28.310
 2849DPPC   C4B55884  14.260  12.720  28.110
 2850DPPC   NC355885  23.220   6.270  22.390
 2850DPPC   PO455886  23.340   6.670  22.150
 2850DPPC   GL155887  23.270   7.090  22.400
 2850DPPC   GL255888  22.920   7.270  22.310
 2850DPPC   C1A55889  23.570   7.230  22.760
 2850DPPC   C2A55890  23.710   7.460  23.100
 2850DPPC   C3A55891  23.900   7.670  23.560
 2850DPPC   C4A55892  23.810   7.830  24.020
 2850DPPC   C1B55893  23.110   7.470  22.700
 2850DPPC   C2B55894  23.250   7.830  22.950
 2850DPPC   C3B55895  23.300   8.210  23.160
 2850DPPC   C4B55896  23.500   8.640  23.210
 2851DPPC   NC355897  28.285  17.430  20.210
 2851DPPC   PO455898  28.255  16.990  20.290
 2851DPPC   GL155899  28.165  16.850  20.600
 2851DPPC   GL255900  27.975  16.610  20.570
 2851DPPC   C1A55901  28.145  16.770  21.110
 2851DPPC   C2A55902  28.125  16.380  21.480
 2851DPPC   C3A55903  27.975  16.200  21.760
 2851DPPC   C4A55904  27.675  16.040  22.150
 2851DPPC   C1B55905  27.595  16.500  20.700
 2851DPPC   C2B55906  27.295  16.260  21.020
 2851DPPC   C3B55907  26.995  16.410  21.340
 2851DPPC   C4B55908  26.885  16.570  21.740
 2852DPPC   NC355909  33.215  15.100  28.800
 2852DPPC   PO455910  32.975  15.360  28.530
 2852DPPC   GL155911  32.485  15.470  28.510
 2852DPPC   GL255912  32.385  15.450  28.180
 2852DPPC   C1A55913  32.045  15.410  28.590
 2852DPPC   C2A55914  31.765  15.100  28.710
 2852DPPC   C3A55915  31.645  14.750  28.560
 2852DPPC   C4A55916  31.635  14.300  28.420
 2852DPPC   C1B55917  32.135  15.490  28.020
 2852DPPC   C2B55918  31.775  15.280  28.040
 2852DPPC   C3B55919  31.425  15.090  28.190
 2852DPPC   C4B55920  30.935  15.020  28.120
 2853DPPC   NC355921  22.580   3.430  28.630
 2853DPPC   PO455922  22.700   3.730  28.900
 2853DPPC   GL155923  23.060   3.970  29.040
 2853DPPC   GL255924  23.260   4.010  29.320
 2853DPPC   C1A55925  23.520   4.190  28.930
 2853DPPC   C2A55926  23.740   4.470  28.700
 2853DPPC   C3A55927  24.120   4.780  28.910
 2853DPPC   C4A55928  24.370   5.090  28.770
 2853DPPC   C1B55929  23.320   4.380  29.660
 2853DPPC   C2B55930  23.530   4.830  29.560
 2853DPPC   C3B55931  23.730   5.320  29.410
 2853DPPC   C4B55932  24.030   5.560  29.050
 2854DPPC   NC355933  15.790  16.960  39.360
 2854DPPC   PO455934  15.750  16.630  39.700
 2854DPPC   GL155935  15.590  16.780  40.120
 2854DPPC   GL255936  15.880  17.010  40.340
 2854DPPC   C1A55937  15.290  16.640  40.440
 2854DPPC   C2A55938  15.050  16.410  40.690
 2854DPPC   C3A55939  15.080  16.080  40.980
 2854DPPC   C4A55940  15.070  15.660  41.100
 2854DPPC   C1B55941  15.660  17.130  40.680
 2854DPPC   C2B55942  15.380  17.180  41.030
 2854DPPC   C3B55943  15.080  16.910  41.200
 2854DPPC   C4B55944  14.890  16.500  41.190
 2855DPPC   NC355945  16.830  24.810  32.990
 2855DPPC   PO455946  17.020  24.720  32.650
 2855DPPC   GL155947  17.070  25.150  32.620
 2855DPPC   GL255948  17.370  25.330  32.810
 2855DPPC   C1A55949  16.890  25.600  32.700
 2855DPPC   C2A55950  17.090  25.910  33.000
 2855DPPC   C3A55951  17.140  26.370  32.950
 2855DPPC   C4A55952  17.210   0.360  33.050
 2855DPPC   C1B55953  17.600  25.690  32.720
 2855DPPC   C2B55954  17.670  26.160  32.700
 2855DPPC   C3B55955  17.760   0.030  33.000
 2855DPPC   C4B55956  17.900   0.430  32.980
 2856DPPC   NC355957  14.840  11.590  21.760
 2856DPPC   PO455958  14.980  11.990  21.470
 2856DPPC   GL155959  14.890  12.270  21.780
 2856DPPC   GL255960  15.160  12.320  21.900
 2856DPPC   C1A55961  14.830  12.680  21.800
 2856DPPC   C2A55962  14.930  13.100  21.790
 2856DPPC   C3A55963  14.980  13.450  22.040
 2856DPPC   C4A55964  14.720  13.880  21.910
 2856DPPC   C1B55965  15.370  12.760  21.960
 2856DPPC   C2B55966  15.740  12.900  22.110
 2856DPPC   C3B55967  16.160  12.690  22.190
 2856DPPC   C4B55968  16.460  12.470  22.430
 2857DPPC   NC355969  16.230  16.730  40.000
 2857DPPC   PO455970  16.390  16.350  39.760
 2857DPPC   GL155971  16.070  16.220  40.110
 2857DPPC   GL255972  15.920  16.460  40.330
 2857DPPC   C1A55973  15.870  15.980  40.410
 2857DPPC   C2A55974  16.030  15.810  40.760
 2857DPPC   C3A55975  16.090  15.410  40.950
 2857DPPC   C4A55976  16.150  15.390  41.490
 2857DPPC   C1B55977  15.600  16.320  40.650
 2857DPPC   C2B55978  15.650  15.930  41.030
 2857DPPC   C3B55979  15.420  15.990  41.470
 2857DPPC   C4B55980  15.470  15.730  41.830
 2858DPPC   NC355981  13.650  19.220  18.930
 2858DPPC   PO455982  13.640  19.230  19.350
 2858DPPC   GL155983  13.970  19.290  19.670
 2858DPPC   GL255984  14.150  19.060  19.830
 2858DPPC   C1A55985  14.170  19.600  19.920
 2858DPPC   C2A55986  14.530  19.670  20.070
 2858DPPC   C3A55987  14.980  19.690  20.240
 2858DPPC   C4A55988  15.330  19.770  20.450
 2858DPPC   C1B55989  14.400  19.180  20.150
 2858DPPC   C2B55990  14.670  19.280  20.430
 2858DPPC   C3B55991  14.930  19.470  20.700
 2858DPPC   C4B55992  15.180  19.590  20.930
 2859DPPC   NC355993  28.625  21.180  26.130
 2859DPPC   PO455994  29.025  21.300  25.780
 2859DPPC   GL155995  28.585  21.320  25.630
 2859DPPC   GL255996  28.385  21.140  25.370
 2859DPPC   C1A55997  28.105  20.990  25.760
 2859DPPC   C2A55998  27.835  20.640  25.610
 2859DPPC   C3A55999  27.445  20.560  25.450
 2859DPPC   C4A56000  27.075  20.680  25.240
 2859DPPC   C1B56001  28.195  20.730  25.250
 2859DPPC   C2B56002  28.015  20.230  25.290
 2859DPPC   C3B56003  27.695  20.110  25.600
 2859DPPC   C4B56004  27.505  19.780  25.780
 2860DPPC   NC356005  26.100  11.480  24.240
 2860DPPC   PO456006  26.110  11.120  24.460
 2860DPPC   GL156007  26.410  11.020  24.140
 2860DPPC   GL256008  26.230  10.810  23.920
 2860DPPC   C1A56009  26.805  10.950  24.020
 2860DPPC   C2A56010  27.125  10.610  24.010
 2860DPPC   C3A56011  27.225  10.340  23.720
 2860DPPC   C4A56012  27.375  10.150  23.320
 2860DPPC   C1B56013  26.515  10.470  23.910
 2860DPPC   C2B56014  26.805  10.190  23.830
 2860DPPC   C3B56015  27.235   9.840  23.730
 2860DPPC   C4B56016  27.655   9.770  23.610
 2861DPPC   NC356017  27.605   8.320  29.690
 2861DPPC   PO456018  27.875   8.590  29.420
 2861DPPC   GL156019  28.185   8.320  29.550
 2861DPPC   GL256020  28.485   8.300  29.680
 2861DPPC   C1A56021  28.215   7.850  29.580
 2861DPPC   C2A56022  28.535   7.520  29.430
 2861DPPC   C3A56023  28.625   7.030  29.550
 2861DPPC   C4A56024  28.575   6.680  29.370
 2861DPPC   C1B56025  28.755   7.940  29.620
 2861DPPC   C2B56026  29.105   7.700  29.710
 2861DPPC   C3B56027  29.455   7.460  29.770
 2861DPPC   C4B56028  29.825   7.260  29.870
 2862DPPC   NC356029  14.990  17.010  38.230
 2862DPPC   PO456030  15.190  17.420  38.210
 2862DPPC   GL156031  14.690  17.470  38.350
 2862DPPC   GL256032  14.630  17.220  38.540
 2862DPPC   C1A56033  14.230  17.440  38.320
 2862DPPC   C2A56034  13.810  17.460  38.190
 2862DPPC   C3A56035  13.440  17.180  38.290
 2862DPPC   C4A56036  13.140  17.050  38.590
 2862DPPC   C1B56037  14.380  17.250  38.870
 2862DPPC   C2B56038  14.070  17.420  39.030
 2862DPPC   C3B56039  13.850  17.490  39.380
 2862DPPC   C4B56040  13.830  17.770  39.660
 2863DPPC   NC356041  15.070   2.700  33.720
 2863DPPC   PO456042  15.100   2.300  33.640
 2863DPPC   GL156043  15.170   1.810  33.500
 2863DPPC   GL256044  15.430   1.770  33.240
 2863DPPC   C1A56045  15.230   1.370  33.350
 2863DPPC   C2A56046  15.710   1.390  33.470
 2863DPPC   C3A56047  16.110   1.290  33.510
 2863DPPC   C4A56048  16.510   1.020  33.390
 2863DPPC   C1B56049  15.730   1.470  33.000
 2863DPPC   C2B56050  16.000   1.190  33.000
 2863DPPC   C3B56051  16.020   0.790  32.840
 2863DPPC   C4B56052  16.110   0.420  32.700
 2864DPPC   NC356053  21.260  15.540  21.430
 2864DPPC   PO456054  21.570  15.260  21.240
 2864DPPC   GL156055  21.730  15.360  20.810
 2864DPPC   GL256056  21.950  15.580  20.710
 2864DPPC   C1A56057  21.790  15.280  20.390
 2864DPPC   C2A56058  21.800  15.200  19.960
 2864DPPC   C3A56059  21.520  15.130  19.680
 2864DPPC   C4A56060  21.510  15.380  19.290
 2864DPPC   C1B56061  21.650  15.800  20.390
 2864DPPC   C2B56062  21.690  15.960  20.000
 2864DPPC   C3B56063  21.490  16.280  19.730
 2864DPPC   C4B56064  21.150  16.260  19.340
 2865DPPC   NC356065  17.850  19.590  22.070
 2865DPPC   PO456066  17.830  19.450  21.620
 2865DPPC   GL156067  17.780  19.570  21.140
 2865DPPC   GL256068  17.540  19.720  21.250
 2865DPPC   C1A56069  17.980  19.740  20.730
 2865DPPC   C2A56070  18.320  19.670  20.430
 2865DPPC   C3A56071  18.690  19.950  20.370
 2865DPPC   C4A56072  19.020  20.130  20.090
 2865DPPC   C1B56073  17.420  19.720  20.740
 2865DPPC   C2B56074  17.620  19.830  20.340
 2865DPPC   C3B56075  17.860  20.320  20.280
 2865DPPC   C4B56076  18.330  20.280  20.190
 2866DPPC   NC356077  12.450  11.040  32.590
 2866DPPC   PO456078  12.820  10.930  32.720
 2866DPPC   GL156079  13.120  11.190  32.640
 2866DPPC   GL256080  13.400  10.980  32.610
 2866DPPC   C1A56081  13.450  11.440  32.610
 2866DPPC   C2A56082  13.830  11.470  32.840
 2866DPPC   C3A56083  14.040  11.650  33.200
 2866DPPC   C4A56084  14.420  11.510  33.150
 2866DPPC   C1B56085  13.840  10.950  32.690
 2866DPPC   C2B56086  14.130  10.820  32.510
 2866DPPC   C3B56087  14.550  10.400  32.440
 2866DPPC   C4B56088  14.990  10.520  32.310
 2867DPPC   NC356089  19.390  14.660  22.670
 2867DPPC   PO456090  19.100  14.960  22.720
 2867DPPC   GL156091  18.780  14.810  22.480
 2867DPPC   GL256092  18.870  14.600  22.340
 2867DPPC   C1A56093  18.410  14.930  22.200
 2867DPPC   C2A56094  18.120  14.880  21.940
 2867DPPC   C3A56095  17.820  14.630  21.720
 2867DPPC   C4A56096  17.700  14.140  21.660
 2867DPPC   C1B56097  18.480  14.480  22.010
 2867DPPC   C2B56098  18.230  14.350  21.620
 2867DPPC   C3B56099  18.040  14.360  21.340
 2867DPPC   C4B56100  17.610  14.230  21.160
 2868DPPC   NC356101  28.735  13.930  38.340
 2868DPPC   PO456102  29.155  13.940  38.200
 2868DPPC   GL156103  29.595  13.870  38.060
 2868DPPC   GL256104  29.595  13.890  38.360
 2868DPPC   C1A56105  29.995  14.110  38.080
 2868DPPC   C2A56106  30.285  14.360  38.200
 2868DPPC   C3A56107  30.565  14.520  37.890
 2868DPPC   C4A56108  30.995  14.410  37.660
 2868DPPC   C1B56109  29.915  13.860  38.630
 2868DPPC   C2B56110  30.305  13.940  38.710
 2868DPPC   C3B56111  30.705  14.180  38.470
 2868DPPC   C4B56112  31.075  14.390  38.210
 2869DPPC   NC356113  16.270  17.600  39.150
 2869DPPC   PO456114  15.850  17.390  39.170
 2869DPPC   GL156115  15.580  17.410  39.520
 2869DPPC   GL256116  15.420  17.700  39.420
 2869DPPC   C1A56117  15.420  17.220  39.850
 2869DPPC   C2A56118  15.130  17.140  40.210
 2869DPPC   C3A56119  15.000  17.020  40.610
 2869DPPC   C4A56120  14.680  16.740  40.760
 2869DPPC   C1B56121  15.060  17.580  39.630
 2869DPPC   C2B56122  14.720  17.490  39.930
 2869DPPC   C3B56123  14.370  17.510  40.200
 2869DPPC   C4B56124  14.050  17.450  40.500
 2870DPPC   NC356125  14.180  18.490  35.500
 2870DPPC   PO456126  13.820  18.810  35.670
 2870DPPC   GL156127  13.470  18.650  35.830
 2870DPPC   GL256128  13.400  18.850  36.120
 2870DPPC   C1A56129  13.350  18.250  35.990
 2870DPPC   C2A56130  12.940  18.030  35.990
 2870DPPC   C3A56131  12.740  17.620  36.120
 2870DPPC   C4A56132  12.370  17.420  36.160
 2870DPPC   C1B56133  13.020  18.780  36.040
 2870DPPC   C2B56134  12.740  18.470  35.910
 2870DPPC   C3B56135  12.380  18.170  36.060
 2870DPPC   C4B56136  12.170  17.860  36.290
 2871DPPC   NC356137  13.570  18.090  30.850
 2871DPPC   PO456138  13.650  17.690  30.600
 2871DPPC   GL156139  13.360  17.600  30.920
 2871DPPC   GL256140  13.140  17.740  30.770
 2871DPPC   C1A56141  13.120  17.240  30.900
 2871DPPC   C2A56142  12.740  17.040  30.970
 2871DPPC   C3A56143  12.370  17.080  31.050
 2871DPPC   C4A56144  11.920  17.180  31.030
 2871DPPC   C1B56145  12.800  17.580  30.910
 2871DPPC   C2B56146  12.360  17.640  30.990
 2871DPPC   C3B56147  11.850  17.650  30.860
 2871DPPC   C4B56148  11.610  17.520  30.610
 2872DPPC   NC356149  23.930  17.880  22.080
 2872DPPC   PO456150  23.680  17.700  21.920
 2872DPPC   GL156151  23.760  17.870  21.510
 2872DPPC   GL256152  23.910  18.020  21.560
 2872DPPC   C1A56153  23.720  17.790  21.050
 2872DPPC   C2A56154  23.950  17.880  20.700
 2872DPPC   C3A56155  24.130  17.590  20.360
 2872DPPC   C4A56156  24.260  17.300  20.160
 2872DPPC   C1B56157  24.300  17.910  21.370
 2872DPPC   C2B56158  24.540  17.640  21.170
 2872DPPC   C3B56159  24.900  17.620  20.890
 2872DPPC   C4B56160  24.920  17.790  20.570
 2873DPPC   NC356161  27.975  16.070  39.620
 2873DPPC   PO456162  27.825  16.320  39.850
 2873DPPC   GL156163  28.235  16.240  40.010
 2873DPPC   GL256164  28.415  16.080  39.900
 2873DPPC   C1A56165  28.435  15.980  40.360
 2873DPPC   C2A56166  28.435  15.830  40.890
 2873DPPC   C3A56167  28.805  15.640  41.070
 2873DPPC   C4A56168  29.025  15.630  41.510
 2873DPPC   C1B56169  28.805  16.240  40.050
 2873DPPC   C2B56170  29.145  16.120  40.240
 2873DPPC   C3B56171  29.535  16.170  40.460
 2873DPPC   C4B56172  29.635  16.130  40.840
 2874DPPC   NC356173  29.385  20.480  25.100
 2874DPPC   PO456174  29.035  20.350  24.780
 2874DPPC   GL156175  28.665  20.110  24.710
 2874DPPC   GL256176  28.635  19.820  24.590
 2874DPPC   C1A56177  28.335  19.900  24.970
 2874DPPC   C2A56178  28.195  19.440  25.190
 2874DPPC   C3A56179  27.855  19.370  25.170
 2874DPPC   C4A56180  27.545  19.000  25.250
 2874DPPC   C1B56181  28.375  19.390  24.690
 2874DPPC   C2B56182  28.085  19.090  24.840
 2874DPPC   C3B56183  28.045  18.620  24.840
 2874DPPC   C4B56184  28.015  18.190  25.010
 2875DPPC   NC356185  27.845   9.520  27.060
 2875DPPC   PO456186  27.475   9.290  27.280
 2875DPPC   GL156187  27.555   9.000  26.850
 2875DPPC   GL256188  27.685   9.190  26.560
 2875DPPC   C1A56189  27.665   8.680  26.590
 2875DPPC   C2A56190  27.985   8.480  26.290
 2875DPPC   C3A56191  28.315   8.300  25.980
 2875DPPC   C4A56192  28.155   7.780  26.000
 2875DPPC   C1B56193  27.945   9.010  26.150
 2875DPPC   C2B56194  28.325   9.020  26.000
 2875DPPC   C3B56195  28.535   8.710  25.860
 2875DPPC   C4B56196  28.825   8.580  25.650
 2876DPPC   NC356197  19.260  10.420  35.790
 2876DPPC   PO456198  18.980  10.380  36.090
 2876DPPC   GL156199  18.870  10.090  36.310
 2876DPPC   GL256200  18.920  10.340  36.580
 2876DPPC   C1A56201  18.680   9.710  36.340
 2876DPPC   C2A56202  18.470   9.330  36.170
 2876DPPC   C3A56203  18.440   8.950  36.190
 2876DPPC   C4A56204  18.650   8.620  36.050
 2876DPPC   C1B56205  18.620  10.040  36.780
 2876DPPC   C2B56206  18.470   9.670  36.840
 2876DPPC   C3B56207  18.390   9.190  36.700
 2876DPPC   C4B56208  18.120   9.190  36.450
 2877DPPC   NC356209  14.580  13.250  20.770
 2877DPPC   PO456210  14.590  12.870  21.000
 2877DPPC   GL156211  14.880  13.070  21.320
 2877DPPC   GL256212  14.900  13.310  21.190
 2877DPPC   C1A56213  15.360  13.130  21.560
 2877DPPC   C2A56214  15.470  13.360  21.920
 2877DPPC   C3A56215  15.400  13.220  22.350
 2877DPPC   C4A56216  15.090  12.910  22.490
 2877DPPC   C1B56217  15.080  13.610  21.530
 2877DPPC   C2B56218  15.260  13.820  21.820
 2877DPPC   C3B56219  15.390  13.820  22.260
 2877DPPC   C4B56220  15.490  13.850  22.690
 2878DPPC   NC356221  19.100  22.520  23.690
 2878DPPC   PO456222  18.680  22.450  23.580
 2878DPPC   GL156223  18.420  22.510  23.350
 2878DPPC   GL256224  18.460  22.890  23.170
 2878DPPC   C1A56225  18.270  22.570  22.860
 2878DPPC   C2A56226  18.480  22.780  22.540
 2878DPPC   C3A56227  18.870  23.040  22.480
 2878DPPC   C4A56228  18.980  23.410  22.560
 2878DPPC   C1B56229  18.450  23.330  22.860
 2878DPPC   C2B56230  18.370  23.350  22.530
 2878DPPC   C3B56231  18.490  23.140  22.220
 2878DPPC   C4B56232  18.870  22.880  21.950
 2879DPPC   NC356233  24.340   8.140  36.970
 2879DPPC   PO456234  24.210   8.400  37.310
 2879DPPC   GL156235  24.030   8.070  37.360
 2879DPPC   GL256236  24.080   7.750  37.100
 2879DPPC   C1A56237  23.860   7.930  37.670
 2879DPPC   C2A56238  23.840   7.540  37.870
 2879DPPC   C3A56239  23.960   7.080  38.000
 2879DPPC   C4A56240  23.960   6.850  38.290
 2879DPPC   C1B56241  24.090   7.550  37.470
 2879DPPC   C2B56242  24.270   7.180  37.440
 2879DPPC   C3B56243  24.220   6.790  37.540
 2879DPPC   C4B56244  24.330   6.440  37.810
 2880DPPC   NC356245  29.115  10.440  34.890
 2880DPPC   PO456246  29.185  10.200  34.510
 2880DPPC   GL156247  29.615  10.070  34.550
 2880DPPC   GL256248  29.835  10.290  34.660
 2880DPPC   C1A56249  29.845   9.750  34.430
 2880DPPC   C2A56250  30.125   9.450  34.260
 2880DPPC   C3A56251  30.305   9.010  34.060
 2880DPPC   C4A56252  30.595   8.750  33.830
 2880DPPC   C1B56253  30.205  10.060  34.710
 2880DPPC   C2B56254  30.445   9.860  34.440
 2880DPPC   C3B56255  30.635   9.450  34.330
 2880DPPC   C4B56256  31.045   9.400  34.060
 2881DPPC   NC356257  27.395  23.520  40.490
 2881DPPC   PO456258  27.715  23.340  40.220
 2881DPPC   GL156259  27.705  22.890  40.220
 2881DPPC   GL256260  27.905  22.670  40.050
 2881DPPC   C1A56261  27.495  22.490  40.230
 2881DPPC   C2A56262  27.315  22.100  40.080
 2881DPPC   C3A56263  26.975  21.870  40.060
 2881DPPC   C4A56264  27.025  21.590  39.730
 2881DPPC   C1B56265  27.715  22.550  39.640
 2881DPPC   C2B56266  27.505  22.210  39.550
 2881DPPC   C3B56267  27.295  21.930  39.360
 2881DPPC   C4B56268  26.985  22.000  39.040
 2882DPPC   NC356269  24.980   7.970  36.280
 2882DPPC   PO456270  25.170   8.250  36.550
 2882DPPC   GL156271  25.360   7.790  36.570
 2882DPPC   GL256272  25.000   7.630  36.730
 2882DPPC   C1A56273  25.460   7.350  36.670
 2882DPPC   C2A56274  25.540   7.040  36.910
 2882DPPC   C3A56275  25.410   6.690  36.920
 2882DPPC   C4A56276  25.810   6.370  36.960
 2882DPPC   C1B56277  25.010   7.120  36.840
 2882DPPC   C2B56278  24.950   6.610  36.890
 2882DPPC   C3B56279  24.820   6.240  36.510
 2882DPPC   C4B56280  24.620   5.910  36.330
 2883DPPC   NC356281  24.040  18.290  22.980
 2883DPPC   PO456282  23.920  18.620  23.130
 2883DPPC   GL156283  23.950  18.840  22.760
 2883DPPC   GL256284  24.250  18.680  22.600
 2883DPPC   C1A56285  24.150  19.150  22.510
 2883DPPC   C2A56286  24.450  19.370  22.340
 2883DPPC   C3A56287  24.610  19.300  21.940
 2883DPPC   C4A56288  24.680  19.390  21.490
 2883DPPC   C1B56289  24.580  18.860  22.550
 2883DPPC   C2B56290  24.960  18.760  22.440
 2883DPPC   C3B56291  25.330  18.850  22.500
 2883DPPC   C4B56292  25.520  19.020  22.780
 2884DPPC   NC356293  29.055  15.170  33.460
 2884DPPC   PO456294  29.355  14.880  33.460
 2884DPPC   GL156295  29.755  14.920  33.550
 2884DPPC   GL256296  29.845  14.750  33.220
 2884DPPC   C1A56297  29.985  14.880  33.980
 2884DPPC   C2A56298  30.445  14.850  33.930
 2884DPPC   C3A56299  30.715  14.680  33.580
 2884DPPC   C4A56300  30.595  14.500  33.190
 2884DPPC   C1B56301  30.245  14.830  33.360
 2884DPPC   C2B56302  30.535  15.070  33.150
 2884DPPC   C3B56303  30.995  15.190  33.000
 2884DPPC   C4B56304  31.085  15.170  32.530
 2885DPPC   NC356305  28.555  19.600  44.940
 2885DPPC   PO456306  28.305  19.410  44.880
 2885DPPC   GL156307  28.245  19.140  44.470
 2885DPPC   GL256308  27.825  18.930  44.470
 2885DPPC   C1A56309  27.995  19.210  44.150
 2885DPPC   C2A56310  27.875  18.980  43.700
 2885DPPC   C3A56311  27.735  18.550  43.590
 2885DPPC   C4A56312  27.545  18.300  43.440
 2885DPPC   C1B56313  27.665  18.700  44.060
 2885DPPC   C2B56314  27.285  18.600  43.780
 2885DPPC   C3B56315  27.055  18.440  43.450
 2885DPPC   C4B56316  27.095  17.990  43.450
 2886DPPC   NC356317  18.620  20.260  46.580
 2886DPPC   PO456318  19.010  20.240  46.870
 2886DPPC   GL156319  19.340  20.080  46.680
 2886DPPC   GL256320  19.530  19.920  46.720
 2886DPPC   C1A56321  19.490  20.210  46.320
 2886DPPC   C2A56322  19.620  20.200  45.970
 2886DPPC   C3A56323  19.540  19.910  45.640
 2886DPPC   C4A56324  19.700  19.510  45.530
 2886DPPC   C1B56325  19.520  19.640  46.400
 2886DPPC   C2B56326  19.720  19.300  46.450
 2886DPPC   C3B56327  20.060  19.030  46.280
 2886DPPC   C4B56328  20.510  19.010  46.290
 2887DPPC   NC356329  17.570  18.610  40.880
 2887DPPC   PO456330  17.180  18.510  41.110
 2887DPPC   GL156331  17.070  18.460  41.470
 2887DPPC   GL256332  17.030  18.250  41.720
 2887DPPC   C1A56333  16.620  18.500  41.610
 2887DPPC   C2A56334  16.330  18.500  42.010
 2887DPPC   C3A56335  16.320  18.770  42.190
 2887DPPC   C4A56336  16.170  18.920  42.590
 2887DPPC   C1B56337  16.840  18.560  42.040
 2887DPPC   C2B56338  16.730  18.540  42.460
 2887DPPC   C3B56339  16.310  18.440  42.710
 2887DPPC   C4B56340  15.950  18.260  42.990
 2888DPPC   NC356341  25.930  22.230  22.550
 2888DPPC   PO456342  25.620  22.210  22.190
 2888DPPC   GL156343  25.490  21.780  22.100
 2888DPPC   GL256344  25.530  21.830  21.810
 2888DPPC   C1A56345  25.280  21.470  22.250
 2888DPPC   C2A56346  25.090  21.150  22.370
 2888DPPC   C3A56347  24.940  20.800  22.520
 2888DPPC   C4A56348  24.770  20.440  22.450
 2888DPPC   C1B56349  25.270  21.490  21.770
 2888DPPC   C2B56350  24.860  21.300  21.930
 2888DPPC   C3B56351  24.570  21.140  22.290
 2888DPPC   C4B56352  24.320  21.110  22.530
 2889DPPC   NC356353  28.825  19.270  22.400
 2889DPPC   PO456354  28.775  19.800  22.460
 2889DPPC   GL156355  28.435  19.690  22.680
 2889DPPC   GL256356  28.385  19.350  22.720
 2889DPPC   C1A56357  27.985  19.740  22.700
 2889DPPC   C2A56358  27.605  19.620  23.060
 2889DPPC   C3A56359  27.745  19.310  23.390
 2889DPPC   C4A56360  27.975  18.960  23.330
 2889DPPC   C1B56361  28.295  18.950  22.910
 2889DPPC   C2B56362  27.995  18.610  22.890
 2889DPPC   C3B56363  27.675  18.360  22.990
 2889DPPC   C4B56364  27.505  17.900  22.900
 2890DPPC   NC356365  16.610  12.720  31.530
 2890DPPC   PO456366  16.800  12.510  31.900
 2890DPPC   GL156367  16.390  12.130  31.870
 2890DPPC   GL256368  16.530  11.720  31.770
 2890DPPC   C1A56369  16.080  11.870  32.000
 2890DPPC   C2A56370  15.660  11.820  31.950
 2890DPPC   C3A56371  15.330  11.860  31.730
 2890DPPC   C4A56372  15.010  11.730  31.570
 2890DPPC   C1B56373  16.280  11.290  31.710
 2890DPPC   C2B56374  16.070  10.800  31.670
 2890DPPC   C3B56375  15.910  10.420  31.550
 2890DPPC   C4B56376  15.580  10.090  31.470
 2891DPPC   NC356377  28.585   9.380  34.200
 2891DPPC   PO456378  28.505   9.020  34.520
 2891DPPC   GL156379  28.775   8.670  34.630
 2891DPPC   GL256380  29.065   8.540  34.650
 2891DPPC   C1A56381  28.685   8.190  34.670
 2891DPPC   C2A56382  28.965   7.740  34.710
 2891DPPC   C3A56383  29.125   7.460  34.950
 2891DPPC   C4A56384  29.345   7.070  34.940
 2891DPPC   C1B56385  29.245   8.190  34.730
 2891DPPC   C2B56386  29.355   7.980  35.190
 2891DPPC   C3B56387  29.375   7.790  35.520
 2891DPPC   C4B56388  29.715   7.500  35.650
 2892DPPC   NC356389  25.150   7.370  42.490
 2892DPPC   PO456390  24.810   7.120  42.440
 2892DPPC   GL156391  24.850   7.360  42.040
 2892DPPC   GL256392  24.540   7.480  41.900
 2892DPPC   C1A56393  24.990   7.670  41.670
 2892DPPC   C2A56394  25.000   7.870  41.340
 2892DPPC   C3A56395  24.900   8.080  40.940
 2892DPPC   C4A56396  25.020   8.500  40.800
 2892DPPC   C1B56397  24.510   7.730  41.570
 2892DPPC   C2B56398  24.410   8.150  41.390
 2892DPPC   C3B56399  24.010   8.420  41.330
 2892DPPC   C4B56400  23.650   8.830  41.410
 2893DPPC   NC356401  26.290  17.770  32.380
 2893DPPC   PO456402  25.860  17.720  32.390
 2893DPPC   GL156403  25.990  18.140  32.060
 2893DPPC   GL256404  25.950  18.080  31.750
 2893DPPC   C1A56405  26.270  18.540  31.980
 2893DPPC   C2A56406  26.440  18.930  31.990
 2893DPPC   C3A56407  26.515  19.420  31.870
 2893DPPC   C4A56408  26.885  19.630  31.850
 2893DPPC   C1B56409  26.140  18.280  31.470
 2893DPPC   C2B56410  26.300  18.790  31.560
 2893DPPC   C3B56411  26.370  19.200  31.470
 2893DPPC   C4B56412  26.575  19.270  31.220
 2894DPPC   NC356413  24.470  21.090  38.630
 2894DPPC   PO456414  24.570  21.400  38.370
 2894DPPC   GL156415  24.680  21.910  38.480
 2894DPPC   GL256416  24.500  22.200  38.490
 2894DPPC   C1A56417  25.000  22.260  38.430
 2894DPPC   C2A56418  24.980  22.610  38.300
 2894DPPC   C3A56419  25.370  22.590  38.580
 2894DPPC   C4A56420  25.580  22.320  38.720
 2894DPPC   C1B56421  24.640  22.440  38.760
 2894DPPC   C2B56422  24.940  22.750  38.830
 2894DPPC   C3B56423  25.010  23.240  39.000
 2894DPPC   C4B56424  25.420  23.440  38.960
 2895DPPC   NC356425  10.820  22.990  37.250
 2895DPPC   PO456426  11.220  23.260  37.150
 2895DPPC   GL156427  11.580  23.100  36.990
 2895DPPC   GL256428  11.690  23.320  36.780
 2895DPPC   C1A56429  11.950  22.960  37.020
 2895DPPC   C2A56430  12.380  22.790  37.010
 2895DPPC   C3A56431  12.790  22.570  36.810
 2895DPPC   C4A56432  13.170  22.440  36.690
 2895DPPC   C1B56433  12.030  23.430  36.640
 2895DPPC   C2B56434  12.340  23.210  36.650
 2895DPPC   C3B56435  12.640  22.910  36.510
 2895DPPC   C4B56436  12.880  22.620  36.250
 2896DPPC   NC356437  27.265   8.200  28.470
 2896DPPC   PO456438  26.965   7.950  28.490
 2896DPPC   GL156439  27.385   7.680  28.430
 2896DPPC   GL256440  27.685   7.890  28.220
 2896DPPC   C1A56441  27.625   7.310  28.260
 2896DPPC   C2A56442  27.905   7.220  27.940
 2896DPPC   C3A56443  28.225   7.250  27.630
 2896DPPC   C4A56444  28.555   6.970  27.580
 2896DPPC   C1B56445  28.065   7.650  28.250
 2896DPPC   C2B56446  28.415   7.440  28.200
 2896DPPC   C3B56447  28.685   7.130  28.420
 2896DPPC   C4B56448  28.505   6.680  28.590
 2897DPPC   NC356449  16.470  19.700  39.100
 2897DPPC   PO456450  16.150  20.000  39.350
 2897DPPC   GL156451  16.000  20.060  39.760
 2897DPPC   GL256452  16.250  20.040  40.060
 2897DPPC   C1A56453  15.790  20.220  40.060
 2897DPPC   C2A56454  15.450  20.430  40.240
 2897DPPC   C3A56455  15.350  20.760  40.230
 2897DPPC   C4A56456  15.090  21.150  40.100
 2897DPPC   C1B56457  16.150  20.260  40.390
 2897DPPC   C2B56458  16.220  20.570  40.670
 2897DPPC   C3B56459  15.920  20.590  41.060
 2897DPPC   C4B56460  15.810  20.910  41.310
 2898DPPC   NC356461  16.610  12.500  33.770
 2898DPPC   PO456462  16.300  12.670  33.650
 2898DPPC   GL156463  16.110  12.430  33.500
 2898DPPC   GL256464  15.910  12.520  33.380
 2898DPPC   C1A56465  15.910  11.990  33.640
 2898DPPC   C2A56466  15.600  11.670  33.800
 2898DPPC   C3A56467  15.290  11.470  33.870
 2898DPPC   C4A56468  14.940  11.260  34.100
 2898DPPC   C1B56469  15.540  12.180  33.380
 2898DPPC   C2B56470  15.130  11.970  33.110
 2898DPPC   C3B56471  14.780  11.730  32.980
 2898DPPC   C4B56472  14.350  11.770  32.740
 2899DPPC   NC356473  12.170   0.300  32.200
 2899DPPC   PO456474  12.370   0.550  31.840
 2899DPPC   GL156475  12.700   0.320  31.820
 2899DPPC   GL256476  12.950   0.270  32.010
 2899DPPC   C1A56477  12.760  26.250  31.720
 2899DPPC   C2A56478  12.850  25.800  31.830
 2899DPPC   C3A56479  12.950  25.380  31.760
 2899DPPC   C4A56480  12.690  24.940  31.870
 2899DPPC   C1B56481  13.310   0.080  31.840
 2899DPPC   C2B56482  13.380  26.030  31.780
 2899DPPC   C3B56483  13.360  25.740  31.720
 2899DPPC   C4B56484  13.330  25.490  31.410
 2900DPPC   NC356485  27.635  16.940  32.050
 2900DPPC   PO456486  27.465  16.920  32.390
 2900DPPC   GL156487  27.565  17.380  32.360
 2900DPPC   GL256488  27.335  17.360  32.090
 2900DPPC   C1A56489  27.805  17.770  32.320
 2900DPPC   C2A56490  28.115  18.100  32.190
 2900DPPC   C3A56491  28.415  18.380  31.990
 2900DPPC   C4A56492  28.725  18.210  31.630
 2900DPPC   C1B56493  27.345  17.820  32.100
 2900DPPC   C2B56494  27.645  18.050  32.000
 2900DPPC   C3B56495  27.765  18.510  32.140
 2900DPPC   C4B56496  28.055  18.750  32.150
 2901DPPC   NC356497  10.850  17.050  40.680
 2901DPPC   PO456498  11.060  17.200  40.280
 2901DPPC   GL156499  11.470  17.220  40.050
 2901DPPC   GL256500  11.680  16.930  40.070
 2901DPPC   C1A56501  11.810  17.460  40.040
 2901DPPC   C2A56502  12.290  17.400  39.970
 2901DPPC   C3A56503  12.710  17.460  39.780
 2901DPPC   C4A56504  12.930  17.610  39.500
 2901DPPC   C1B56505  11.790  16.870  39.640
 2901DPPC   C2B56506  11.930  17.010  39.240
 2901DPPC   C3B56507  12.250  16.990  38.870
 2901DPPC   C4B56508  12.670  17.030  38.840
 2902DPPC   NC356509  22.660   0.160  25.610
 2902DPPC   PO456510  22.610  26.320  25.300
 2902DPPC   GL156511  22.280  26.150  25.550
 2902DPPC   GL256512  22.200  25.850  25.320
 2902DPPC   C1A56513  22.140  25.670  25.860
 2902DPPC   C2A56514  22.320  25.360  26.190
 2902DPPC   C3A56515  22.530  24.910  26.230
 2902DPPC   C4A56516  22.350  24.530  26.210
 2902DPPC   C1B56517  22.010  25.360  25.460
 2902DPPC   C2B56518  21.800  25.020  25.640
 2902DPPC   C3B56519  21.500  24.940  25.970
 2902DPPC   C4B56520  21.200  24.960  26.300
 2903DPPC   NC356521  32.255  11.210  24.880
 2903DPPC   PO456522  31.875  11.300  24.810
 2903DPPC   GL156523  31.605  11.640  24.920
 2903DPPC   GL256524  31.565  11.980  24.970
 2903DPPC   C1A56525  31.065  11.690  25.010
 2903DPPC   C2A56526  30.685  11.740  25.070
 2903DPPC   C3A56527  30.195  11.670  25.020
 2903DPPC   C4A56528  29.775  11.790  25.130
 2903DPPC   C1B56529  31.165  12.180  25.270
 2903DPPC   C2B56530  30.745  12.220  25.330
 2903DPPC   C3B56531  30.395  12.340  25.610
 2903DPPC   C4B56532  30.205  12.520  25.890
 2904DPPC   NC356533  16.000  20.990  23.830
 2904DPPC   PO456534  15.930  21.500  23.940
 2904DPPC   GL156535  15.590  21.390  23.580
 2904DPPC   GL256536  15.320  21.620  23.510
 2904DPPC   C1A56537  15.470  21.400  23.080
 2904DPPC   C2A56538  15.300  21.430  22.670
 2904DPPC   C3A56539  15.000  21.640  22.300
 2904DPPC   C4A56540  14.650  21.760  21.920
 2904DPPC   C1B56541  15.100  21.680  23.050
 2904DPPC   C2B56542  14.860  22.030  22.760
 2904DPPC   C3B56543  14.540  21.930  22.500
 2904DPPC   C4B56544  14.270  21.760  22.300
 2905DPPC   NC356545  26.745  13.450  25.660
 2905DPPC   PO456546  27.095  13.430  25.270
 2905DPPC   GL156547  27.475  13.360  25.030
 2905DPPC   GL256548  27.775  13.190  25.100
 2905DPPC   C1A56549  27.955  13.610  24.920
 2905DPPC   C2A56550  28.345  13.580  24.680
 2905DPPC   C3A56551  28.665  13.760  24.390
 2905DPPC   C4A56552  29.095  13.990  24.240
 2905DPPC   C1B56553  28.235  13.120  25.000
 2905DPPC   C2B56554  28.745  13.020  24.780
 2905DPPC   C3B56555  29.115  12.890  24.610
 2905DPPC   C4B56556  29.395  12.880  24.270
 2906DPPC   NC356557  14.840  20.820  37.290
 2906DPPC   PO456558  14.500  21.010  37.320
 2906DPPC   GL156559  14.040  21.090  37.210
 2906DPPC   GL256560  13.950  20.830  37.460
 2906DPPC   C1A56561  13.660  21.300  37.040
 2906DPPC   C2A56562  13.260  21.470  36.860
 2906DPPC   C3A56563  12.800  21.530  36.960
 2906DPPC   C4A56564  12.460  21.620  37.210
 2906DPPC   C1B56565  13.550  20.960  37.410
 2906DPPC   C2B56566  13.290  21.310  37.500
 2906DPPC   C3B56567  13.280  21.610  37.780
 2906DPPC   C4B56568  13.370  22.060  37.890
 2907DPPC   NC356569  21.750  18.960  29.750
 2907DPPC   PO456570  21.520  19.400  29.900
 2907DPPC   GL156571  21.970  19.440  29.970
 2907DPPC   GL256572  21.960  19.680  30.020
 2907DPPC   C1A56573  22.430  19.300  30.100
 2907DPPC   C2A56574  22.660  18.990  30.170
 2907DPPC   C3A56575  22.670  18.640  30.450
 2907DPPC   C4A56576  22.690  18.300  30.580
 2907DPPC   C1B56577  22.300  19.750  30.330
 2907DPPC   C2B56578  22.600  19.570  30.570
 2907DPPC   C3B56579  22.780  19.180  30.640
 2907DPPC   C4B56580  22.950  18.710  30.880
 2908DPPC   NC356581  15.970  17.320  18.160
 2908DPPC   PO456582  15.750  17.580  18.100
 2908DPPC   GL156583  16.190  17.690  18.390
 2908DPPC   GL256584  16.510  17.490  18.270
 2908DPPC   C1A56585  16.290  17.610  18.840
 2908DPPC   C2A56586  16.510  17.700  19.270
 2908DPPC   C3A56587  16.830  17.810  19.680
 2908DPPC   C4A56588  17.100  17.590  20.010
 2908DPPC   C1B56589  16.910  17.490  18.310
 2908DPPC   C2B56590  17.270  17.430  18.710
 2908DPPC   C3B56591  17.430  17.250  19.150
 2908DPPC   C4B56592  17.210  17.140  19.630
 2909DPPC   NC356593  29.075  14.440  37.190
 2909DPPC   PO456594  29.115  14.370  37.650
 2909DPPC   GL156595  29.435  14.470  37.830
 2909DPPC   GL256596  29.625  14.280  37.700
 2909DPPC   C1A56597  29.615  14.380  38.210
 2909DPPC   C2A56598  29.915  14.390  38.490
 2909DPPC   C3A56599  30.325  14.470  38.700
 2909DPPC   C4A56600  30.505  14.740  38.920
 2909DPPC   C1B56601  29.975  14.540  37.850
 2909DPPC   C2B56602  30.275  14.870  38.040
 2909DPPC   C3B56603  30.185  15.220  38.440
 2909DPPC   C4B56604  29.915  15.450  38.800
 2910DPPC   NC356605  23.160  21.880  40.200
 2910DPPC   PO456606  23.000  21.980  40.600
 2910DPPC   GL156607  23.200  22.270  40.860
 2910DPPC   GL256608  23.110  22.400  41.180
 2910DPPC   C1A56609  23.560  22.350  41.080
 2910DPPC   C2A56610  23.880  22.700  41.030
 2910DPPC   C3A56611  24.140  23.050  41.170
 2910DPPC   C4A56612  24.540  23.170  41.070
 2910DPPC   C1B56613  23.080  22.460  41.700
 2910DPPC   C2B56614  23.100  22.500  42.180
 2910DPPC   C3B56615  23.260  22.850  42.440
 2910DPPC   C4B56616  23.210  23.020  42.940
 2911DPPC   NC356617  20.190  19.010  21.550
 2911DPPC   PO456618  20.330  19.010  21.190
 2911DPPC   GL156619  20.310  19.120  20.710
 2911DPPC   GL256620  20.180  19.350  20.770
 2911DPPC   C1A56621  20.390  19.130  20.270
 2911DPPC   C2A56622  20.030  19.250  20.090
 2911DPPC   C3A56623  19.750  19.560  19.940
 2911DPPC   C4A56624  19.350  19.770  19.800
 2911DPPC   C1B56625  19.950  19.650  20.460
 2911DPPC   C2B56626  20.090  19.800  20.060
 2911DPPC   C3B56627  20.110  20.050  19.750
 2911DPPC   C4B56628  20.140  20.420  19.440
 2912DPPC   NC356629  14.200  25.760  23.450
 2912DPPC   PO456630  14.430  26.040  23.040
 2912DPPC   GL156631  14.740  25.720  23.240
 2912DPPC   GL256632  14.690  25.410  23.360
 2912DPPC   C1A56633  15.120  25.520  23.590
 2912DPPC   C2A56634  15.340  25.200  23.800
 2912DPPC   C3A56635  15.560  24.860  24.060
 2912DPPC   C4A56636  15.600  24.430  24.340
 2912DPPC   C1B56637  14.780  25.010  23.160
 2912DPPC   C2B56638  15.010  24.710  23.020
 2912DPPC   C3B56639  15.300  24.420  23.280
 2912DPPC   C4B56640  15.170  23.950  23.350
 2913DPPC   NC356641  13.960  19.410  27.730
 2913DPPC   PO456642  13.850  19.820  27.710
 2913DPPC   GL156643  13.370  20.020  27.520
 2913DPPC   GL256644  13.270  20.340  27.360
 2913DPPC   C1A56645  12.940  19.850  27.350
 2913DPPC   C2A56646  12.740  19.480  27.160
 2913DPPC   C3A56647  12.400  19.230  27.160
 2913DPPC   C4A56648  12.200  19.010  26.770
 2913DPPC   C1B56649  13.140  20.080  26.960
 2913DPPC   C2B56650  12.780  19.860  26.730
 2913DPPC   C3B56651  12.370  19.610  26.800
 2913DPPC   C4B56652  12.010  19.480  26.630
 2914DPPC   NC356653  28.425   5.220  26.050
 2914DPPC   PO456654  28.385   5.540  25.830
 2914DPPC   GL156655  28.635   5.870  26.100
 2914DPPC   GL256656  28.535   5.810  26.350
 2914DPPC   C1A56657  28.645   6.310  26.300
 2914DPPC   C2A56658  28.455   6.530  26.470
 2914DPPC   C3A56659  28.425   6.900  26.770
 2914DPPC   C4A56660  28.205   7.090  27.060
 2914DPPC   C1B56661  28.355   6.000  26.710
 2914DPPC   C2B56662  28.085   6.460  26.870
 2914DPPC   C3B56663  27.985   6.780  26.680
 2914DPPC   C4B56664  27.945   7.190  26.620
 2915DPPC   NC356665  28.635  20.560  30.450
 2915DPPC   PO456666  28.155  20.670  30.370
 2915DPPC   GL156667  27.835  20.390  30.440
 2915DPPC   GL256668  27.745  20.360  30.100
 2915DPPC   C1A56669  27.615  20.060  30.540
 2915DPPC   C2A56670  27.225  20.000  30.550
 2915DPPC   C3A56671  26.925  19.650  30.710
 2915DPPC   C4A56672  27.055  19.270  30.710
 2915DPPC   C1B56673  27.355  20.120  30.050
 2915DPPC   C2B56674  27.185  19.670  30.170
 2915DPPC   C3B56675  26.775  19.400  30.220
 2915DPPC   C4B56676  26.430  19.270  30.010
 2916DPPC   NC356677  20.020   9.240  33.180
 2916DPPC   PO456678  19.810   9.330  33.620
 2916DPPC   GL156679  19.690   8.960  33.910
 2916DPPC   GL256680  19.880   8.700  34.110
 2916DPPC   C1A56681  19.420   8.650  33.960
 2916DPPC   C2A56682  19.180   8.220  34.050
 2916DPPC   C3A56683  19.210   7.750  33.970
 2916DPPC   C4A56684  19.260   7.310  33.920
 2916DPPC   C1B56685  19.780   8.300  33.880
 2916DPPC   C2B56686  19.620   7.950  33.740
 2916DPPC   C3B56687  19.660   7.560  33.800
 2916DPPC   C4B56688  19.730   7.130  33.660
 2917DPPC   NC356689  23.870   8.980  38.340
 2917DPPC   PO456690  23.670   8.750  38.100
 2917DPPC   GL156691  23.430   8.650  38.400
 2917DPPC   GL256692  23.760   8.410  38.490
 2917DPPC   C1A56693  23.040   8.540  38.520
 2917DPPC   C2A56694  22.910   8.190  38.790
 2917DPPC   C3A56695  23.040   7.880  39.050
 2917DPPC   C4A56696  23.050   7.430  38.860
 2917DPPC   C1B56697  23.720   8.020  38.590
 2917DPPC   C2B56698  23.430   7.810  38.710
 2917DPPC   C3B56699  23.530   7.680  39.100
 2917DPPC   C4B56700  23.720   7.400  39.390
 2918DPPC   NC356701  23.060  13.660  47.000
 2918DPPC   PO456702  22.830  13.950  47.320
 2918DPPC   GL156703  22.850  14.090  46.910
 2918DPPC   GL256704  23.330  14.160  46.910
 2918DPPC   C1A56705  22.970  14.200  46.440
 2918DPPC   C2A56706  23.340  14.060  46.220
 2918DPPC   C3A56707  23.410  14.070  45.800
 2918DPPC   C4A56708  23.510  14.020  45.390
 2918DPPC   C1B56709  23.380  14.440  46.640
 2918DPPC   C2B56710  23.530  14.510  46.370
 2918DPPC   C3B56711  23.550  14.830  46.090
 2918DPPC   C4B56712  23.860  14.950  45.800
 2919DPPC   NC356713  30.665   6.070  37.640
 2919DPPC   PO456714  30.895   6.090  37.420
 2919DPPC   GL156715  30.705   6.270  37.120
 2919DPPC   GL256716  30.405   6.130  37.000
 2919DPPC   C1A56717  30.395   6.610  37.140
 2919DPPC   C2A56718  30.235   6.910  37.420
 2919DPPC   C3A56719  30.095   7.320  37.620
 2919DPPC   C4A56720  30.055   7.690  37.470
 2919DPPC   C1B56721  29.965   6.410  37.150
 2919DPPC   C2B56722  29.555   6.420  37.420
 2919DPPC   C3B56723  29.125   6.260  37.400
 2919DPPC   C4B56724  28.685   6.290  37.460
 2920DPPC   NC356725  11.450  25.960  29.630
 2920DPPC   PO456726  11.700  26.090  29.280
 2920DPPC   GL156727  11.970  25.760  29.170
 2920DPPC   GL256728  12.020  25.690  28.820
 2920DPPC   C1A56729  12.320  25.510  29.300
 2920DPPC   C2A56730  12.660  25.230  29.530
 2920DPPC   C3A56731  12.610  24.730  29.740
 2920DPPC   C4A56732  12.780  24.390  30.040
 2920DPPC   C1B56733  12.420  25.420  28.830
 2920DPPC   C2B56734  12.810  25.190  28.920
 2920DPPC   C3B56735  13.220  25.040  28.830
 2920DPPC   C4B56736  13.410  24.780  28.370
 2921DPPC   NC356737  20.390  13.530  22.030
 2921DPPC   PO456738  20.800  13.210  21.950
 2921DPPC   GL156739  20.380  13.090  21.870
 2921DPPC   GL256740  20.540  12.730  21.730
 2921DPPC   C1A56741  20.040  13.100  21.670
 2921DPPC   C2A56742  19.810  13.020  21.310
 2921DPPC   C3A56743  19.820  12.850  20.890
 2921DPPC   C4A56744  19.910  12.850  20.500
 2921DPPC   C1B56745  20.520  12.420  21.600
 2921DPPC   C2B56746  20.370  12.230  21.180
 2921DPPC   C3B56747  20.140  12.030  20.980
 2921DPPC   C4B56748  19.970  11.820  20.640
 2922DPPC   NC356749  13.280  20.970  29.020
 2922DPPC   PO456750  13.440  21.240  29.430
 2922DPPC   GL156751  13.090  21.450  29.250
 2922DPPC   GL256752  12.900  21.330  28.990
 2922DPPC   C1A56753  12.630  21.420  29.400
 2922DPPC   C2A56754  12.190  21.520  29.400
 2922DPPC   C3A56755  11.920  21.900  29.380
 2922DPPC   C4A56756  11.610  22.060  29.130
 2922DPPC   C1B56757  12.920  21.760  28.820
 2922DPPC   C2B56758  12.910  22.220  28.740
 2922DPPC   C3B56759  12.590  22.470  28.680
 2922DPPC   C4B56760  12.240  22.790  28.730
 2923DPPC   NC356761  32.445  13.020  26.800
 2923DPPC   PO456762  32.335  13.450  26.880
 2923DPPC   GL156763  31.975  13.460  26.890
 2923DPPC   GL256764  31.895  13.110  27.000
 2923DPPC   C1A56765  31.555  13.540  26.760
 2923DPPC   C2A56766  31.225  13.780  26.760
 2923DPPC   C3A56767  30.905  13.680  26.430
 2923DPPC   C4A56768  30.525  13.480  26.320
 2923DPPC   C1B56769  31.445  13.210  27.100
 2923DPPC   C2B56770  31.285  13.520  27.200
 2923DPPC   C3B56771  31.055  13.960  27.230
 2923DPPC   C4B56772  31.125  14.340  27.420
 2924DPPC   NC356773  28.385  15.200  28.150
 2924DPPC   PO456774  28.085  15.270  28.430
 2924DPPC   GL156775  28.505  15.500  28.540
 2924DPPC   GL256776  28.505  15.730  28.260
 2924DPPC   C1A56777  28.815  15.590  28.900
 2924DPPC   C2A56778  29.235  15.800  28.830
 2924DPPC   C3A56779  29.595  16.020  28.860
 2924DPPC   C4A56780  29.915  16.180  28.610
 2924DPPC   C1B56781  28.815  15.990  28.160
 2924DPPC   C2B56782  29.055  16.190  28.040
 2924DPPC   C3B56783  29.385  16.340  27.760
 2924DPPC   C4B56784  29.775  16.410  27.640
 2925DPPC   NC356785  25.500  25.970  31.110
 2925DPPC   PO456786  25.050  26.030  30.990
 2925DPPC   GL156787  24.590  25.840  30.940
 2925DPPC   GL256788  24.520  25.540  31.080
 2925DPPC   C1A56789  24.070  25.750  30.990
 2925DPPC   C2A56790  23.940  25.420  31.200
 2925DPPC   C3A56791  23.610  25.250  31.340
 2925DPPC   C4A56792  23.240  25.230  31.340
 2925DPPC   C1B56793  24.310  25.110  31.210
 2925DPPC   C2B56794  23.970  24.950  30.940
 2925DPPC   C3B56795  23.820  24.540  30.840
 2925DPPC   C4B56796  23.970  24.150  30.800
 2926DPPC   NC356797  22.870   8.930  28.570
 2926DPPC   PO456798  22.940   8.470  28.430
 2926DPPC   GL156799  22.710   8.120  28.370
 2926DPPC   GL256800  22.470   8.150  28.210
 2926DPPC   C1A56801  22.620   7.680  28.430
 2926DPPC   C2A56802  22.600   7.320  28.360
 2926DPPC   C3A56803  22.590   6.860  28.460
 2926DPPC   C4A56804  22.750   6.460  28.470
 2926DPPC   C1B56805  22.190   7.980  27.910
 2926DPPC   C2B56806  22.290   7.480  27.980
 2926DPPC   C3B56807  22.300   7.060  28.080
 2926DPPC   C4B56808  22.490   6.640  27.900
 2927DPPC   NC356809  24.560   8.240  26.960
 2927DPPC   PO456810  24.440   7.920  26.660
 2927DPPC   GL156811  24.590   7.490  26.590
 2927DPPC   GL256812  24.900   7.440  26.700
 2927DPPC   C1A56813  24.570   7.070  26.420
 2927DPPC   C2A56814  24.710   6.840  26.170
 2927DPPC   C3A56815  24.720   6.420  25.960
 2927DPPC   C4A56816  24.950   6.020  25.940
 2927DPPC   C1B56817  25.360   7.450  26.650
 2927DPPC   C2B56818  25.730   7.200  26.580
 2927DPPC   C3B56819  25.870   7.080  26.300
 2927DPPC   C4B56820  26.010   6.990  25.950
 2928DPPC   NC356821  14.540  19.090  36.800
 2928DPPC   PO456822  14.050  19.280  36.770
 2928DPPC   GL156823  13.720  19.150  36.980
 2928DPPC   GL256824  13.820  18.960  37.220
 2928DPPC   C1A56825  13.290  19.040  37.220
 2928DPPC   C2A56826  12.860  18.840  37.300
 2928DPPC   C3A56827  12.430  18.910  37.380
 2928DPPC   C4A56828  12.030  18.920  37.290
 2928DPPC   C1B56829  13.540  18.650  37.360
 2928DPPC   C2B56830  13.220  18.820  37.700
 2928DPPC   C3B56831  13.040  19.130  37.700
 2928DPPC   C4B56832  12.710  19.290  37.570
 2929DPPC   NC356833  33.685   9.540  33.620
 2929DPPC   PO456834  33.345   9.240  33.680
 2929DPPC   GL156835  33.225   8.780  33.940
 2929DPPC   GL256836  33.155   8.730  34.250
 2929DPPC   C1A56837  32.835   8.750  33.790
 2929DPPC   C2A56838  32.595   8.730  33.440
 2929DPPC   C3A56839  32.405   8.770  33.040
 2929DPPC   C4A56840  32.235   8.920  32.770
 2929DPPC   C1B56841  32.685   8.800  34.340
 2929DPPC   C2B56842  32.155   8.720  34.160
 2929DPPC   C3B56843  31.695   8.690  34.140
 2929DPPC   C4B56844  31.635   8.790  34.550
 2930DPPC   NC356845  28.415  23.460  39.590
 2930DPPC   PO456846  28.715  23.220  39.670
 2930DPPC   GL156847  28.435  22.880  39.570
 2930DPPC   GL256848  28.475  22.770  39.260
 2930DPPC   C1A56849  28.195  22.530  39.580
 2930DPPC   C2A56850  28.015  22.130  39.430
 2930DPPC   C3A56851  27.765  21.790  39.150
 2930DPPC   C4A56852  27.395  21.530  39.070
 2930DPPC   C1B56853  28.025  22.650  39.090
 2930DPPC   C2B56854  27.585  22.510  39.130
 2930DPPC   C3B56855  27.205  22.400  39.190
 2930DPPC   C4B56856  26.745  22.480  39.360
 2931DPPC   NC356857  19.030  15.180  41.970
 2931DPPC   PO456858  19.070  15.490  42.220
 2931DPPC   GL156859  19.050  15.170  42.460
 2931DPPC   GL256860  19.150  14.800  42.270
 2931DPPC   C1A56861  18.820  15.050  42.740
 2931DPPC   C2A56862  18.570  14.970  43.000
 2931DPPC   C3A56863  18.590  14.780  43.370
 2931DPPC   C4A56864  18.640  14.550  43.680
 2931DPPC   C1B56865  19.000  14.620  42.520
 2931DPPC   C2B56866  18.800  14.490  42.940
 2931DPPC   C3B56867  18.390  14.370  43.190
 2931DPPC   C4B56868  18.430  14.140  43.510
 2932DPPC   NC356869  23.310  14.190  42.980
 2932DPPC   PO456870  23.460  14.000  42.600
 2932DPPC   GL156871  23.260  13.730  42.770
 2932DPPC   GL256872  23.440  13.710  43.040
 2932DPPC   C1A56873  23.120  13.390  43.060
 2932DPPC   C2A56874  23.050  13.360  43.440
 2932DPPC   C3A56875  22.860  13.230  43.910
 2932DPPC   C4A56876  23.050  13.280  44.180
 2932DPPC   C1B56877  23.590  13.410  43.350
 2932DPPC   C2B56878  23.710  13.110  43.600
 2932DPPC   C3B56879  23.970  12.760  43.810
 2932DPPC   C4B56880  24.090  12.420  44.080
 2933DPPC   NC356881  12.550  11.990  25.920
 2933DPPC   PO456882  12.450  12.330  25.730
 2933DPPC   GL156883  12.590  12.810  25.790
 2933DPPC   GL256884  12.570  12.900  25.460
 2933DPPC   C1A56885  12.890  13.050  26.030
 2933DPPC   C2A56886  13.200  12.940  26.360
 2933DPPC   C3A56887  13.550  12.670  26.390
 2933DPPC   C4A56888  13.980  12.640  26.530
 2933DPPC   C1B56889  12.590  13.320  25.700
 2933DPPC   C2B56890  13.000  13.470  25.760
 2933DPPC   C3B56891  13.470  13.530  25.710
 2933DPPC   C4B56892  13.850  13.360  25.760
 2934DPPC   NC356893  17.480  17.240  22.340
 2934DPPC   PO456894  17.210  17.430  22.700
 2934DPPC   GL156895  16.930  17.160  22.330
 2934DPPC   GL256896  17.160  16.970  22.110
 2934DPPC   C1A56897  16.700  17.130  21.870
 2934DPPC   C2A56898  16.490  16.850  21.660
 2934DPPC   C3A56899  16.190  16.560  21.650
 2934DPPC   C4A56900  15.810  16.450  21.800
 2934DPPC   C1B56901  17.120  16.880  21.620
 2934DPPC   C2B56902  16.850  16.840  21.320
 2934DPPC   C3B56903  16.650  16.930  21.070
 2934DPPC   C4B56904  16.520  16.960  20.630
 2935DPPC   NC356905  25.660  19.050  46.650
 2935DPPC   PO456906  25.390  19.540  46.520
 2935DPPC   GL156907  25.190  19.330  46.140
 2935DPPC   GL256908  25.110  19.140  46.420
 2935DPPC   C1A56909  24.950  19.350  45.670
 2935DPPC   C2A56910  24.680  19.350  45.260
 2935DPPC   C3A56911  24.560  19.330  44.870
 2935DPPC   C4A56912  24.790  19.250  44.500
 2935DPPC   C1B56913  24.890  18.970  45.940
 2935DPPC   C2B56914  24.860  18.680  45.660
 2935DPPC   C3B56915  24.760  18.590  45.220
 2935DPPC   C4B56916  24.690  18.260  44.900
 2936DPPC   NC356917  17.920  21.230  40.270
 2936DPPC   PO456918  17.930  20.950  40.590
 2936DPPC   GL156919  17.670  21.260  40.830
 2936DPPC   GL256920  17.850  21.150  41.100
 2936DPPC   C1A56921  17.210  21.430  41.020
 2936DPPC   C2A56922  17.000  21.710  41.100
 2936DPPC   C3A56923  16.720  21.900  41.560
 2936DPPC   C4A56924  16.850  22.070  41.930
 2936DPPC   C1B56925  17.590  21.370  41.320
 2936DPPC   C2B56926  17.400  21.480  41.540
 2936DPPC   C3B56927  17.130  21.680  41.770
 2936DPPC   C4B56928  16.910  21.590  42.190
 2937DPPC   NC356929  26.430  16.280  41.200
 2937DPPC   PO456930  26.615  16.720  41.310
 2937DPPC   GL156931  27.035  16.690  41.490
 2937DPPC   GL256932  27.235  16.890  41.570
 2937DPPC   C1A56933  27.305  16.380  41.690
 2937DPPC   C2A56934  27.545  16.040  41.600
 2937DPPC   C3A56935  27.975  15.840  41.710
 2937DPPC   C4A56936  28.255  15.730  42.070
 2937DPPC   C1B56937  27.685  16.730  41.800
 2937DPPC   C2B56938  27.805  16.550  42.190
 2937DPPC   C3B56939  28.185  16.450  42.210
 2937DPPC   C4B56940  28.435  16.200  41.970
 2938DPPC   NC356941  19.340  24.580  33.410
 2938DPPC   PO456942  18.990  24.710  33.530
 2938DPPC   GL156943  19.060  25.130  33.550
 2938DPPC   GL256944  18.940  25.190  33.380
 2938DPPC   C1A56945  19.260  25.540  33.620
 2938DPPC   C2A56946  19.410  25.960  33.680
 2938DPPC   C3A56947  19.520  26.400  33.810
 2938DPPC   C4A56948  19.780   0.290  33.850
 2938DPPC   C1B56949  18.820  25.680  33.450
 2938DPPC   C2B56950  18.930  26.050  33.540
 2938DPPC   C3B56951  19.210  26.390  33.430
 2938DPPC   C4B56952  19.390   0.340  33.520
 2939DPPC   NC356953  24.330   7.350  42.290
 2939DPPC   PO456954  24.660   7.610  42.460
 2939DPPC   GL156955  24.290   7.920  42.450
 2939DPPC   GL256956  24.000   7.710  42.500
 2939DPPC   C1A56957  23.980   8.190  42.450
 2939DPPC   C2A56958  23.930   8.570  42.320
 2939DPPC   C3A56959  24.240   8.920  42.160
 2939DPPC   C4A56960  24.390   9.330  42.140
 2939DPPC   C1B56961  23.690   7.840  42.180
 2939DPPC   C2B56962  23.530   8.220  42.020
 2939DPPC   C3B56963  23.430   8.590  42.060
 2939DPPC   C4B56964  23.730   8.980  42.100
 2940DPPC   NC356965  22.020  15.240  17.150
 2940DPPC   PO456966  22.540  15.250  17.160
 2940DPPC   GL156967  22.350  15.430  17.540
 2940DPPC   GL256968  22.530  15.730  17.610
 2940DPPC   C1A56969  22.230  15.220  17.880
 2940DPPC   C2A56970  21.950  15.310  18.260
 2940DPPC   C3A56971  21.810  15.150  18.620
 2940DPPC   C4A56972  21.910  15.200  19.070
 2940DPPC   C1B56973  22.370  15.750  17.970
 2940DPPC   C2B56974  22.550  15.930  18.340
 2940DPPC   C3B56975  22.430  16.080  18.680
 2940DPPC   C4B56976  22.250  16.230  19.070
 2941DPPC   NC356977  17.680  14.630  23.330
 2941DPPC   PO456978  17.420  14.450  23.680
 2941DPPC   GL156979  17.350  14.120  23.370
 2941DPPC   GL256980  17.460  13.880  23.530
 2941DPPC   C1A56981  17.150  13.990  23.050
 2941DPPC   C2A56982  16.950  13.790  22.700
 2941DPPC   C3A56983  16.830  13.540  22.350
 2941DPPC   C4A56984  16.900  13.270  21.950
 2941DPPC   C1B56985  17.210  13.590  23.370
 2941DPPC   C2B56986  16.920  13.260  23.450
 2941DPPC   C3B56987  16.600  13.100  23.320
 2941DPPC   C4B56988  16.260  13.340  23.210
 2942DPPC   NC356989  23.450   1.290  34.040
 2942DPPC   PO456990  23.230   0.940  33.790
 2942DPPC   GL156991  23.360   0.570  33.580
 2942DPPC   GL256992  23.560   0.440  33.780
 2942DPPC   C1A56993  22.980   0.330  33.470
 2942DPPC   C2A56994  22.710  26.440  33.280
 2942DPPC   C3A56995  22.630  26.080  33.070
 2942DPPC   C4A56996  22.260  25.760  32.920
 2942DPPC   C1B56997  23.560  26.445  33.900
 2942DPPC   C2B56998  23.260  26.160  33.910
 2942DPPC   C3B56999  23.110  25.750  34.000
 2942DPPC   C4B57000  23.210  25.320  34.110
 2943DPPC   NC357001  18.760   8.010  22.320
 2943DPPC   PO457002  18.980   7.750  22.550
 2943DPPC   GL157003  19.280   8.130  22.500
 2943DPPC   GL257004  19.070   8.220  22.690
 2943DPPC   C1A57005  19.510   8.530  22.740
 2943DPPC   C2A57006  19.690   8.910  22.980
 2943DPPC   C3A57007  19.770   9.320  23.020
 2943DPPC   C4A57008  19.930   9.570  22.650
 2943DPPC   C1B57009  18.920   8.670  22.590
 2943DPPC   C2B57010  19.000   9.180  22.540
 2943DPPC   C3B57011  19.180   9.390  22.270
 2943DPPC   C4B57012  19.200   9.860  22.100
 2944DPPC   NC357013  27.705  18.680  19.900
 2944DPPC   PO457014  27.365  18.460  19.680
 2944DPPC   GL157015  27.155  18.300  20.040
 2944DPPC   GL257016  26.835  18.330  20.060
 2944DPPC   C1A57017  27.075  18.120  20.410
 2944DPPC   C2A57018  26.695  18.310  20.530
 2944DPPC   C3A57019  26.595  18.660  20.780
 2944DPPC   C4A57020  26.290  18.870  21.090
 2944DPPC   C1B57021  26.705  17.910  19.970
 2944DPPC   C2B57022  26.290  17.780  20.010
 2944DPPC   C3B57023  26.040  17.400  19.950
 2944DPPC   C4B57024  25.590  17.240  19.980
 2945DPPC   NC357025  15.690  20.130  22.920
 2945DPPC   PO457026  16.080  20.210  22.780
 2945DPPC   GL157027  15.860  20.330  22.520
 2945DPPC   GL257028  15.550  20.540  22.650
 2945DPPC   C1A57029  15.540  20.230  22.250
 2945DPPC   C2A57030  15.110  20.230  22.500
 2945DPPC   C3A57031  14.890  20.560  22.490
 2945DPPC   C4A57032  14.750  21.000  22.510
 2945DPPC   C1B57033  15.310  20.830  22.570
 2945DPPC   C2B57034  15.340  21.170  22.220
 2945DPPC   C3B57035  15.360  21.570  22.000
 2945DPPC   C4B57036  15.100  21.840  21.720
 2946DPPC   NC357037  26.000  17.840  24.780
 2946DPPC   PO457038  25.820  18.210  25.100
 2946DPPC   GL157039  26.190  18.330  25.060
 2946DPPC   GL257040  26.410  18.210  24.750
 2946DPPC   C1A57041  26.475  18.650  24.940
 2946DPPC   C2A57042  26.645  18.950  25.140
 2946DPPC   C3A57043  26.955  19.180  25.370
 2946DPPC   C4A57044  27.285  19.350  25.400
 2946DPPC   C1B57045  26.745  18.380  24.570
 2946DPPC   C2B57046  27.105  18.760  24.510
 2946DPPC   C3B57047  27.295  19.120  24.460
 2946DPPC   C4B57048  27.365  19.660  24.500
 2947DPPC   NC357049  18.220   8.710  42.110
 2947DPPC   PO457050  18.400   8.940  42.360
 2947DPPC   GL157051  18.300   9.200  42.030
 2947DPPC   GL257052  18.360   9.160  41.720
 2947DPPC   C1A57053  18.540   9.620  41.790
 2947DPPC   C2A57054  18.600   9.950  41.480
 2947DPPC   C3A57055  18.770  10.110  41.080
 2947DPPC   C4A57056  18.740  10.200  40.610
 2947DPPC   C1B57057  18.370   9.240  41.210
 2947DPPC   C2B57058  18.700   9.220  40.880
 2947DPPC   C3B57059  19.080   9.320  40.570
 2947DPPC   C4B57060  19.140   8.900  40.310
 2948DPPC   NC357061  31.075  11.460  23.610
 2948DPPC   PO457062  31.105  11.130  23.830
 2948DPPC   GL157063  30.885  11.130  24.160
 2948DPPC   GL257064  31.055  11.330  24.330
 2948DPPC   C1A57065  30.515  11.330  24.240
 2948DPPC   C2A57066  30.095  11.330  24.190
 2948DPPC   C3A57067  29.775  11.060  24.100
 2948DPPC   C4A57068  29.555  10.910  23.740
 2948DPPC   C1B57069  30.815  11.630  24.500
 2948DPPC   C2B57070  30.525  11.830  24.560
 2948DPPC   C3B57071  30.155  12.050  24.580
 2948DPPC   C4B57072  29.905  12.210  24.810
 2949DPPC   NC357073  18.570  24.430  30.300
 2949DPPC   PO457074  18.550  24.690  30.650
 2949DPPC   GL157075  18.810  25.080  30.600
 2949DPPC   GL257076  19.180  25.050  30.540
 2949DPPC   C1A57077  18.880  25.530  30.670
 2949DPPC   C2A57078  18.990  25.940  30.680
 2949DPPC   C3A57079  18.930  26.200  30.970
 2949DPPC   C4A57080  18.880   0.060  31.370
 2949DPPC   C1B57081  19.380  25.330  30.340
 2949DPPC   C2B57082  19.500  25.720  30.170
 2949DPPC   C3B57083  19.310  26.100  30.350
 2949DPPC   C4B57084  19.190   0.080  30.480
 2950DPPC   NC357085  23.110   8.640  36.450
 2950DPPC   PO457086  22.690   8.610  36.630
 2950DPPC   GL157087  22.570   8.320  36.850
 2950DPPC   GL257088  22.440   8.090  36.620
 2950DPPC   C1A57089  22.440   7.970  37.240
 2950DPPC   C2A57090  22.370   7.560  37.180
 2950DPPC   C3A57091  22.180   7.240  37.290
 2950DPPC   C4A57092  22.010   6.760  37.360
 2950DPPC   C1B57093  22.740   7.750  36.830
 2950DPPC   C2B57094  22.700   7.320  36.830
 2950DPPC   C3B57095  22.560   7.000  36.960
 2950DPPC   C4B57096  22.550   6.710  37.270
 2951DPPC   NC357097  18.990   0.470  40.770
 2951DPPC   PO457098  18.620   0.430  40.690
 2951DPPC   GL157099  18.720   0.040  40.550
 2951DPPC   GL257100  18.640   0.060  40.290
 2951DPPC   C1A57101  18.760  26.090  40.510
 2951DPPC   C2A57102  18.940  25.770  40.500
 2951DPPC   C3A57103  19.230  25.460  40.550
 2951DPPC   C4A57104  19.570  25.160  40.490
 2951DPPC   C1B57105  18.740  26.280  39.970
 2951DPPC   C2B57106  18.710  26.170  39.580
 2951DPPC   C3B57107  18.730  26.400  39.250
 2951DPPC   C4B57108  18.590  26.370  38.740
 2952DPPC   NC357109  24.900  24.810  24.620
 2952DPPC   PO457110  24.720  24.710  24.260
 2952DPPC   GL157111  24.670  24.320  24.320
 2952DPPC   GL257112  24.670  23.960  24.440
 2952DPPC   C1A57113  24.250  24.250  24.310
 2952DPPC   C2A57114  24.070  23.890  24.420
 2952DPPC   C3A57115  23.820  23.570  24.540
 2952DPPC   C4A57116  23.440  23.330  24.700
 2952DPPC   C1B57117  24.420  23.770  24.780
 2952DPPC   C2B57118  24.550  23.460  25.100
 2952DPPC   C3B57119  24.880  23.130  25.060
 2952DPPC   C4B57120  25.240  23.030  25.380
 2953DPPC   NC357121  20.690   1.050  26.310
 2953DPPC   PO457122  20.850   1.230  26.690
 2953DPPC   GL157123  20.800   0.810  26.840
 2953DPPC   GL257124  20.930   0.740  27.050
 2953DPPC   C1A57125  20.790   0.350  26.830
 2953DPPC   C2A57126  20.650  26.350  26.870
 2953DPPC   C3A57127  20.710  25.990  26.700
 2953DPPC   C4A57128  20.530  25.530  26.840
 2953DPPC   C1B57129  20.500   0.560  27.200
 2953DPPC   C2B57130  20.670   0.160  27.400
 2953DPPC   C3B57131  20.470   0.050  27.820
 2953DPPC   C4B57132  20.050  26.410  28.010
 2954DPPC   NC357133  19.190  22.210  40.310
 2954DPPC   PO457134  19.230  22.020  40.650
 2954DPPC   GL157135  19.030  22.430  40.790
 2954DPPC   GL257136  18.750  22.270  40.930
 2954DPPC   C1A57137  18.950  22.770  41.100
 2954DPPC   C2A57138  18.820  23.060  41.140
 2954DPPC   C3A57139  18.680  23.510  41.010
 2954DPPC   C4A57140  18.580  23.950  41.190
 2954DPPC   C1B57141  18.500  22.610  41.010
 2954DPPC   C2B57142  18.430  22.760  41.400
 2954DPPC   C3B57143  18.410  23.080  41.660
 2954DPPC   C4B57144  18.760  23.150  41.970
 2955DPPC   NC357145  17.130  14.900  39.620
 2955DPPC   PO457146  16.800  14.750  39.550
 2955DPPC   GL157147  16.410  14.700  39.620
 2955DPPC   GL257148  16.250  14.460  39.460
 2955DPPC   C1A57149  16.190  14.670  40.050
 2955DPPC   C2A57150  15.960  14.480  40.370
 2955DPPC   C3A57151  15.620  14.440  40.620
 2955DPPC   C4A57152  15.280  14.320  40.990
 2955DPPC   C1B57153  16.020  14.120  39.680
 2955DPPC   C2B57154  15.840  13.850  39.880
 2955DPPC   C3B57155  15.570  13.500  40.170
 2955DPPC   C4B57156  15.140  13.660  40.450
 2956DPPC   NC357157  20.400  19.030  43.190
 2956DPPC   PO457158  20.020  18.930  43.040
 2956DPPC   GL157159  19.830  19.220  43.330
 2956DPPC   GL257160  19.960  19.160  43.580
 2956DPPC   C1A57161  19.470  19.370  43.650
 2956DPPC   C2A57162  19.350  19.340  44.000
 2956DPPC   C3A57163  19.410  19.320  44.370
 2956DPPC   C4A57164  19.430  19.410  44.840
 2956DPPC   C1B57165  19.840  19.330  44.070
 2956DPPC   C2B57166  20.000  19.490  44.410
 2956DPPC   C3B57167  19.880  19.660  44.820
 2956DPPC   C4B57168  20.100  20.020  44.790
 2957DPPC   NC357169  13.220  10.040  30.290
 2957DPPC   PO457170  13.450   9.740  30.100
 2957DPPC   GL157171  13.750  10.100  30.170
 2957DPPC   GL257172  13.880  10.160  29.820
 2957DPPC   C1A57173  14.030  10.300  30.330
 2957DPPC   C2A57174  14.400  10.650  30.350
 2957DPPC   C3A57175  14.560  10.870  30.220
 2957DPPC   C4A57176  14.980  11.030  30.040
 2957DPPC   C1B57177  14.350  10.260  29.880
 2957DPPC   C2B57178  14.690  10.430  30.010
 2957DPPC   C3B57179  15.080  10.580  29.890
 2957DPPC   C4B57180  15.510  10.600  29.780
 2958DPPC   NC357181  27.395  11.420  39.530
 2958DPPC   PO457182  27.185  11.030  39.740
 2958DPPC   GL157183  27.345  10.830  40.050
 2958DPPC   GL257184  27.135  10.690  40.260
 2958DPPC   C1A57185  27.685  10.540  40.100
 2958DPPC   C2A57186  27.745  10.110  40.270
 2958DPPC   C3A57187  27.885   9.800  40.560
 2958DPPC   C4A57188  27.695   9.640  40.940
 2958DPPC   C1B57189  27.365  10.440  40.410
 2958DPPC   C2B57190  27.515  10.150  40.740
 2958DPPC   C3B57191  27.705  10.180  41.170
 2958DPPC   C4B57192  28.055  10.420  41.430
 2959DPPC   NC357193  17.250   0.450  23.380
 2959DPPC   PO457194  16.830   0.490  23.320
 2959DPPC   GL157195  16.750   0.280  23.660
 2959DPPC   GL257196  17.060   0.060  23.710
 2959DPPC   C1A57197  16.970   0.200  24.140
 2959DPPC   C2A57198  17.230   0.020  24.420
 2959DPPC   C3A57199  17.450  26.200  24.430
 2959DPPC   C4A57200  17.800  26.080  24.190
 2959DPPC   C1B57201  16.950  26.180  23.810
 2959DPPC   C2B57202  16.860  25.720  23.760
 2959DPPC   C3B57203  16.790  25.310  23.850
 2959DPPC   C4B57204  17.110  24.980  23.880
 2960DPPC   NC357205  28.055  21.980  23.790
 2960DPPC   PO457206  27.925  21.510  23.500
 2960DPPC   GL157207  27.665  21.170  23.680
 2960DPPC   GL257208  27.565  21.140  23.320
 2960DPPC   C1A57209  27.535  20.870  23.980
 2960DPPC   C2A57210  27.355  20.470  24.080
 2960DPPC   C3A57211  27.165  20.230  24.520
 2960DPPC   C4A57212  26.905  20.200  24.990
 2960DPPC   C1B57213  27.125  21.110  23.690
 2960DPPC   C2B57214  27.015  20.730  23.630
 2960DPPC   C3B57215  26.925  20.340  23.570
 2960DPPC   C4B57216  26.955  19.930  23.600
 2961DPPC   NC357217  13.820  18.190  27.290
 2961DPPC   PO457218  13.770  18.170  26.950
 2961DPPC   GL157219  13.290  18.180  26.930
 2961DPPC   GL257220  13.300  17.930  26.760
 2961DPPC   C1A57221  12.860  18.090  26.750
 2961DPPC   C2A57222  12.550  18.270  26.750
 2961DPPC   C3A57223  12.150  18.340  26.650
 2961DPPC   C4A57224  11.900  18.690  26.490
 2961DPPC   C1B57225  13.300  17.850  26.320
 2961DPPC   C2B57226  12.900  17.920  26.110
 2961DPPC   C3B57227  12.580  17.670  26.050
 2961DPPC   C4B57228  12.420  17.280  25.920
 2962DPPC   NC357229  25.340  19.090  41.270
 2962DPPC   PO457230  25.030  19.250  41.690
 2962DPPC   GL157231  25.120  19.490  41.920
 2962DPPC   GL257232  25.300  19.830  41.860
 2962DPPC   C1A57233  25.440  19.560  42.270
 2962DPPC   C2A57234  25.670  19.660  42.720
 2962DPPC   C3A57235  26.000  19.730  42.550
 2962DPPC   C4A57236  26.320  20.150  42.470
 2962DPPC   C1B57237  25.460  20.170  42.000
 2962DPPC   C2B57238  25.650  20.140  42.410
 2962DPPC   C3B57239  25.940  20.160  42.820
 2962DPPC   C4B57240  26.280  20.160  43.190
 2963DPPC   NC357241  23.230  21.670  32.440
 2963DPPC   PO457242  23.210  21.830  32.820
 2963DPPC   GL157243  23.490  22.130  32.710
 2963DPPC   GL257244  23.610  22.010  32.420
 2963DPPC   C1A57245  23.870  22.450  32.750
 2963DPPC   C2A57246  24.240  22.600  32.640
 2963DPPC   C3A57247  24.650  22.750  32.620
 2963DPPC   C4A57248  24.850  22.930  32.940
 2963DPPC   C1B57249  24.040  21.880  32.340
 2963DPPC   C2B57250  24.500  21.830  32.190
 2963DPPC   C3B57251  24.920  21.890  32.090
 2963DPPC   C4B57252  25.280  22.190  32.240
 2964DPPC   NC357253  22.730   8.110  34.510
 2964DPPC   PO457254  22.810   7.970  34.030
 2964DPPC   GL157255  22.520   7.700  34.250
 2964DPPC   GL257256  22.540   7.630  34.550
 2964DPPC   C1A57257  22.360   7.320  34.180
 2964DPPC   C2A57258  22.230   6.980  34.230
 2964DPPC   C3A57259  22.120   6.650  34.510
 2964DPPC   C4A57260  21.970   6.510  34.910
 2964DPPC   C1B57261  22.410   7.180  34.660
 2964DPPC   C2B57262  22.210   6.990  34.950
 2964DPPC   C3B57263  22.080   6.830  35.250
 2964DPPC   C4B57264  22.080   6.350  35.440
 2965DPPC   NC357265  11.420  20.520  22.740
 2965DPPC   PO457266  11.190  20.460  23.150
 2965DPPC   GL157267  11.490  20.620  23.410
 2965DPPC   GL257268  11.680  20.840  23.180
 2965DPPC   C1A57269  11.940  20.680  23.560
 2965DPPC   C2A57270  12.410  20.730  23.750
 2965DPPC   C3A57271  12.760  20.450  23.930
 2965DPPC   C4A57272  13.080  20.660  24.090
 2965DPPC   C1B57273  11.940  20.950  23.030
 2965DPPC   C2B57274  12.340  20.850  22.820
 2965DPPC   C3B57275  12.770  20.910  22.700
 2965DPPC   C4B57276  13.020  21.070  22.500
 2966DPPC   NC357277  17.260  23.850  36.670
 2966DPPC   PO457278  17.160  23.880  37.180
 2966DPPC   GL157279  17.000  24.320  37.260
 2966DPPC   GL257280  16.680  24.430  37.120
 2966DPPC   C1A57281  16.800  24.570  37.600
 2966DPPC   C2A57282  16.640  24.970  37.710
 2966DPPC   C3A57283  16.540  25.400  37.690
 2966DPPC   C4A57284  16.830  25.710  37.640
 2966DPPC   C1B57285  16.280  24.440  36.990
 2966DPPC   C2B57286  15.950  24.650  37.100
 2966DPPC   C3B57287  15.640  24.950  37.290
 2966DPPC   C4B57288  15.110  25.110  37.240
 2967DPPC   NC357289  28.475  15.770  35.680
 2967DPPC   PO457290  28.705  16.180  35.680
 2967DPPC   GL157291  29.095  16.250  35.560
 2967DPPC   GL257292  29.185  16.310  35.210
 2967DPPC   C1A57293  29.505  16.280  35.730
 2967DPPC   C2A57294  29.925  16.450  35.680
 2967DPPC   C3A57295  30.275  16.610  35.600
 2967DPPC   C4A57296  30.695  16.800  35.480
 2967DPPC   C1B57297  29.235  16.750  35.120
 2967DPPC   C2B57298  29.525  16.970  35.060
 2967DPPC   C3B57299  29.815  17.050  34.830
 2967DPPC   C4B57300  29.875  17.340  34.560
 2968DPPC   NC357301  13.830  17.830  32.120
 2968DPPC   PO457302  13.780  17.620  32.440
 2968DPPC   GL157303  13.460  17.220  32.440
 2968DPPC   GL257304  13.490  16.900  32.430
 2968DPPC   C1A57305  13.080  17.190  32.370
 2968DPPC   C2A57306  12.710  17.440  32.420
 2968DPPC   C3A57307  12.460  17.600  32.570
 2968DPPC   C4A57308  12.160  17.340  32.760
 2968DPPC   C1B57309  13.080  16.710  32.510
 2968DPPC   C2B57310  12.700  16.520  32.510
 2968DPPC   C3B57311  12.330  16.460  32.390
 2968DPPC   C4B57312  11.980  16.350  32.130
 2969DPPC   NC357313  26.230  17.190  28.940
 2969DPPC   PO457314  26.545  17.200  28.650
 2969DPPC   GL157315  26.635  17.600  28.640
 2969DPPC   GL257316  26.420  17.720  28.930
 2969DPPC   C1A57317  27.075  17.900  28.570
 2969DPPC   C2A57318  27.335  18.190  28.780
 2969DPPC   C3A57319  27.625  18.510  28.940
 2969DPPC   C4A57320  27.825  18.570  29.380
 2969DPPC   C1B57321  26.625  18.060  28.950
 2969DPPC   C2B57322  26.955  18.290  29.050
 2969DPPC   C3B57323  27.185  18.590  29.230
 2969DPPC   C4B57324  27.275  18.660  29.630
 2970DPPC   NC357325  13.950  18.450  31.270
 2970DPPC   PO457326  13.390  18.460  31.140
 2970DPPC   GL157327  12.970  18.540  31.070
 2970DPPC   GL257328  12.770  18.340  31.350
 2970DPPC   C1A57329  12.670  18.560  30.730
 2970DPPC   C2A57330  12.210  18.620  30.500
 2970DPPC   C3A57331  12.010  18.440  30.150
 2970DPPC   C4A57332  11.750  18.710  29.990
 2970DPPC   C1B57333  12.310  18.410  31.170
 2970DPPC   C2B57334  11.890  18.510  31.170
 2970DPPC   C3B57335  11.450  18.610  31.110
 2970DPPC   C4B57336  11.350  18.850  30.780
 2971DPPC   NC357337  33.745  12.620  30.390
 2971DPPC   PO457338  33.525  12.280  30.150
 2971DPPC   GL157339  33.255  12.110  30.400
 2971DPPC   GL257340  33.355  11.860  30.440
 2971DPPC   C1A57341  32.975  12.340  30.670
 2971DPPC   C2A57342  32.585  12.470  30.710
 2971DPPC   C3A57343  32.255  12.700  30.770
 2971DPPC   C4A57344  31.915  12.870  30.500
 2971DPPC   C1B57345  32.815  11.900  30.400
 2971DPPC   C2B57346  32.395  11.970  30.350
 2971DPPC   C3B57347  32.225  12.400  30.360
 2971DPPC   C4B57348  31.865  12.590  30.040
 2972DPPC   NC357349  25.210  18.400  26.670
 2972DPPC   PO457350  25.520  18.480  27.010
 2972DPPC   GL157351  25.650  18.880  26.810
 2972DPPC   GL257352  25.550  18.980  27.080
 2972DPPC   C1A57353  25.560  19.210  26.610
 2972DPPC   C2A57354  25.320  19.590  26.380
 2972DPPC   C3A57355  25.360  20.030  26.550
 2972DPPC   C4A57356  25.570  20.260  26.910
 2972DPPC   C1B57357  25.890  19.370  27.020
 2972DPPC   C2B57358  26.230  19.630  26.930
 2972DPPC   C3B57359  26.585  19.990  26.840
 2972DPPC   C4B57360  26.945  20.070  27.020
 2973DPPC   NC357361  17.170  18.250  22.250
 2973DPPC   PO457362  17.010  18.690  22.280
 2973DPPC   GL157363  16.830  18.440  21.830
 2973DPPC   GL257364  16.740  18.110  21.920
 2973DPPC   C1A57365  16.730  18.540  21.380
 2973DPPC   C2A57366  16.290  18.500  21.160
 2973DPPC   C3A57367  15.830  18.440  20.970
 2973DPPC   C4A57368  15.700  18.430  20.520
 2973DPPC   C1B57369  16.640  17.760  21.650
 2973DPPC   C2B57370  16.400  17.390  21.460
 2973DPPC   C3B57371  16.220  17.280  21.060
 2973DPPC   C4B57372  16.090  17.190  20.660
 2974DPPC   NC357373  28.695  14.190  26.720
 2974DPPC   PO457374  28.815  13.860  26.750
 2974DPPC   GL157375  29.265  13.670  26.640
 2974DPPC   GL257376  29.295  13.450  26.430
 2974DPPC   C1A57377  29.655  13.590  26.830
 2974DPPC   C2A57378  29.765  13.470  27.210
 2974DPPC   C3A57379  29.865  13.320  27.650
 2974DPPC   C4A57380  30.195  13.180  27.800
 2974DPPC   C1B57381  29.705  13.430  26.330
 2974DPPC   C2B57382  29.885  13.750  26.140
 2974DPPC   C3B57383  30.195  13.870  25.960
 2974DPPC   C4B57384  30.675  13.950  26.100
 2975DPPC   NC357385  17.040  12.870  33.160
 2975DPPC   PO457386  16.700  12.580  33.250
 2975DPPC   GL157387  16.490  12.200  33.230
 2975DPPC   GL257388  16.580  12.090  33.550
 2975DPPC   C1A57389  16.110  11.960  33.210
 2975DPPC   C2A57390  15.910  11.430  33.260
 2975DPPC   C3A57391  15.590  11.240  33.510
 2975DPPC   C4A57392  15.320  11.020  33.750
 2975DPPC   C1B57393  16.300  11.720  33.570
 2975DPPC   C2B57394  16.030  11.370  33.760
 2975DPPC   C3B57395  15.820  10.920  33.880
 2975DPPC   C4B57396  15.530  10.730  34.100
 2976DPPC   NC357397  28.795  15.300  30.940
 2976DPPC   PO457398  28.755  14.930  31.070
 2976DPPC   GL157399  29.225  15.060  30.990
 2976DPPC   GL257400  29.425  14.920  30.820
 2976DPPC   C1A57401  29.675  14.870  31.260
 2976DPPC   C2A57402  30.155  15.120  31.240
 2976DPPC   C3A57403  30.525  15.320  31.200
 2976DPPC   C4A57404  31.015  15.360  31.140
 2976DPPC   C1B57405  29.775  14.840  30.770
 2976DPPC   C2B57406  30.215  15.030  30.730
 2976DPPC   C3B57407  30.345  15.410  30.720
 2976DPPC   C4B57408  30.645  15.710  30.830
 2977DPPC   NC357409  19.290  13.630  41.050
 2977DPPC   PO457410  18.860  13.810  40.860
 2977DPPC   GL157411  18.810  13.460  41.080
 2977DPPC   GL257412  19.000  13.250  40.970
 2977DPPC   C1A57413  18.480  13.180  41.190
 2977DPPC   C2A57414  18.250  12.950  41.440
 2977DPPC   C3A57415  17.870  12.930  41.440
 2977DPPC   C4A57416  17.530  12.670  41.460
 2977DPPC   C1B57417  18.810  12.830  41.220
 2977DPPC   C2B57418  18.600  12.540  41.490
 2977DPPC   C3B57419  18.310  12.320  41.730
 2977DPPC   C4B57420  18.100  12.220  42.140
 2978DPPC   NC357421  28.885  21.220  26.710
 2978DPPC   PO457422  28.675  20.880  26.570
 2978DPPC   GL157423  28.595  20.650  26.820
 2978DPPC   GL257424  28.875  20.420  26.790
 2978DPPC   C1A57425  28.515  20.150  27.010
 2978DPPC   C2A57426  28.095  19.930  26.980
 2978DPPC   C3A57427  27.725  20.080  26.780
 2978DPPC   C4A57428  27.295  20.200  26.580
 2978DPPC   C1B57429  28.615  20.130  26.510
 2978DPPC   C2B57430  28.165  20.190  26.570
 2978DPPC   C3B57431  27.995  20.640  26.620
 2978DPPC   C4B57432  28.045  21.070  26.750
 2979DPPC   NC357433  11.180  25.450  31.170
 2979DPPC   PO457434  11.150  25.620  31.600
 2979DPPC   GL157435  11.530  25.350  31.540
 2979DPPC   GL257436  11.540  25.070  31.230
 2979DPPC   C1A57437  11.650  25.080  31.800
 2979DPPC   C2A57438  11.890  25.140  32.190
 2979DPPC   C3A57439  11.980  25.040  32.580
 2979DPPC   C4A57440  11.800  25.200  32.920
 2979DPPC   C1B57441  11.460  24.710  31.500
 2979DPPC   C2B57442  11.630  24.250  31.370
 2979DPPC   C3B57443  11.640  23.840  31.230
 2979DPPC   C4B57444  11.690  23.700  30.800
 2980DPPC   NC357445  15.790  14.540  30.270
 2980DPPC   PO457446  15.510  14.130  30.190
 2980DPPC   GL157447  15.170  13.850  30.220
 2980DPPC   GL257448  15.080  14.040  30.530
 2980DPPC   C1A57449  14.750  13.680  30.160
 2980DPPC   C2A57450  14.350  13.470  30.210
 2980DPPC   C3A57451  13.930  13.250  30.250
 2980DPPC   C4A57452  13.660  13.150  29.900
 2980DPPC   C1B57453  14.680  13.970  30.590
 2980DPPC   C2B57454  14.400  13.810  30.710
 2980DPPC   C3B57455  14.210  13.400  30.710
 2980DPPC   C4B57456  13.960  13.040  30.760
 2981DPPC   NC357457  27.325   8.860  36.780
 2981DPPC   PO457458  27.065   8.550  36.550
 2981DPPC   GL157459  27.475   8.350  36.470
 2981DPPC   GL257460  27.715   8.250  36.800
 2981DPPC   C1A57461  27.975   8.240  36.400
 2981DPPC   C2A57462  28.365   7.980  36.430
 2981DPPC   C3A57463  28.695   7.940  36.650
 2981DPPC   C4A57464  29.135   7.750  36.890
 2981DPPC   C1B57465  28.135   8.010  36.860
 2981DPPC   C2B57466  28.375   7.550  36.800
 2981DPPC   C3B57467  28.775   7.380  36.630
 2981DPPC   C4B57468  28.985   6.980  36.600
 2982DPPC   NC357469  14.020  22.410  34.540
 2982DPPC   PO457470  14.060  22.620  34.160
 2982DPPC   GL157471  13.850  22.970  34.500
 2982DPPC   GL257472  14.130  23.010  34.660
 2982DPPC   C1A57473  13.550  23.180  34.610
 2982DPPC   C2A57474  13.240  23.520  34.590
 2982DPPC   C3A57475  12.930  23.740  34.610
 2982DPPC   C4A57476  12.730  23.930  34.330
 2982DPPC   C1B57477  13.910  23.380  34.880
 2982DPPC   C2B57478  13.550  23.480  35.120
 2982DPPC   C3B57479  13.250  23.550  35.360
 2982DPPC   C4B57480  13.060  23.850  35.640
 2983DPPC   NC357481  18.770  10.920  37.310
 2983DPPC   PO457482  18.880  10.670  37.000
 2983DPPC   GL157483  18.950  10.270  37.090
 2983DPPC   GL257484  19.220  10.100  37.060
 2983DPPC   C1A57485  18.860   9.910  37.280
 2983DPPC   C2A57486  18.570   9.590  37.290
 2983DPPC   C3A57487  18.450   9.180  37.300
 2983DPPC   C4A57488  18.520   8.830  37.500
 2983DPPC   C1B57489  19.350   9.740  37.290
 2983DPPC   C2B57490  19.020   9.430  37.490
 2983DPPC   C3B57491  18.960   9.030  37.670
 2983DPPC   C4B57492  19.020   8.710  37.980
 2984DPPC   NC357493  26.605  16.520  24.080
 2984DPPC   PO457494  26.440  16.060  24.180
 2984DPPC   GL157495  26.865  16.110  24.050
 2984DPPC   GL257496  27.035  15.910  24.360
 2984DPPC   C1A57497  27.295  16.050  23.830
 2984DPPC   C2A57498  27.595  16.300  23.540
 2984DPPC   C3A57499  27.975  16.580  23.560
 2984DPPC   C4A57500  28.245  16.730  23.290
 2984DPPC   C1B57501  27.515  15.950  24.520
 2984DPPC   C2B57502  27.745  16.120  24.230
 2984DPPC   C3B57503  28.015  16.130  23.800
 2984DPPC   C4B57504  28.405  16.300  23.570
 2985DPPC   NC357505  12.580  20.730  42.090
 2985DPPC   PO457506  12.890  20.730  41.860
 2985DPPC   GL157507  13.350  20.630  41.730
 2985DPPC   GL257508  13.580  20.920  41.760
 2985DPPC   C1A57509  13.750  20.510  41.860
 2985DPPC   C2A57510  14.020  20.240  42.060
 2985DPPC   C3A57511  14.230  19.860  42.000
 2985DPPC   C4A57512  14.650  19.820  42.280
 2985DPPC   C1B57513  14.070  20.820  41.660
 2985DPPC   C2B57514  14.410  21.150  41.680
 2985DPPC   C3B57515  14.870  21.250  41.780
 2985DPPC   C4B57516  15.090  21.050  42.020
 2986DPPC   NC357517  14.720  10.220  24.560
 2986DPPC   PO457518  14.910  10.230  24.900
 2986DPPC   GL157519  15.230  10.420  25.030
 2986DPPC   GL257520  15.410  10.180  25.160
 2986DPPC   C1A57521  15.250  10.660  25.440
 2986DPPC   C2A57522  15.300  11.030  25.740
 2986DPPC   C3A57523  15.300  11.420  25.850
 2986DPPC   C4A57524  15.520  11.630  26.180
 2986DPPC   C1B57525  15.600   9.840  25.210
 2986DPPC   C2B57526  15.830   9.800  25.530
 2986DPPC   C3B57527  15.920   9.500  25.910
 2986DPPC   C4B57528  15.700   9.190  26.110
 2987DPPC   NC357529  13.860  19.160  36.030
 2987DPPC   PO457530  14.070  19.390  36.310
 2987DPPC   GL157531  13.610  19.330  36.460
 2987DPPC   GL257532  13.500  19.470  36.690
 2987DPPC   C1A57533  13.160  19.200  36.380
 2987DPPC   C2A57534  12.700  19.110  36.340
 2987DPPC   C3A57535  12.310  19.210  36.380
 2987DPPC   C4A57536  11.960  19.260  36.400
 2987DPPC   C1B57537  13.120  19.400  36.820
 2987DPPC   C2B57538  12.760  19.400  36.930
 2987DPPC   C3B57539  12.350  19.330  37.120
 2987DPPC   C4B57540  12.170  19.380  37.510
 2988DPPC   NC357541  19.940  22.270  18.990
 2988DPPC   PO457542  19.980  22.690  19.050
 2988DPPC   GL157543  19.870  22.530  19.450
 2988DPPC   GL257544  20.080  22.380  19.530
 2988DPPC   C1A57545  19.590  22.310  19.750
 2988DPPC   C2A57546  19.680  22.030  19.990
 2988DPPC   C3A57547  19.890  21.630  19.940
 2988DPPC   C4A57548  19.770  21.220  19.680
 2988DPPC   C1B57549  20.170  22.400  19.890
 2988DPPC   C2B57550  20.160  22.170  20.170
 2988DPPC   C3B57551  19.950  21.910  20.380
 2988DPPC   C4B57552  19.710  21.730  20.630
 2989DPPC   NC357553  16.370  23.950  34.730
 2989DPPC   PO457554  16.150  24.260  34.490
 2989DPPC   GL157555  15.810  24.530  34.670
 2989DPPC   GL257556  15.770  24.790  34.480
 2989DPPC   C1A57557  15.550  24.710  34.940
 2989DPPC   C2A57558  15.340  25.120  35.060
 2989DPPC   C3A57559  15.100  25.620  35.080
 2989DPPC   C4A57560  15.230  25.940  35.210
 2989DPPC   C1B57561  15.670  25.160  34.290
 2989DPPC   C2B57562  15.790  25.510  34.440
 2989DPPC   C3B57563  15.900  25.920  34.470
 2989DPPC   C4B57564  15.680  26.230  34.290
 2990DPPC   NC357565  24.110  14.800  22.010
 2990DPPC   PO457566  24.000  14.420  21.980
 2990DPPC   GL157567  24.250  14.590  21.600
 2990DPPC   GL257568  24.260  14.860  21.480
 2990DPPC   C1A57569  24.340  14.490  21.160
 2990DPPC   C2A57570  24.450  14.260  20.790
 2990DPPC   C3A57571  24.700  13.970  20.700
 2990DPPC   C4A57572  25.050  13.570  20.610
 2990DPPC   C1B57573  24.310  15.030  20.990
 2990DPPC   C2B57574  24.160  14.770  20.710
 2990DPPC   C3B57575  24.380  14.590  20.380
 2990DPPC   C4B57576  24.560  14.830  20.010
 2991DPPC   NC357577  21.220  19.120  42.950
 2991DPPC   PO457578  21.280  19.410  43.270
 2991DPPC   GL157579  21.070  19.510  43.570
 2991DPPC   GL257580  20.830  19.600  43.510
 2991DPPC   C1A57581  20.960  19.370  43.990
 2991DPPC   C2A57582  20.720  19.470  44.420
 2991DPPC   C3A57583  20.700  19.430  44.860
 2991DPPC   C4A57584  20.290  19.330  44.990
 2991DPPC   C1B57585  20.430  19.610  43.610
 2991DPPC   C2B57586  19.930  19.680  43.650
 2991DPPC   C3B57587  19.650  19.800  43.970
 2991DPPC   C4B57588  19.600  19.790  44.400
 2992DPPC   NC357589  27.025  17.810  39.630
 2992DPPC   PO457590  26.945  18.070  39.930
 2992DPPC   GL157591  27.235  18.390  40.040
 2992DPPC   GL257592  27.405  18.540  39.840
 2992DPPC   C1A57593  27.595  18.460  40.340
 2992DPPC   C2A57594  27.785  18.330  40.610
 2992DPPC   C3A57595  28.185  18.470  40.700
 2992DPPC   C4A57596  28.545  18.700  40.890
 2992DPPC   C1B57597  27.825  18.630  39.940
 2992DPPC   C2B57598  28.045  18.750  40.310
 2992DPPC   C3B57599  28.385  18.970  40.490
 2992DPPC   C4B57600  28.645  19.150  40.800
 2993DPPC   NC357601  30.785  19.460  41.540
 2993DPPC   PO457602  30.385  19.650  41.550
 2993DPPC   GL157603  30.005  19.670  41.290
 2993DPPC   GL257604  29.835  19.390  41.290
 2993DPPC   C1A57605  29.825  19.870  41.040
 2993DPPC   C2A57606  29.595  19.950  40.760
 2993DPPC   C3A57607  29.305  20.110  40.650
 2993DPPC   C4A57608  28.865  20.100  40.590
 2993DPPC   C1B57609  29.415  19.550  41.200
 2993DPPC   C2B57610  29.105  19.180  41.030
 2993DPPC   C3B57611  28.995  18.740  41.050
 2993DPPC   C4B57612  28.995  18.300  40.990
 2994DPPC   NC357613  19.720  10.120  31.680
 2994DPPC   PO457614  19.490   9.730  31.660
 2994DPPC   GL157615  19.190   9.430  31.590
 2994DPPC   GL257616  18.910   9.420  31.350
 2994DPPC   C1A57617  18.810   9.480  31.820
 2994DPPC   C2A57618  18.440   9.570  31.700
 2994DPPC   C3A57619  18.110   9.340  31.450
 2994DPPC   C4A57620  17.720   9.200  31.420
 2994DPPC   C1B57621  18.600   9.150  31.500
 2994DPPC   C2B57622  18.450   8.770  31.480
 2994DPPC   C3B57623  18.130   8.540  31.170
 2994DPPC   C4B57624  17.970   8.490  30.800
 2995DPPC   NC357625  12.990  12.300  39.860
 2995DPPC   PO457626  12.710  12.550  39.900
 2995DPPC   GL157627  12.920  12.880  39.610
 2995DPPC   GL257628  12.910  13.190  39.540
 2995DPPC   C1A57629  13.370  12.950  39.860
 2995DPPC   C2A57630  13.630  13.470  39.940
 2995DPPC   C3A57631  13.950  13.670  39.680
 2995DPPC   C4A57632  14.370  13.890  39.600
 2995DPPC   C1B57633  13.270  13.260  39.480
 2995DPPC   C2B57634  13.700  13.260  39.440
 2995DPPC   C3B57635  14.170  13.470  39.240
 2995DPPC   C4B57636  14.330  13.880  39.080
 2996DPPC   NC357637  21.020  22.740  45.610
 2996DPPC   PO457638  21.320  22.450  45.840
 2996DPPC   GL157639  21.070  22.230  45.570
 2996DPPC   GL257640  21.100  21.830  45.460
 2996DPPC   C1A57641  20.960  22.160  45.120
 2996DPPC   C2A57642  21.040  22.250  44.670
 2996DPPC   C3A57643  21.160  22.210  44.210
 2996DPPC   C4A57644  21.140  21.820  43.900
 2996DPPC   C1B57645  20.640  21.750  45.330
 2996DPPC   C2B57646  20.280  22.070  45.110
 2996DPPC   C3B57647  20.010  21.930  44.750
 2996DPPC   C4B57648  20.200  21.840  44.370
 2997DPPC   NC357649  25.860  17.180  24.750
 2997DPPC   PO457650  26.090  17.410  24.540
 2997DPPC   GL157651  26.475  17.630  24.610
 2997DPPC   GL257652  26.575  17.340  24.540
 2997DPPC   C1A57653  26.805  17.860  24.780
 2997DPPC   C2A57654  27.225  18.100  24.570
 2997DPPC   C3A57655  27.325  18.290  24.130
 2997DPPC   C4A57656  27.475  18.400  23.810
 2997DPPC   C1B57657  26.965  17.500  24.420
 2997DPPC   C2B57658  26.995  17.790  24.120
 2997DPPC   C3B57659  27.175  18.030  23.740
 2997DPPC   C4B57660  27.315  18.250  23.300
 2998DPPC   NC357661  28.835  14.900  31.750
 2998DPPC   PO457662  29.225  14.710  31.930
 2998DPPC   GL157663  29.465  14.970  31.700
 2998DPPC   GL257664  29.255  15.180  31.550
 2998DPPC   C1A57665  29.915  15.240  31.630
 2998DPPC   C2A57666  30.035  15.610  31.380
 2998DPPC   C3A57667  30.315  15.970  31.200
 2998DPPC   C4A57668  30.625  16.380  31.110
 2998DPPC   C1B57669  29.515  15.380  31.320
 2998DPPC   C2B57670  29.745  15.310  31.010
 2998DPPC   C3B57671  29.805  15.290  30.620
 2998DPPC   C4B57672  30.095  15.590  30.340
 2999DPPC   NC357673  20.290  23.990  32.520
 2999DPPC   PO457674  20.460  24.130  32.180
 2999DPPC   GL157675  20.840  24.400  32.260
 2999DPPC   GL257676  21.050  24.280  32.490
 2999DPPC   C1A57677  20.790  24.820  32.240
 2999DPPC   C2A57678  20.940  25.170  32.460
 2999DPPC   C3A57679  21.120  25.590  32.440
 2999DPPC   C4A57680  21.310  25.900  32.460
 2999DPPC   C1B57681  20.930  24.620  32.720
 2999DPPC   C2B57682  20.560  25.040  32.670
 2999DPPC   C3B57683  20.580  25.400  32.860
 2999DPPC   C4B57684  20.610  25.510  33.230
 3000DPPC   NC357685  32.745  16.640  38.010
 3000DPPC   PO457686  32.875  16.330  37.890
 3000DPPC   GL157687  32.505  16.160  37.700
 3000DPPC   GL257688  32.355  16.110  37.430
 3000DPPC   C1A57689  31.995  16.130  37.740
 3000DPPC   C2A57690  31.585  16.100  37.450
 3000DPPC   C3A57691  31.205  16.270  37.460
 3000DPPC   C4A57692  30.695  16.250  37.360
 3000DPPC   C1B57693  32.095  15.820  37.380
 3000DPPC   C2B57694  31.745  15.580  37.330
 3000DPPC   C3B57695  31.245  15.540  37.260
 3000DPPC   C4B57696  30.815  15.780  37.300
 3001DPPC   NC357697  14.330  18.540  18.750
 3001DPPC   PO457698  14.720  18.590  18.760
 3001DPPC   GL157699  14.950  18.560  19.160
 3001DPPC   GL257700  14.910  18.840  19.370
 3001DPPC   C1A57701  15.130  18.410  19.520
 3001DPPC   C2A57702  15.460  18.410  19.540
 3001DPPC   C3A57703  15.970  18.310  19.600
 3001DPPC   C4A57704  16.460  18.140  19.530
 3001DPPC   C1B57705  14.810  19.120  19.790
 3001DPPC   C2B57706  14.980  19.030  20.150
 3001DPPC   C3B57707  15.330  19.220  20.510
 3001DPPC   C4B57708  15.690  19.420  20.610
 3002DPPC   NC357709  33.595   9.810  35.980
 3002DPPC   PO457710  33.235   9.880  35.710
 3002DPPC   GL157711  33.015  10.180  35.520
 3002DPPC   GL257712  33.085  10.280  35.200
 3002DPPC   C1A57713  32.615  10.240  35.350
 3002DPPC   C2A57714  32.125  10.020  35.200
 3002DPPC   C3A57715  31.765  10.110  35.260
 3002DPPC   C4A57716  31.475  10.400  35.090
 3002DPPC   C1B57717  32.775   9.920  34.990
 3002DPPC   C2B57718  32.475   9.710  35.230
 3002DPPC   C3B57719  32.325   9.360  35.490
 3002DPPC   C4B57720  32.425   9.140  35.910
 3003DPPC   NC357721  26.605  23.650  31.490
 3003DPPC   PO457722  26.475  23.430  31.210
 3003DPPC   GL157723  26.010  23.290  31.200
 3003DPPC   GL257724  25.860  23.120  31.430
 3003DPPC   C1A57725  25.490  23.260  31.050
 3003DPPC   C2A57726  25.110  23.050  30.870
 3003DPPC   C3A57727  24.700  22.950  31.000
 3003DPPC   C4A57728  24.380  22.850  31.290
 3003DPPC   C1B57729  25.390  22.960  31.460
 3003DPPC   C2B57730  25.150  22.690  31.240
 3003DPPC   C3B57731  24.780  22.460  31.210
 3003DPPC   C4B57732  24.420  22.290  31.390
 3004DPPC   NC357733  15.000  22.050  38.010
 3004DPPC   PO457734  15.110  21.790  37.670
 3004DPPC   GL157735  14.770  21.600  37.970
 3004DPPC   GL257736  14.960  21.510  38.190
 3004DPPC   C1A57737  14.430  21.810  37.960
 3004DPPC   C2A57738  14.070  21.690  38.000
 3004DPPC   C3A57739  13.720  21.900  38.240
 3004DPPC   C4A57740  13.480  22.190  38.420
 3004DPPC   C1B57741  14.700  21.840  38.500
 3004DPPC   C2B57742  14.760  22.250  38.720
 3004DPPC   C3B57743  14.910  22.610  38.950
 3004DPPC   C4B57744  14.770  22.690  39.410
 3005DPPC   NC357745  28.335   9.640  20.830
 3005DPPC   PO457746  27.965   9.370  20.900
 3005DPPC   GL157747  27.595   9.460  21.170
 3005DPPC   GL257748  27.605   9.890  21.200
 3005DPPC   C1A57749  27.655   9.660  21.640
 3005DPPC   C2A57750  27.585   9.940  22.010
 3005DPPC   C3A57751  27.465  10.270  22.330
 3005DPPC   C4A57752  27.645  10.490  22.600
 3005DPPC   C1B57753  27.505  10.270  21.510
 3005DPPC   C2B57754  27.355  10.500  21.870
 3005DPPC   C3B57755  27.155  10.920  21.890
 3005DPPC   C4B57756  27.085  11.190  22.340
 3006DPPC   NC357757  10.480  15.670  25.970
 3006DPPC   PO457758  10.450  15.710  26.380
 3006DPPC   GL157759  10.660  16.080  26.340
 3006DPPC   GL257760  10.530  16.390  26.230
 3006DPPC   C1A57761  11.140  16.260  26.250
 3006DPPC   C2A57762  11.220  16.260  25.900
 3006DPPC   C3A57763  11.600  16.220  25.750
 3006DPPC   C4A57764  11.940  16.450  25.550
 3006DPPC   C1B57765  10.880  16.690  26.370
 3006DPPC   C2B57766  11.330  16.890  26.220
 3006DPPC   C3B57767  11.740  17.150  26.260
 3006DPPC   C4B57768  12.140  17.130  26.320
 3007DPPC   NC357769  24.450  21.290  36.070
 3007DPPC   PO457770  24.360  21.780  36.160
 3007DPPC   GL157771  24.590  22.160  36.310
 3007DPPC   GL257772  24.940  22.210  36.610
 3007DPPC   C1A57773  24.830  22.480  36.090
 3007DPPC   C2A57774  24.920  22.920  35.840
 3007DPPC   C3A57775  24.970  23.380  35.710
 3007DPPC   C4A57776  24.820  23.610  35.390
 3007DPPC   C1B57777  25.200  22.460  36.420
 3007DPPC   C2B57778  25.310  22.950  36.140
 3007DPPC   C3B57779  25.460  23.320  35.890
 3007DPPC   C4B57780  25.570  23.690  35.720
 3008DPPC   NC357781  20.330  23.610  27.540
 3008DPPC   PO457782  20.250  23.680  27.960
 3008DPPC   GL157783  20.410  24.170  27.880
 3008DPPC   GL257784  20.170  24.470  27.990
 3008DPPC   C1A57785  20.460  24.450  27.600
 3008DPPC   C2A57786  20.580  24.860  27.350
 3008DPPC   C3A57787  20.600  25.040  26.910
 3008DPPC   C4A57788  20.940  25.220  26.620
 3008DPPC   C1B57789  20.510  24.830  27.980
 3008DPPC   C2B57790  20.710  25.180  27.670
 3008DPPC   C3B57791  20.840  25.270  27.360
 3008DPPC   C4B57792  20.810  25.690  27.200
 3009DPPC   NC357793  18.570  10.940  35.440
 3009DPPC   PO457794  18.330  10.900  35.850
 3009DPPC   GL157795  17.880  10.730  35.960
 3009DPPC   GL257796  17.610  10.720  35.680
 3009DPPC   C1A57797  17.660  10.390  36.060
 3009DPPC   C2A57798  17.380  10.070  35.930
 3009DPPC   C3A57799  17.020   9.760  36.190
 3009DPPC   C4A57800  16.610   9.640  36.270
 3009DPPC   C1B57801  17.630  10.340  35.450
 3009DPPC   C2B57802  17.480  10.000  35.020
 3009DPPC   C3B57803  17.280   9.910  34.580
 3009DPPC   C4B57804  17.300   9.970  34.130
 3010DPPC   NC357805  17.010   2.510  35.410
 3010DPPC   PO457806  16.720   2.400  35.050
 3010DPPC   GL157807  17.050   2.070  35.140
 3010DPPC   GL257808  17.090   2.080  34.820
 3010DPPC   C1A57809  17.100   1.600  34.980
 3010DPPC   C2A57810  17.230   1.160  35.050
 3010DPPC   C3A57811  17.310   1.070  35.520
 3010DPPC   C4A57812  17.050   1.120  35.880
 3010DPPC   C1B57813  17.500   1.860  34.840
 3010DPPC   C2B57814  17.720   1.470  34.720
 3010DPPC   C3B57815  18.100   1.250  34.940
 3010DPPC   C4B57816  18.150   0.880  35.170
 3011DPPC   NC357817  23.150  19.900  28.910
 3011DPPC   PO457818  23.190  20.380  28.880
 3011DPPC   GL157819  23.600  20.570  29.200
 3011DPPC   GL257820  23.880  20.790  29.200
 3011DPPC   C1A57821  23.750  20.500  29.620
 3011DPPC   C2A57822  23.970  20.360  29.890
 3011DPPC   C3A57823  24.330  20.080  29.980
 3011DPPC   C4A57824  24.730  20.260  29.890
 3011DPPC   C1B57825  24.310  21.030  29.300
 3011DPPC   C2B57826  24.550  21.250  29.540
 3011DPPC   C3B57827  25.000  21.500  29.530
 3011DPPC   C4B57828  25.220  21.880  29.620
 3012DPPC   NC357829  25.380  14.530  22.630
 3012DPPC   PO457830  25.390  14.120  22.830
 3012DPPC   GL157831  25.730  14.130  22.520
 3012DPPC   GL257832  26.080  14.230  22.620
 3012DPPC   C1A57833  25.870  14.060  22.140
 3012DPPC   C2A57834  26.290  14.030  21.990
 3012DPPC   C3A57835  26.575  13.680  21.820
 3012DPPC   C4A57836  26.805  13.340  21.650
 3012DPPC   C1B57837  26.545  14.240  22.570
 3012DPPC   C2B57838  26.965  13.910  22.340
 3012DPPC   C3B57839  27.045  13.850  21.860
 3012DPPC   C4B57840  27.015  13.810  21.410
 3013DPPC   NC357841  28.005  15.350  31.320
 3013DPPC   PO457842  28.335  15.580  31.060
 3013DPPC   GL157843  28.715  15.810  31.150
 3013DPPC   GL257844  28.735  15.910  31.470
 3013DPPC   C1A57845  29.065  15.890  30.980
 3013DPPC   C2A57846  29.205  16.150  30.870
 3013DPPC   C3A57847  29.435  16.430  31.030
 3013DPPC   C4A57848  29.345  16.870  31.300
 3013DPPC   C1B57849  29.175  15.940  31.420
 3013DPPC   C2B57850  29.545  15.890  31.190
 3013DPPC   C3B57851  29.875  16.180  31.110
 3013DPPC   C4B57852  30.145  16.510  30.840
 3014DPPC   NC357853  31.115   6.100  28.990
 3014DPPC   PO457854  31.105   6.040  29.370
 3014DPPC   GL157855  30.895   6.430  29.300
 3014DPPC   GL257856  30.915   6.580  29.030
 3014DPPC   C1A57857  30.835   6.810  29.500
 3014DPPC   C2A57858  30.735   7.280  29.480
 3014DPPC   C3A57859  30.655   7.700  29.600
 3014DPPC   C4A57860  30.185   7.700  29.650
 3014DPPC   C1B57861  30.535   6.930  28.940
 3014DPPC   C2B57862  30.295   7.360  29.220
 3014DPPC   C3B57863  29.925   7.380  29.380
 3014DPPC   C4B57864  29.535   7.440  29.240
 3015DPPC   NC357865  17.100  17.230  41.120
 3015DPPC   PO457866  16.700  17.310  41.280
 3015DPPC   GL157867  16.440  17.220  41.650
 3015DPPC   GL257868  16.470  17.270  41.940
 3015DPPC   C1A57869  16.070  17.160  41.740
 3015DPPC   C2A57870  15.610  17.110  41.900
 3015DPPC   C3A57871  15.170  17.190  42.100
 3015DPPC   C4A57872  15.110  17.280  42.400
 3015DPPC   C1B57873  16.210  17.170  42.200
 3015DPPC   C2B57874  16.070  17.460  42.460
 3015DPPC   C3B57875  15.920  17.900  42.630
 3015DPPC   C4B57876  15.580  18.170  42.650
 3016DPPC   NC357877   9.820  22.860  28.030
 3016DPPC   PO457878   9.880  23.260  27.980
 3016DPPC   GL157879  10.280  23.120  28.120
 3016DPPC   GL257880  10.270  22.970  28.440
 3016DPPC   C1A57881  10.750  23.040  28.050
 3016DPPC   C2A57882  11.010  22.730  27.920
 3016DPPC   C3A57883  11.190  22.280  27.950
 3016DPPC   C4A57884  11.230  21.880  27.530
 3016DPPC   C1B57885  10.540  22.680  28.810
 3016DPPC   C2B57886  10.860  22.350  28.790
 3016DPPC   C3B57887  11.260  22.100  28.710
 3016DPPC   C4B57888  11.600  21.810  28.610
 3017DPPC   NC357889  27.245  11.500  19.690
 3017DPPC   PO457890  27.165  11.250  20.170
 3017DPPC   GL157891  27.445  11.330  20.390
 3017DPPC   GL257892  27.315  11.190  20.680
 3017DPPC   C1A57893  27.675  11.570  20.660
 3017DPPC   C2A57894  27.725  11.730  21.040
 3017DPPC   C3A57895  27.665  11.530  21.430
 3017DPPC   C4A57896  27.415  11.290  21.700
 3017DPPC   C1B57897  26.995  11.080  20.920
 3017DPPC   C2B57898  26.615  11.110  20.960
 3017DPPC   C3B57899  26.280  11.310  21.230
 3017DPPC   C4B57900  26.270  11.690  21.570
 3018DPPC   NC357901  19.110  15.160  22.270
 3018DPPC   PO457902  19.550  15.110  22.130
 3018DPPC   GL157903  19.270  14.970  21.770
 3018DPPC   GL257904  19.470  14.920  21.460
 3018DPPC   C1A57905  19.010  14.900  21.490
 3018DPPC   C2A57906  18.830  14.660  21.170
 3018DPPC   C3A57907  18.390  14.520  21.000
 3018DPPC   C4A57908  18.020  14.320  20.810
 3018DPPC   C1B57909  19.360  14.580  21.200
 3018DPPC   C2B57910  19.140  14.460  20.840
 3018DPPC   C3B57911  19.040  14.130  20.550
 3018DPPC   C4B57912  19.180  13.750  20.290
 3019DPPC   NC357913  17.110  24.480  33.890
 3019DPPC   PO457914  17.280  24.940  33.730
 3019DPPC   GL157915  17.330  25.360  33.540
 3019DPPC   GL257916  17.050  25.450  33.300
 3019DPPC   C1A57917  17.420  25.760  33.600
 3019DPPC   C2A57918  17.650  26.000  33.740
 3019DPPC   C3A57919  17.590  26.360  34.060
 3019DPPC   C4A57920  17.460   0.300  34.220
 3019DPPC   C1B57921  16.670  25.550  33.380
 3019DPPC   C2B57922  16.350  25.800  33.640
 3019DPPC   C3B57923  16.030  26.120  33.930
 3019DPPC   C4B57924  15.910   0.080  33.910
 3020DPPC   NC357925  28.055   9.560  36.930
 3020DPPC   PO457926  28.155   9.150  36.660
 3020DPPC   GL157927  28.225   8.750  36.790
 3020DPPC   GL257928  28.005   8.640  36.960
 3020DPPC   C1A57929  28.505   8.380  36.790
 3020DPPC   C2A57930  28.955   8.330  36.980
 3020DPPC   C3A57931  28.995   8.330  37.390
 3020DPPC   C4A57932  29.235   8.210  37.730
 3020DPPC   C1B57933  27.965   8.260  37.270
 3020DPPC   C2B57934  28.165   7.830  37.410
 3020DPPC   C3B57935  28.295   7.380  37.490
 3020DPPC   C4B57936  28.085   6.980  37.470
 3021DPPC   NC357937  25.640  17.290  24.230
 3021DPPC   PO457938  25.740  17.720  24.290
 3021DPPC   GL157939  26.160  17.760  24.160
 3021DPPC   GL257940  26.300  17.850  23.800
 3021DPPC   C1A57941  26.545  17.970  24.240
 3021DPPC   C2A57942  26.815  18.280  24.110
 3021DPPC   C3A57943  27.025  18.660  23.970
 3021DPPC   C4A57944  27.025  19.120  24.080
 3021DPPC   C1B57945  26.625  18.010  23.720
 3021DPPC   C2B57946  26.825  18.440  23.590
 3021DPPC   C3B57947  27.075  18.780  23.470
 3021DPPC   C4B57948  27.335  19.020  23.620
 3022DPPC   NC357949  21.090   5.330  25.150
 3022DPPC   PO457950  21.520   5.370  25.150
 3022DPPC   GL157951  21.780   5.670  25.420
 3022DPPC   GL257952  22.220   5.730  25.320
 3022DPPC   C1A57953  21.880   6.170  25.350
 3022DPPC   C2A57954  21.700   6.330  25.110
 3022DPPC   C3A57955  21.670   6.660  24.850
 3022DPPC   C4A57956  21.600   7.090  24.710
 3022DPPC   C1B57957  22.460   6.020  25.510
 3022DPPC   C2B57958  22.760   6.170  25.190
 3022DPPC   C3B57959  23.200   6.060  25.150
 3022DPPC   C4B57960  23.530   5.750  24.930
 3023DPPC   NC357961  13.530  21.170  34.130
 3023DPPC   PO457962  13.220  21.060  33.850
 3023DPPC   GL157963  13.060  21.150  33.490
 3023DPPC   GL257964  13.070  20.940  33.230
 3023DPPC   C1A57965  12.720  21.370  33.360
 3023DPPC   C2A57966  12.240  21.390  33.440
 3023DPPC   C3A57967  11.830  21.670  33.220
 3023DPPC   C4A57968  11.490  21.940  33.320
 3023DPPC   C1B57969  12.740  21.050  32.960
 3023DPPC   C2B57970  12.330  21.060  33.030
 3023DPPC   C3B57971  11.960  21.190  33.100
 3023DPPC   C4B57972  11.650  20.870  33.040
 3024DPPC   NC357973  24.020  11.660  23.190
 3024DPPC   PO457974  23.850  11.750  22.880
 3024DPPC   GL157975  24.070  11.650  22.460
 3024DPPC   GL257976  24.180  11.880  22.220
 3024DPPC   C1A57977  24.130  11.330  22.120
 3024DPPC   C2A57978  23.990  11.000  21.860
 3024DPPC   C3A57979  23.820  11.070  21.430
 3024DPPC   C4A57980  23.850  11.080  21.020
 3024DPPC   C1B57981  24.400  11.670  21.880
 3024DPPC   C2B57982  24.370  11.450  21.480
 3024DPPC   C3B57983  24.410  11.210  21.050
 3024DPPC   C4B57984  24.640  11.200  20.720
 3025DPPC   NC357985  32.495   8.140  38.850
 3025DPPC   PO457986  32.425   8.480  38.570
 3025DPPC   GL157987  32.175   8.800  38.470
 3025DPPC   GL257988  32.415   9.010  38.220
 3025DPPC   C1A57989  31.765   8.920  38.210
 3025DPPC   C2A57990  31.445   8.660  38.160
 3025DPPC   C3A57991  31.085   8.690  37.840
 3025DPPC   C4A57992  30.965   8.940  37.440
 3025DPPC   C1B57993  32.025   9.280  38.080
 3025DPPC   C2B57994  31.545   9.510  38.020
 3025DPPC   C3B57995  31.125   9.620  38.180
 3025DPPC   C4B57996  30.765   9.700  38.090
 3026DPPC   NC357997  13.540  22.180  31.250
 3026DPPC   PO457998  13.780  22.470  31.610
 3026DPPC   GL157999  13.370  22.750  31.690
 3026DPPC   GL258000  13.520  23.050  31.620
 3026DPPC   C1A58001  13.020  23.010  31.580
 3026DPPC   C2A58002  12.690  22.930  31.310
 3026DPPC   C3A58003  12.350  23.200  31.160
 3026DPPC   C4A58004  12.110  23.580  31.060
 3026DPPC   C1B58005  13.310  23.400  31.600
 3026DPPC   C2B58006  13.120  23.710  31.540
 3026DPPC   C3B58007  12.810  23.870  31.460
 3026DPPC   C4B58008  12.860  24.280  31.190
 3027DPPC   NC358009  15.110  10.830  40.590
 3027DPPC   PO458010  14.930  11.170  40.600
 3027DPPC   GL158011  15.150  11.190  40.240
 3027DPPC   GL258012  15.480  11.070  40.250
 3027DPPC   C1A58013  15.360  11.480  39.840
 3027DPPC   C2A58014  15.740  11.550  39.710
 3027DPPC   C3A58015  15.800  11.900  39.520
 3027DPPC   C4A58016  15.570  12.170  39.290
 3027DPPC   C1B58017  15.720  11.470  40.160
 3027DPPC   C2B58018  15.820  11.740  40.340
 3027DPPC   C3B58019  16.020  12.090  40.230
 3027DPPC   C4B58020  16.330  12.320  40.180
 3028DPPC   NC358021  33.515  15.510  34.950
 3028DPPC   PO458022  33.255  15.440  35.290
 3028DPPC   GL158023  33.025  15.410  34.960
 3028DPPC   GL258024  33.165  15.050  34.990
 3028DPPC   C1A58025  32.675  15.210  34.820
 3028DPPC   C2A58026  32.235  15.260  34.850
 3028DPPC   C3A58027  31.835  15.360  34.560
 3028DPPC   C4A58028  31.425  15.210  34.470
 3028DPPC   C1B58029  32.755  14.950  35.280
 3028DPPC   C2B58030  32.465  14.700  35.370
 3028DPPC   C3B58031  32.355  14.350  35.230
 3028DPPC   C4B58032  32.375  13.900  35.230
 3029DPPC   NC358033  31.695  16.480  25.580
 3029DPPC   PO458034  31.725  16.840  25.950
 3029DPPC   GL158035  31.465  16.620  26.220
 3029DPPC   GL258036  31.195  16.500  26.140
 3029DPPC   C1A58037  31.445  16.360  26.630
 3029DPPC   C2A58038  31.395  16.180  26.900
 3029DPPC   C3A58039  31.095  15.910  26.870
 3029DPPC   C4A58040  30.865  15.690  27.190
 3029DPPC   C1B58041  30.815  16.330  26.290
 3029DPPC   C2B58042  30.765  16.090  26.560
 3029DPPC   C3B58043  30.505  15.820  26.800
 3029DPPC   C4B58044  30.055  15.690  26.700
 3030DPPC   NC358045  12.860  26.140  26.010
 3030DPPC   PO458046  12.480  25.820  26.070
 3030DPPC   GL158047  12.830  25.560  26.230
 3030DPPC   GL258048  12.550  25.230  26.240
 3030DPPC   C1A58049  12.980  25.340  25.830
 3030DPPC   C2A58050  12.880  25.070  25.520
 3030DPPC   C3A58051  12.890  24.610  25.600
 3030DPPC   C4A58052  12.730  24.280  25.360
 3030DPPC   C1B58053  12.790  24.930  26.540
 3030DPPC   C2B58054  13.200  24.660  26.590
 3030DPPC   C3B58055  13.640  24.570  26.720
 3030DPPC   C4B58056  14.020  24.250  27.020
 3031DPPC   NC358057  14.040  23.060  33.340
 3031DPPC   PO458058  14.400  23.440  33.150
 3031DPPC   GL158059  14.220  23.810  33.380
 3031DPPC   GL258060  14.180  24.070  33.180
 3031DPPC   C1A58061  14.010  24.070  33.720
 3031DPPC   C2A58062  13.800  24.200  34.170
 3031DPPC   C3A58063  13.580  24.530  34.350
 3031DPPC   C4A58064  13.340  24.750  34.570
 3031DPPC   C1B58065  13.770  24.260  33.310
 3031DPPC   C2B58066  13.490  24.450  33.720
 3031DPPC   C3B58067  13.240  24.760  34.010
 3031DPPC   C4B58068  13.300  25.110  34.070
 3032DPPC   NC358069  17.970  24.420  31.190
 3032DPPC   PO458070  18.120  24.780  30.990
 3032DPPC   GL158071  18.070  25.170  31.020
 3032DPPC   GL258072  17.760  25.230  30.880
 3032DPPC   C1A58073  18.390  25.430  30.860
 3032DPPC   C2A58074  18.540  25.840  30.960
 3032DPPC   C3A58075  18.440  26.350  31.020
 3032DPPC   C4A58076  18.440   0.300  31.110
 3032DPPC   C1B58077  17.760  25.590  30.990
 3032DPPC   C2B58078  17.770  25.960  31.040
 3032DPPC   C3B58079  17.510  26.280  31.120
 3032DPPC   C4B58080  17.490   0.280  31.250
 3033DPPC   NC358081  17.100   9.660  21.100
 3033DPPC   PO458082  17.220  10.150  21.330
 3033DPPC   GL158083  17.340  10.360  21.790
 3033DPPC   GL258084  17.190  10.280  22.110
 3033DPPC   C1A58085  17.420  10.720  22.120
 3033DPPC   C2A58086  17.510  10.720  22.640
 3033DPPC   C3A58087  17.440  10.960  22.930
 3033DPPC   C4A58088  17.080  11.130  23.100
 3033DPPC   C1B58089  16.960  10.540  22.390
 3033DPPC   C2B58090  17.100  10.950  22.590
 3033DPPC   C3B58091  17.390  11.220  22.510
 3033DPPC   C4B58092  17.460  11.610  22.610
 3034DPPC   NC358093  32.685   8.310  36.410
 3034DPPC   PO458094  32.945   8.660  36.340
 3034DPPC   GL158095  32.515   8.740  36.210
 3034DPPC   GL258096  32.355   8.570  36.050
 3034DPPC   C1A58097  32.205   8.940  36.420
 3034DPPC   C2A58098  31.805   9.220  36.340
 3034DPPC   C3A58099  31.555   9.430  36.630
 3034DPPC   C4A58100  31.165   9.570  36.650
 3034DPPC   C1B58101  31.895   8.830  35.880
 3034DPPC   C2B58102  31.525   9.150  35.950
 3034DPPC   C3B58103  31.165   9.310  36.150
 3034DPPC   C4B58104  31.085   9.740  36.000
 3035DPPC   NC358105  24.900   3.450  34.590
 3035DPPC   PO458106  24.670   3.480  34.180
 3035DPPC   GL158107  24.990   3.820  34.220
 3035DPPC   GL258108  25.330   3.940  34.270
 3035DPPC   C1A58109  24.930   4.230  34.280
 3035DPPC   C2A58110  24.960   4.740  34.350
 3035DPPC   C3A58111  24.950   5.210  34.390
 3035DPPC   C4A58112  25.010   5.590  34.500
 3035DPPC   C1B58113  25.310   4.440  34.440
 3035DPPC   C2B58114  25.620   4.830  34.430
 3035DPPC   C3B58115  25.760   4.970  34.800
 3035DPPC   C4B58116  25.740   4.960  35.280
 3036DPPC   NC358117  20.790  22.670  25.290
 3036DPPC   PO458118  20.250  22.510  25.200
 3036DPPC   GL158119  20.530  22.740  24.910
 3036DPPC   GL258120  20.680  23.000  24.850
 3036DPPC   C1A58121  20.580  22.840  24.390
 3036DPPC   C2A58122  20.560  23.240  24.170
 3036DPPC   C3A58123  20.480  23.640  23.890
 3036DPPC   C4A58124  20.770  23.860  23.850
 3036DPPC   C1B58125  20.920  23.260  24.530
 3036DPPC   C2B58126  21.360  23.330  24.270
 3036DPPC   C3B58127  21.770  23.360  24.110
 3036DPPC   C4B58128  22.280  23.500  24.250
 3037DPPC   NC358129  21.480  22.130  18.530
 3037DPPC   PO458130  21.720  21.750  18.540
 3037DPPC   GL158131  21.780  21.580  19.010
 3037DPPC   GL258132  22.060  21.450  19.170
 3037DPPC   C1A58133  21.610  21.470  19.340
 3037DPPC   C2A58134  21.340  21.100  19.530
 3037DPPC   C3A58135  21.270  20.620  19.760
 3037DPPC   C4A58136  21.200  20.620  20.190
 3037DPPC   C1B58137  21.910  21.070  19.200
 3037DPPC   C2B58138  21.760  20.840  19.560
 3037DPPC   C3B58139  21.580  20.990  19.950
 3037DPPC   C4B58140  21.170  21.120  20.050
 3038DPPC   NC358141  30.735   9.530  41.810
 3038DPPC   PO458142  30.705   9.480  41.440
 3038DPPC   GL158143  30.615   9.700  40.960
 3038DPPC   GL258144  30.465   9.450  40.740
 3038DPPC   C1A58145  30.785  10.110  40.710
 3038DPPC   C2A58146  30.575  10.460  40.380
 3038DPPC   C3A58147  30.535  10.390  39.900
 3038DPPC   C4A58148  30.705  10.530  39.540
 3038DPPC   C1B58149  29.935   9.460  40.880
 3038DPPC   C2B58150  29.565   9.580  40.730
 3038DPPC   C3B58151  29.315   9.610  40.520
 3038DPPC   C4B58152  28.865   9.680  40.340
 3039DPPC   NC358153  16.620  24.570  34.620
 3039DPPC   PO458154  16.960  24.740  34.410
 3039DPPC   GL158155  16.890  25.160  34.540
 3039DPPC   GL258156  16.560  25.150  34.740
 3039DPPC   C1A58157  16.740  25.620  34.670
 3039DPPC   C2A58158  16.740  26.140  34.610
 3039DPPC   C3A58159  16.760   0.100  34.330
 3039DPPC   C4A58160  16.410   0.440  34.210
 3039DPPC   C1B58161  16.280  25.550  34.720
 3039DPPC   C2B58162  16.310  25.950  34.810
 3039DPPC   C3B58163  16.400  26.400  34.890
 3039DPPC   C4B58164  16.770   0.210  34.920
 3040DPPC   NC358165  19.220  13.050  17.920
 3040DPPC   PO458166  19.170  12.850  18.320
 3040DPPC   GL158167  19.410  13.020  18.700
 3040DPPC   GL258168  19.280  13.150  19.040
 3040DPPC   C1A58169  19.860  13.250  18.680
 3040DPPC   C2A58170  20.110  13.620  18.690
 3040DPPC   C3A58171  20.200  14.010  18.910
 3040DPPC   C4A58172  20.450  14.350  19.280
 3040DPPC   C1B58173  19.150  13.200  19.490
 3040DPPC   C2B58174  19.140  13.080  19.820
 3040DPPC   C3B58175  18.900  13.100  20.220
 3040DPPC   C4B58176  18.430  13.230  20.330
 3041DPPC   NC358177  29.165  20.380  43.100
 3041DPPC   PO458178  29.115  20.780  42.870
 3041DPPC   GL158179  28.675  20.650  43.060
 3041DPPC   GL258180  28.295  20.740  42.840
 3041DPPC   C1A58181  28.455  20.350  43.330
 3041DPPC   C2A58182  27.985  20.490  43.470
 3041DPPC   C3A58183  27.685  20.400  43.740
 3041DPPC   C4A58184  27.355  20.500  43.980
 3041DPPC   C1B58185  27.775  20.610  42.880
 3041DPPC   C2B58186  27.325  20.510  42.790
 3041DPPC   C3B58187  26.985  20.550  42.990
 3041DPPC   C4B58188  26.625  20.390  42.900
 3042DPPC   NC358189  20.030   7.810  21.220
 3042DPPC   PO458190  19.960   8.190  21.230
 3042DPPC   GL158191  20.280   8.340  21.390
 3042DPPC   GL258192  20.020   8.650  21.400
 3042DPPC   C1A58193  20.730   8.280  21.610
 3042DPPC   C2A58194  21.220   8.350  21.740
 3042DPPC   C3A58195  21.580   8.330  21.650
 3042DPPC   C4A58196  22.020   8.010  21.760
 3042DPPC   C1B58197  20.080   9.030  21.550
 3042DPPC   C2B58198  20.240   9.060  22.010
 3042DPPC   C3B58199  20.270   9.250  22.430
 3042DPPC   C4B58200  20.690   9.120  22.690
 3043DPPC   NC358201  28.775  14.360  37.990
 3043DPPC   PO458202  28.685  14.440  38.430
 3043DPPC   GL158203  29.155  14.430  38.430
 3043DPPC   GL258204  29.245  14.680  38.220
 3043DPPC   C1A58205  29.495  14.200  38.740
 3043DPPC   C2A58206  29.875  14.300  38.990
 3043DPPC   C3A58207  30.315  14.170  39.160
 3043DPPC   C4A58208  30.695  14.060  39.130
 3043DPPC   C1B58209  29.285  15.020  38.450
 3043DPPC   C2B58210  29.515  15.390  38.490
 3043DPPC   C3B58211  29.735  15.820  38.580
 3043DPPC   C4B58212  30.005  16.020  38.740
 3044DPPC   NC358213  27.615  11.760  25.620
 3044DPPC   PO458214  27.595  11.330  25.620
 3044DPPC   GL158215  27.835  11.020  25.500
 3044DPPC   GL258216  27.765  10.900  25.200
 3044DPPC   C1A58217  28.245  10.790  25.510
 3044DPPC   C2A58218  28.635  10.730  25.620
 3044DPPC   C3A58219  28.995  10.600  25.520
 3044DPPC   C4A58220  29.345  10.340  25.350
 3044DPPC   C1B58221  28.105  10.510  25.150
 3044DPPC   C2B58222  28.315  10.120  24.900
 3044DPPC   C3B58223  28.615   9.870  25.060
 3044DPPC   C4B58224  28.895   9.530  24.990
 3045DPPC   NC358225  25.870   7.850  21.740
 3045DPPC   PO458226  25.480   7.830  21.640
 3045DPPC   GL158227  25.570   8.220  21.830
 3045DPPC   GL258228  25.710   8.220  22.040
 3045DPPC   C1A58229  25.740   8.630  21.730
 3045DPPC   C2A58230  25.700   8.960  21.530
 3045DPPC   C3A58231  25.400   9.230  21.440
 3045DPPC   C4A58232  25.010   9.400  21.520
 3045DPPC   C1B58233  25.660   8.550  22.230
 3045DPPC   C2B58234  25.580   8.850  22.520
 3045DPPC   C3B58235  25.550   9.140  22.760
 3045DPPC   C4B58236  25.200   9.330  23.010
 3046DPPC   NC358237  33.765  15.980  35.100
 3046DPPC   PO458238  33.345  15.990  35.110
 3046DPPC   GL158239  32.935  16.010  34.970
 3046DPPC   GL258240  32.915  15.780  34.630
 3046DPPC   C1A58241  32.585  16.000  35.200
 3046DPPC   C2A58242  32.165  16.230  35.250
 3046DPPC   C3A58243  31.815  16.030  35.080
 3046DPPC   C4A58244  31.535  15.860  35.310
 3046DPPC   C1B58245  32.575  15.680  34.750
 3046DPPC   C2B58246  32.175  15.690  35.040
 3046DPPC   C3B58247  31.835  15.470  35.090
 3046DPPC   C4B58248  31.655  15.300  35.430
 3047DPPC   NC358249  15.120   8.980  25.280
 3047DPPC   PO458250  14.910   9.200  25.540
 3047DPPC   GL158251  15.030   9.610  25.780
 3047DPPC   GL258252  15.330   9.710  25.700
 3047DPPC   C1A58253  15.080  10.000  26.080
 3047DPPC   C2A58254  15.310  10.010  26.490
 3047DPPC   C3A58255  15.360  10.250  26.820
 3047DPPC   C4A58256  15.490  10.290  27.190
 3047DPPC   C1B58257  15.330  10.130  25.670
 3047DPPC   C2B58258  15.430  10.420  25.910
 3047DPPC   C3B58259  15.640  10.540  26.060
 3047DPPC   C4B58260  15.710  10.580  26.530
 3048DPPC   NC358261  12.430  11.310  25.420
 3048DPPC   PO458262  12.790  11.440  25.180
 3048DPPC   GL158263  13.180  11.600  25.190
 3048DPPC   GL258264  13.120  12.010  25.160
 3048DPPC   C1A58265  13.580  11.720  25.420
 3048DPPC   C2A58266  13.770  12.080  25.590
 3048DPPC   C3A58267  13.450  12.450  25.530
 3048DPPC   C4A58268  13.050  12.660  25.770
 3048DPPC   C1B58269  13.480  12.140  25.070
 3048DPPC   C2B58270  13.750  12.380  25.140
 3048DPPC   C3B58271  14.150  12.710  25.270
 3048DPPC   C4B58272  14.200  12.940  25.720
 3049DPPC   NC358273  17.660   7.610  39.260
 3049DPPC   PO458274  17.470   7.560  38.820
 3049DPPC   GL158275  17.840   7.750  38.850
 3049DPPC   GL258276  17.630   8.010  38.940
 3049DPPC   C1A58277  18.310   7.910  38.750
 3049DPPC   C2A58278  18.500   8.280  38.670
 3049DPPC   C3A58279  18.630   8.620  39.020
 3049DPPC   C4A58280  18.910   8.550  39.250
 3049DPPC   C1B58281  17.820   8.340  38.770
 3049DPPC   C2B58282  18.100   8.490  38.490
 3049DPPC   C3B58283  18.380   8.860  38.550
 3049DPPC   C4B58284  18.860   8.890  38.700
 3050DPPC   NC358285  21.520   4.590  25.730
 3050DPPC   PO458286  21.340   4.920  25.490
 3050DPPC   GL158287  21.300   5.420  25.610
 3050DPPC   GL258288  21.590   5.480  25.920
 3050DPPC   C1A58289  21.460   5.900  25.730
 3050DPPC   C2A58290  21.510   6.330  25.880
 3050DPPC   C3A58291  21.620   6.770  26.080
 3050DPPC   C4A58292  21.470   7.210  26.260
 3050DPPC   C1B58293  21.750   5.960  26.090
 3050DPPC   C2B58294  21.860   6.370  26.210
 3050DPPC   C3B58295  21.940   6.670  26.540
 3050DPPC   C4B58296  21.810   7.040  26.750
 3051DPPC   NC358297  10.850  13.710  31.070
 3051DPPC   PO458298  11.030  13.800  30.710
 3051DPPC   GL158299  11.450  13.980  30.660
 3051DPPC   GL258300  11.370  14.310  30.780
 3051DPPC   C1A58301  11.650  14.310  30.340
 3051DPPC   C2A58302  11.960  14.740  30.300
 3051DPPC   C3A58303  12.360  14.960  30.480
 3051DPPC   C4A58304  12.690  15.290  30.740
 3051DPPC   C1B58305  11.620  14.610  30.950
 3051DPPC   C2B58306  11.560  15.070  31.060
 3051DPPC   C3B58307  11.810  15.460  31.180
 3051DPPC   C4B58308  12.120  15.670  31.280
 3052DPPC   NC358309  25.150  19.710  34.030
 3052DPPC   PO458310  25.290  19.620  34.420
 3052DPPC   GL158311  25.470  20.070  34.310
 3052DPPC   GL258312  25.430  20.320  34.500
 3052DPPC   C1A58313  25.700  20.280  34.030
 3052DPPC   C2A58314  25.940  20.490  33.630
 3052DPPC   C3A58315  26.090  20.870  33.510
 3052DPPC   C4A58316  26.420  21.250  33.650
 3052DPPC   C1B58317  25.830  20.610  34.420
 3052DPPC   C2B58318  26.150  20.670  34.120
 3052DPPC   C3B58319  26.475  20.730  33.840
 3052DPPC   C4B58320  26.585  20.630  33.390
 3053DPPC   NC358321  25.810   7.750  31.260
 3053DPPC   PO458322  26.180   7.510  31.290
 3053DPPC   GL158323  26.380   7.170  31.340
 3053DPPC   GL258324  26.250   6.960  31.160
 3053DPPC   C1A58325  26.625   6.830  31.610
 3053DPPC   C2A58326  26.775   6.480  31.720
 3053DPPC   C3A58327  26.915   6.100  31.610
 3053DPPC   C4A58328  27.065   5.710  31.860
 3053DPPC   C1B58329  26.270   6.640  30.970
 3053DPPC   C2B58330  26.240   6.320  30.650
 3053DPPC   C3B58331  26.110   6.020  30.370
 3053DPPC   C4B58332  25.940   6.090  30.010
 3054DPPC   NC358333  16.780  15.200  39.320
 3054DPPC   PO458334  16.770  15.130  39.860
 3054DPPC   GL158335  16.550  15.060  40.170
 3054DPPC   GL258336  16.360  15.290  40.090
 3054DPPC   C1A58337  16.230  14.950  40.460
 3054DPPC   C2A58338  15.870  14.950  40.750
 3054DPPC   C3A58339  15.400  15.000  40.690
 3054DPPC   C4A58340  15.110  15.400  40.710
 3054DPPC   C1B58341  15.940  15.040  40.100
 3054DPPC   C2B58342  15.650  14.840  40.220
 3054DPPC   C3B58343  15.320  14.600  40.220
 3054DPPC   C4B58344  14.900  14.590  40.120
 3055DPPC   NC358345  24.160  14.690  17.340
 3055DPPC   PO458346  23.860  14.630  17.730
 3055DPPC   GL158347  23.790  14.680  18.100
 3055DPPC   GL258348  23.430  14.690  18.230
 3055DPPC   C1A58349  23.830  14.710  18.600
 3055DPPC   C2A58350  23.670  14.760  18.960
 3055DPPC   C3A58351  23.960  14.550  19.270
 3055DPPC   C4A58352  23.820  14.070  19.520
 3055DPPC   C1B58353  22.990  14.720  18.500
 3055DPPC   C2B58354  22.720  14.820  18.880
 3055DPPC   C3B58355  22.410  14.860  19.220
 3055DPPC   C4B58356  22.050  15.040  19.520
 3056DPPC   NC358357  28.705  10.740  29.040
 3056DPPC   PO458358  28.875  10.300  29.050
 3056DPPC   GL158359  29.405  10.200  29.020
 3056DPPC   GL258360  29.535  10.060  28.810
 3056DPPC   C1A58361  29.735   9.940  29.260
 3056DPPC   C2A58362  30.005   9.770  28.980
 3056DPPC   C3A58363  30.175   9.750  28.650
 3056DPPC   C4A58364  30.345   9.470  28.300
 3056DPPC   C1B58365  29.785  10.090  28.550
 3056DPPC   C2B58366  29.795  10.260  28.140
 3056DPPC   C3B58367  30.195  10.270  27.900
 3056DPPC   C4B58368  30.525  10.370  27.670
 3057DPPC   NC358369  22.560   3.670  29.450
 3057DPPC   PO458370  22.270   3.830  29.820
 3057DPPC   GL158371  22.210   4.260  29.790
 3057DPPC   GL258372  22.400   4.410  29.970
 3057DPPC   C1A58373  22.050   4.660  29.740
 3057DPPC   C2A58374  22.020   5.090  29.840
 3057DPPC   C3A58375  22.030   5.450  29.930
 3057DPPC   C4A58376  22.250   5.730  30.210
 3057DPPC   C1B58377  22.500   4.790  30.010
 3057DPPC   C2B58378  22.750   5.150  29.850
 3057DPPC   C3B58379  23.030   5.510  29.600
 3057DPPC   C4B58380  23.440   5.770  29.520
 3058DPPC   NC358381  11.780  23.090  23.250
 3058DPPC   PO458382  11.890  22.850  22.960
 3058DPPC   GL158383  12.260  22.700  23.150
 3058DPPC   GL258384  12.420  22.710  22.800
 3058DPPC   C1A58385  12.750  22.620  23.160
 3058DPPC   C2A58386  13.030  22.610  22.870
 3058DPPC   C3A58387  13.400  22.660  22.490
 3058DPPC   C4A58388  13.740  22.560  22.200
 3058DPPC   C1B58389  12.660  22.300  22.690
 3058DPPC   C2B58390  13.070  22.250  22.460
 3058DPPC   C3B58391  13.200  22.460  22.080
 3058DPPC   C4B58392  13.440  22.680  21.820
 3059DPPC   NC358393  17.130  18.890  21.850
 3059DPPC   PO458394  17.390  18.540  21.830
 3059DPPC   GL158395  17.220  18.520  21.470
 3059DPPC   GL258396  17.120  18.840  21.360
 3059DPPC   C1A58397  17.070  18.350  21.110
 3059DPPC   C2A58398  16.690  18.320  20.910
 3059DPPC   C3A58399  16.360  18.220  20.730
 3059DPPC   C4A58400  15.980  18.070  20.510
 3059DPPC   C1B58401  16.870  18.920  21.010
 3059DPPC   C2B58402  16.490  18.830  20.830
 3059DPPC   C3B58403  16.360  19.140  20.480
 3059DPPC   C4B58404  16.150  19.440  20.230
 3060DPPC   NC358405  16.550   7.490  27.040
 3060DPPC   PO458406  16.200   7.490  27.140
 3060DPPC   GL158407  16.360   7.960  27.300
 3060DPPC   GL258408  16.570   7.990  27.140
 3060DPPC   C1A58409  16.360   8.420  27.230
 3060DPPC   C2A58410  16.540   8.870  27.350
 3060DPPC   C3A58411  16.710   9.230  27.530
 3060DPPC   C4A58412  16.750   9.440  27.850
 3060DPPC   C1B58413  16.940   8.260  27.170
 3060DPPC   C2B58414  17.290   8.310  27.480
 3060DPPC   C3B58415  17.750   8.310  27.510
 3060DPPC   C4B58416  18.090   8.390  27.400
 3061DPPC   NC358417  14.740  19.880  18.750
 3061DPPC   PO458418  14.630  20.250  18.830
 3061DPPC   GL158419  15.020  20.390  18.920
 3061DPPC   GL258420  15.020  20.820  19.030
 3061DPPC   C1A58421  15.310  20.360  19.310
 3061DPPC   C2A58422  15.710  20.460  19.320
 3061DPPC   C3A58423  16.030  20.600  19.000
 3061DPPC   C4A58424  16.530  20.820  18.940
 3061DPPC   C1B58425  15.410  20.800  19.070
 3061DPPC   C2B58426  15.850  20.980  19.220
 3061DPPC   C3B58427  16.160  20.960  19.600
 3061DPPC   C4B58428  16.280  20.990  20.090
 3062DPPC   NC358429  15.200  15.990  44.250
 3062DPPC   PO458430  14.750  16.030  44.030
 3062DPPC   GL158431  14.970  16.230  43.870
 3062DPPC   GL258432  15.010  16.500  44.050
 3062DPPC   C1A58433  15.090  16.190  43.430
 3062DPPC   C2A58434  15.090  16.060  42.930
 3062DPPC   C3A58435  15.100  15.760  42.610
 3062DPPC   C4A58436  15.380  15.570  42.380
 3062DPPC   C1B58437  15.360  16.590  43.760
 3062DPPC   C2B58438  15.590  16.420  43.460
 3062DPPC   C3B58439  16.000  16.300  43.400
 3062DPPC   C4B58440  16.500  16.440  43.390
 3063DPPC   NC358441  25.710   8.310  28.120
 3063DPPC   PO458442  26.160   8.250  28.240
 3063DPPC   GL158443  26.400   7.900  28.270
 3063DPPC   GL258444  26.645   7.820  28.040
 3063DPPC   C1A58445  26.350   7.330  28.210
 3063DPPC   C2A58446  26.090   6.910  28.380
 3063DPPC   C3A58447  26.260   6.650  28.620
 3063DPPC   C4A58448  26.430   6.230  28.720
 3063DPPC   C1B58449  26.505   7.560  27.670
 3063DPPC   C2B58450  26.300   7.320  27.370
 3063DPPC   C3B58451  26.310   6.840  27.340
 3063DPPC   C4B58452  26.200   6.470  27.620
 3064DPPC   NC358453  29.165   4.080  31.570
 3064DPPC   PO458454  28.875   4.300  31.200
 3064DPPC   GL158455  28.635   4.530  31.330
 3064DPPC   GL258456  28.765   4.600  31.580
 3064DPPC   C1A58457  28.355   4.970  31.250
 3064DPPC   C2A58458  28.245   5.260  31.010
 3064DPPC   C3A58459  28.115   5.630  30.800
 3064DPPC   C4A58460  28.335   6.020  30.810
 3064DPPC   C1B58461  28.735   5.020  31.580
 3064DPPC   C2B58462  28.635   5.420  31.480
 3064DPPC   C3B58463  28.465   5.800  31.330
 3064DPPC   C4B58464  28.645   6.060  31.170
 3065DPPC   NC358465  17.850  24.580  32.990
 3065DPPC   PO458466  18.010  24.650  32.640
 3065DPPC   GL158467  17.930  25.140  32.380
 3065DPPC   GL258468  17.910  25.120  32.100
 3065DPPC   C1A58469  18.000  25.540  32.370
 3065DPPC   C2A58470  17.790  25.950  32.200
 3065DPPC   C3A58471  17.490  26.260  32.240
 3065DPPC   C4A58472  17.290   0.130  32.180
 3065DPPC   C1B58473  17.790  25.480  31.960
 3065DPPC   C2B58474  17.390  25.690  31.880
 3065DPPC   C3B58475  17.120  26.110  31.960
 3065DPPC   C4B58476  16.850  26.430  32.000
 3066DPPC   NC358477  29.415   9.660  22.650
 3066DPPC   PO458478  29.675   9.840  22.960
 3066DPPC   GL158479  29.215   9.740  23.060
 3066DPPC   GL258480  29.025   9.470  23.080
 3066DPPC   C1A58481  29.145   9.870  23.420
 3066DPPC   C2A58482  28.995  10.130  23.760
 3066DPPC   C3A58483  28.665  10.030  24.160
 3066DPPC   C4A58484  28.695   9.910  24.570
 3066DPPC   C1B58485  28.735   9.850  23.050
 3066DPPC   C2B58486  28.705  10.260  23.370
 3066DPPC   C3B58487  28.625  10.540  23.590
 3066DPPC   C4B58488  28.695  10.700  23.960
 3067DPPC   NC358489  29.655  10.320  42.410
 3067DPPC   PO458490  30.075  10.390  42.240
 3067DPPC   GL158491  29.865  10.740  42.050
 3067DPPC   GL258492  29.445  10.760  42.060
 3067DPPC   C1A58493  29.715  11.190  41.960
 3067DPPC   C2A58494  29.545  11.280  41.570
 3067DPPC   C3A58495  29.265  11.420  41.170
 3067DPPC   C4A58496  29.055  11.700  41.300
 3067DPPC   C1B58497  29.405  10.820  41.550
 3067DPPC   C2B58498  29.215  10.970  40.980
 3067DPPC   C3B58499  29.465  11.120  40.530
 3067DPPC   C4B58500  29.885  11.100  40.240
 3068DPPC   NC358501  13.310   1.240  33.530
 3068DPPC   PO458502  13.390   1.200  33.040
 3068DPPC   GL158503  13.470   0.800  33.220
 3068DPPC   GL258504  13.510   0.610  32.910
 3068DPPC   C1A58505  13.820   0.770  33.520
 3068DPPC   C2A58506  14.210   0.810  33.620
 3068DPPC   C3A58507  14.550   0.460  33.730
 3068DPPC   C4A58508  14.380   0.090  34.010
 3068DPPC   C1B58509  13.610   0.200  32.680
 3068DPPC   C2B58510  13.750  26.180  32.610
 3068DPPC   C3B58511  13.960  25.900  32.550
 3068DPPC   C4B58512  14.350  25.680  32.440
 3069DPPC   NC358513  31.245  19.500  38.360
 3069DPPC   PO458514  31.265  19.550  38.810
 3069DPPC   GL158515  30.825  19.440  38.750
 3069DPPC   GL258516  30.805  19.550  38.540
 3069DPPC   C1A58517  30.395  19.410  38.720
 3069DPPC   C2A58518  30.025  19.460  38.840
 3069DPPC   C3A58519  29.625  19.340  38.890
 3069DPPC   C4A58520  29.485  19.140  38.530
 3069DPPC   C1B58521  30.595  19.610  38.190
 3069DPPC   C2B58522  30.195  19.710  38.350
 3069DPPC   C3B58523  29.815  19.640  38.350
 3069DPPC   C4B58524  29.455  19.850  38.270
 3070DPPC   NC358525  23.380  16.770  32.510
 3070DPPC   PO458526  22.990  16.680  32.210
 3070DPPC   GL158527  23.150  16.950  31.780
 3070DPPC   GL258528  23.200  16.740  31.530
 3070DPPC   C1A58529  23.200  17.290  31.520
 3070DPPC   C2A58530  23.550  17.450  31.260
 3070DPPC   C3A58531  23.700  17.310  30.840
 3070DPPC   C4A58532  23.820  16.960  30.410
 3070DPPC   C1B58533  23.170  16.960  31.130
 3070DPPC   C2B58534  23.170  17.170  30.740
 3070DPPC   C3B58535  23.340  17.070  30.350
 3070DPPC   C4B58536  23.370  17.150  29.980
 3071DPPC   NC358537  25.970   4.050  27.650
 3071DPPC   PO458538  26.475   4.050  27.780
 3071DPPC   GL158539  26.565   4.430  27.960
 3071DPPC   GL258540  26.635   4.320  28.300
 3071DPPC   C1A58541  26.695   4.810  27.950
 3071DPPC   C2A58542  26.515   5.230  27.950
 3071DPPC   C3A58543  26.330   5.630  27.740
 3071DPPC   C4A58544  26.310   6.000  27.790
 3071DPPC   C1B58545  26.410   4.680  28.420
 3071DPPC   C2B58546  26.350   5.080  28.480
 3071DPPC   C3B58547  26.270   5.430  28.620
 3071DPPC   C4B58548  26.200   5.810  28.860
 3072DPPC   NC358549  14.420  19.880  44.830
 3072DPPC   PO458550  14.750  20.130  44.670
 3072DPPC   GL158551  14.990  19.990  44.300
 3072DPPC   GL258552  14.920  19.780  44.120
 3072DPPC   C1A58553  15.370  19.920  44.030
 3072DPPC   C2A58554  15.630  20.030  43.870
 3072DPPC   C3A58555  15.970  19.930  43.550
 3072DPPC   C4A58556  16.330  19.930  43.320
 3072DPPC   C1B58557  15.070  19.620  43.760
 3072DPPC   C2B58558  15.190  19.250  43.420
 3072DPPC   C3B58559  15.360  19.120  42.910
 3072DPPC   C4B58560  15.340  19.090  42.500
 3073DPPC   NC358561  16.600   8.370  25.210
 3073DPPC   PO458562  16.630   7.970  25.400
 3073DPPC   GL158563  16.850   8.260  25.710
 3073DPPC   GL258564  16.890   8.590  25.610
 3073DPPC   C1A58565  17.260   8.150  25.890
 3073DPPC   C2A58566  17.510   8.260  26.180
 3073DPPC   C3A58567  17.600   8.000  26.560
 3073DPPC   C4A58568  17.370   7.600  26.520
 3073DPPC   C1B58569  16.990   8.980  25.420
 3073DPPC   C2B58570  17.160   9.370  25.330
 3073DPPC   C3B58571  17.440   9.680  25.550
 3073DPPC   C4B58572  17.800  10.000  25.520
 3074DPPC   NC358573  26.515  12.280  24.260
 3074DPPC   PO458574  26.140  12.090  24.090
 3074DPPC   GL158575  26.430  12.010  23.850
 3074DPPC   GL258576  26.815  12.240  23.890
 3074DPPC   C1A58577  26.605  12.100  23.530
 3074DPPC   C2A58578  26.595  12.010  23.060
 3074DPPC   C3A58579  26.795  11.660  22.860
 3074DPPC   C4A58580  26.815  11.620  22.480
 3074DPPC   C1B58581  27.175  12.110  23.640
 3074DPPC   C2B58582  27.525  11.910  23.360
 3074DPPC   C3B58583  27.585  11.630  22.950
 3074DPPC   C4B58584  27.775  11.680  22.620
 3075DPPC   NC358585  18.630  14.240  41.060
 3075DPPC   PO458586  18.360  14.470  40.820
 3075DPPC   GL158587  17.890  14.460  40.830
 3075DPPC   GL258588  17.690  14.160  40.660
 3075DPPC   C1A58589  17.590  14.490  41.010
 3075DPPC   C2A58590  17.440  14.680  41.300
 3075DPPC   C3A58591  17.320  14.500  41.650
 3075DPPC   C4A58592  17.250  14.300  42.040
 3075DPPC   C1B58593  17.580  13.880  41.100
 3075DPPC   C2B58594  17.420  13.860  41.540
 3075DPPC   C3B58595  17.270  13.430  41.640
 3075DPPC   C4B58596  16.860  13.240  41.780
 3076DPPC   NC358597  31.095  13.870  23.110
 3076DPPC   PO458598  31.305  13.480  23.350
 3076DPPC   GL158599  30.945  13.770  23.630
 3076DPPC   GL258600  31.045  13.920  23.850
 3076DPPC   C1A58601  30.485  13.910  23.600
 3076DPPC   C2A58602  30.075  13.860  23.660
 3076DPPC   C3A58603  29.685  14.050  23.510
 3076DPPC   C4A58604  29.405  13.910  23.850
 3076DPPC   C1B58605  31.045  14.360  24.030
 3076DPPC   C2B58606  30.925  14.780  23.960
 3076DPPC   C3B58607  30.745  15.000  24.180
 3076DPPC   C4B58608  30.445  15.180  24.360
 3077DPPC   NC358609  19.840   5.450  25.390
 3077DPPC   PO458610  20.240   5.730  25.340
 3077DPPC   GL158611  20.530   6.100  25.290
 3077DPPC   GL258612  20.860   6.090  25.430
 3077DPPC   C1A58613  20.710   6.620  25.430
 3077DPPC   C2A58614  20.820   7.000  25.580
 3077DPPC   C3A58615  20.890   7.410  25.580
 3077DPPC   C4A58616  21.340   7.440  25.510
 3077DPPC   C1B58617  20.930   6.290  25.790
 3077DPPC   C2B58618  20.900   6.720  26.030
 3077DPPC   C3B58619  21.090   6.860  26.350
 3077DPPC   C4B58620  21.390   6.840  26.630
 3078DPPC   NC358621  31.315   5.770  34.390
 3078DPPC   PO458622  31.155   5.980  34.730
 3078DPPC   GL158623  30.775   6.240  34.680
 3078DPPC   GL258624  30.585   6.500  34.910
 3078DPPC   C1A58625  30.335   6.110  34.800
 3078DPPC   C2A58626  30.045   6.290  34.530
 3078DPPC   C3A58627  29.775   6.520  34.330
 3078DPPC   C4A58628  29.545   6.650  33.950
 3078DPPC   C1B58629  30.465   6.530  34.470
 3078DPPC   C2B58630  30.165   6.820  34.260
 3078DPPC   C3B58631  29.765   7.040  34.250
 3078DPPC   C4B58632  29.425   7.350  34.480
 3079DPPC   NC358633  17.280  25.590  42.250
 3079DPPC   PO458634  17.700  25.620  42.440
 3079DPPC   GL158635  18.020  25.350  42.120
 3079DPPC   GL258636  18.050  25.080  42.220
 3079DPPC   C1A58637  18.490  25.240  42.030
 3079DPPC   C2A58638  18.730  25.080  41.790
 3079DPPC   C3A58639  19.050  24.690  41.690
 3079DPPC   C4A58640  19.020  24.350  41.410
 3079DPPC   C1B58641  18.260  24.720  42.460
 3079DPPC   C2B58642  18.430  24.400  42.270
 3079DPPC   C3B58643  18.580  24.080  42.030
 3079DPPC   C4B58644  18.580  24.160  41.620
 3080DPPC   NC358645  21.310  23.600  45.100
 3080DPPC   PO458646  20.970  23.500  44.760
 3080DPPC   GL158647  20.800  23.050  44.460
 3080DPPC   GL258648  20.840  22.740  44.600
 3080DPPC   C1A58649  20.560  22.980  44.040
 3080DPPC   C2A58650  20.650  22.550  43.700
 3080DPPC   C3A58651  20.820  22.250  43.470
 3080DPPC   C4A58652  21.020  21.890  43.440
 3080DPPC   C1B58653  21.020  22.670  44.130
 3080DPPC   C2B58654  21.190  22.380  43.750
 3080DPPC   C3B58655  21.490  22.160  43.440
 3080DPPC   C4B58656  21.620  21.760  43.430
 3081DPPC   NC358657  24.580   5.540  23.650
 3081DPPC   PO458658  24.980   5.490  23.370
 3081DPPC   GL158659  25.110   5.510  23.810
 3081DPPC   GL258660  24.860   5.480  24.030
 3081DPPC   C1A58661  25.240   5.590  24.260
 3081DPPC   C2A58662  25.110   5.760  24.590
 3081DPPC   C3A58663  25.210   6.010  24.960
 3081DPPC   C4A58664  25.310   6.340  25.120
 3081DPPC   C1B58665  24.690   5.460  24.450
 3081DPPC   C2B58666  24.700   5.470  24.750
 3081DPPC   C3B58667  24.540   5.530  25.190
 3081DPPC   C4B58668  24.570   5.630  25.580
 3082DPPC   NC358669  11.490  24.290  37.940
 3082DPPC   PO458670  11.940  24.390  37.950
 3082DPPC   GL158671  12.140  24.200  37.600
 3082DPPC   GL258672  12.220  23.870  37.620
 3082DPPC   C1A58673  12.590  24.400  37.340
 3082DPPC   C2A58674  12.910  24.110  37.170
 3082DPPC   C3A58675  13.290  23.930  37.400
 3082DPPC   C4A58676  13.150  23.540  37.580
 3082DPPC   C1B58677  12.380  23.910  37.190
 3082DPPC   C2B58678  12.220  24.260  36.940
 3082DPPC   C3B58679  12.180  24.370  36.500
 3082DPPC   C4B58680  12.150  24.490  36.150
 3083DPPC   NC358681  21.620   9.280  29.170
 3083DPPC   PO458682  21.780   8.890  29.280
 3083DPPC   GL158683  21.460   8.690  29.010
 3083DPPC   GL258684  21.520   8.480  28.740
 3083DPPC   C1A58685  21.200   8.180  28.990
 3083DPPC   C2A58686  21.180   7.690  28.870
 3083DPPC   C3A58687  20.990   7.500  28.550
 3083DPPC   C4A58688  20.660   7.320  28.380
 3083DPPC   C1B58689  21.580   8.030  28.500
 3083DPPC   C2B58690  21.440   7.660  28.340
 3083DPPC   C3B58691  21.210   7.300  28.190
 3083DPPC   C4B58692  21.360   7.080  27.900
 3084DPPC   NC358693  20.010   4.140  30.940
 3084DPPC   PO458694  19.840   4.440  31.120
 3084DPPC   GL158695  19.940   4.880  31.200
 3084DPPC   GL258696  19.930   5.070  31.060
 3084DPPC   C1A58697  20.240   5.320  31.450
 3084DPPC   C2A58698  20.500   5.700  31.540
 3084DPPC   C3A58699  20.360   6.180  31.680
 3084DPPC   C4A58700  20.630   6.520  31.660
 3084DPPC   C1B58701  19.840   5.510  31.170
 3084DPPC   C2B58702  20.020   5.860  31.400
 3084DPPC   C3B58703  19.910   6.310  31.490
 3084DPPC   C4B58704  19.690   6.720  31.440
 3085DPPC   NC358705  31.935  12.850  40.790
 3085DPPC   PO458706  32.185  12.660  40.440
 3085DPPC   GL158707  31.745  12.660  40.210
 3085DPPC   GL258708  31.685  12.390  40.120
 3085DPPC   C1A58709  31.535  13.070  40.120
 3085DPPC   C2A58710  31.265  13.420  39.970
 3085DPPC   C3A58711  31.175  13.760  39.890
 3085DPPC   C4A58712  31.065  14.180  39.670
 3085DPPC   C1B58713  31.435  12.610  39.810
 3085DPPC   C2B58714  31.235  12.920  39.610
 3085DPPC   C3B58715  31.125  13.360  39.470
 3085DPPC   C4B58716  31.015  13.800  39.310
 3086DPPC   NC358717  13.370   9.290  34.170
 3086DPPC   PO458718  13.770   9.310  33.950
 3086DPPC   GL158719  14.170   9.270  34.100
 3086DPPC   GL258720  14.160   9.540  34.340
 3086DPPC   C1A58721  14.530   9.510  34.030
 3086DPPC   C2A58722  14.480   9.960  33.890
 3086DPPC   C3A58723  14.880  10.260  33.860
 3086DPPC   C4A58724  15.380  10.310  33.770
 3086DPPC   C1B58725  14.150  10.070  34.240
 3086DPPC   C2B58726  14.220  10.450  33.990
 3086DPPC   C3B58727  14.480  10.430  33.590
 3086DPPC   C4B58728  14.700  10.830  33.750
 3087DPPC   NC358729  26.625   8.290  29.100
 3087DPPC   PO458730  27.065   8.310  28.980
 3087DPPC   GL158731  27.495   7.990  29.180
 3087DPPC   GL258732  27.775   8.040  29.330
 3087DPPC   C1A58733  27.465   7.560  29.070
 3087DPPC   C2A58734  27.625   7.070  28.910
 3087DPPC   C3A58735  27.945   6.930  28.710
 3087DPPC   C4A58736  28.025   7.000  28.350
 3087DPPC   C1B58737  28.065   7.790  29.110
 3087DPPC   C2B58738  28.285   7.770  28.660
 3087DPPC   C3B58739  28.755   7.840  28.620
 3087DPPC   C4B58740  29.035   7.610  28.360
 3088DPPC   NC358741  13.170  10.570  27.400
 3088DPPC   PO458742  13.210  10.440  27.850
 3088DPPC   GL158743  13.530  10.650  28.130
 3088DPPC   GL258744  13.460  10.930  28.210
 3088DPPC   C1A58745  13.980  10.520  28.200
 3088DPPC   C2A58746  14.360  10.590  28.470
 3088DPPC   C3A58747  14.860  10.720  28.630
 3088DPPC   C4A58748  15.160  10.960  28.630
 3088DPPC   C1B58749  13.530  10.860  28.610
 3088DPPC   C2B58750  13.560  11.170  28.930
 3088DPPC   C3B58751  13.990  11.390  29.070
 3088DPPC   C4B58752  14.330  11.590  29.170
 3089DPPC   NC358753  16.950  12.130  27.590
 3089DPPC   PO458754  17.050  12.410  27.240
 3089DPPC   GL158755  16.640  12.510  27.380
 3089DPPC   GL258756  16.450  12.300  27.680
 3089DPPC   C1A58757  16.360  12.140  27.170
 3089DPPC   C2A58758  16.220  11.710  27.220
 3089DPPC   C3A58759  15.840  11.460  27.290
 3089DPPC   C4A58760  15.800  11.140  27.560
 3089DPPC   C1B58761  16.250  11.900  27.770
 3089DPPC   C2B58762  15.860  11.660  27.700
 3089DPPC   C3B58763  15.450  11.680  27.710
 3089DPPC   C4B58764  15.070  11.570  27.850
 3090DPPC   NC358765  27.065  18.190  46.490
 3090DPPC   PO458766  27.255  17.990  46.080
 3090DPPC   GL158767  26.855  17.820  45.840
 3090DPPC   GL258768  26.915  17.850  45.560
 3090DPPC   C1A58769  26.495  17.580  45.600
 3090DPPC   C2A58770  26.110  17.640  45.690
 3090DPPC   C3A58771  25.780  17.850  45.730
 3090DPPC   C4A58772  25.390  17.970  45.480
 3090DPPC   C1B58773  27.185  17.750  45.200
 3090DPPC   C2B58774  27.085  17.470  44.840
 3090DPPC   C3B58775  26.975  17.140  44.630
 3090DPPC   C4B58776  27.135  16.690  44.510
 3091DPPC   NC358777  27.725  22.690  43.500
 3091DPPC   PO458778  27.325  22.440  43.480
 3091DPPC   GL158779  27.095  22.060  43.480
 3091DPPC   GL258780  26.955  21.860  43.810
 3091DPPC   C1A58781  26.665  21.950  43.300
 3091DPPC   C2A58782  26.240  21.870  43.270
 3091DPPC   C3A58783  26.010  21.860  42.880
 3091DPPC   C4A58784  25.950  21.660  42.470
 3091DPPC   C1B58785  26.905  21.420  43.600
 3091DPPC   C2B58786  26.655  21.080  43.680
 3091DPPC   C3B58787  26.465  20.740  43.600
 3091DPPC   C4B58788  26.685  20.420  43.400
 3092DPPC   NC358789  21.230  19.140  21.800
 3092DPPC   PO458790  21.080  19.470  21.740
 3092DPPC   GL158791  21.350  19.730  21.660
 3092DPPC   GL258792  21.510  19.450  21.510
 3092DPPC   C1A58793  21.370  20.070  21.470
 3092DPPC   C2A58794  21.360  20.260  21.110
 3092DPPC   C3A58795  21.480  20.460  20.630
 3092DPPC   C4A58796  21.630  20.750  20.420
 3092DPPC   C1B58797  21.490  19.720  21.140
 3092DPPC   C2B58798  21.900  19.800  21.070
 3092DPPC   C3B58799  22.170  19.890  20.790
 3092DPPC   C4B58800  22.470  19.940  20.460
 3093DPPC   NC358801  14.990  18.130  18.720
 3093DPPC   PO458802  14.900  17.760  18.930
 3093DPPC   GL158803  15.100  17.600  19.330
 3093DPPC   GL258804  14.840  17.430  19.550
 3093DPPC   C1A58805  15.390  17.460  19.740
 3093DPPC   C2A58806  15.550  17.730  20.040
 3093DPPC   C3A58807  15.760  18.040  19.990
 3093DPPC   C4A58808  16.150  18.230  20.060
 3093DPPC   C1B58809  14.940  17.440  20.020
 3093DPPC   C2B58810  15.170  17.330  20.430
 3093DPPC   C3B58811  15.580  17.520  20.500
 3093DPPC   C4B58812  16.020  17.550  20.300
 3094DPPC   NC358813  10.000  22.610  34.550
 3094DPPC   PO458814   9.920  22.170  34.680
 3094DPPC   GL158815  10.320  22.060  34.600
 3094DPPC   GL258816  10.480  21.960  34.290
 3094DPPC   C1A58817  10.760  21.740  34.660
 3094DPPC   C2A58818  11.270  21.810  34.660
 3094DPPC   C3A58819  11.640  21.630  34.510
 3094DPPC   C4A58820  11.980  21.770  34.130
 3094DPPC   C1B58821  10.620  22.190  33.950
 3094DPPC   C2B58822  10.380  22.230  33.700
 3094DPPC   C3B58823  10.400  22.240  33.340
 3094DPPC   C4B58824  10.710  22.030  33.070
 3095DPPC   NC358825   8.970  18.390  34.420
 3095DPPC   PO458826   9.400  18.340  34.510
 3095DPPC   GL158827   9.760  18.410  34.190
 3095DPPC   GL258828   9.920  18.270  34.490
 3095DPPC   C1A58829  10.130  18.390  34.070
 3095DPPC   C2A58830  10.580  18.490  34.060
 3095DPPC   C3A58831  10.980  18.450  34.210
 3095DPPC   C4A58832  11.410  18.420  33.980
 3095DPPC   C1B58833  10.190  18.510  34.750
 3095DPPC   C2B58834  10.320  18.830  34.990
 3095DPPC   C3B58835  10.300  19.010  35.390
 3095DPPC   C4B58836  10.220  19.260  35.800
 3096DPPC   NC358837  24.880  18.600  28.200
 3096DPPC   PO458838  25.060  18.120  28.370
 3096DPPC   GL158839  25.120  18.490  28.740
 3096DPPC   GL258840  25.000  18.740  28.700
 3096DPPC   C1A58841  25.490  18.740  28.690
 3096DPPC   C2A58842  25.800  19.060  28.930
 3096DPPC   C3A58843  25.880  19.350  29.290
 3096DPPC   C4A58844  25.520  19.710  29.550
 3096DPPC   C1B58845  25.230  18.800  29.140
 3096DPPC   C2B58846  25.370  19.040  29.430
 3096DPPC   C3B58847  25.560  19.290  29.850
 3096DPPC   C4B58848  25.790  19.210  30.310
 3097DPPC   NC358849  16.100  13.580  28.320
 3097DPPC   PO458850  16.330  13.540  28.060
 3097DPPC   GL158851  15.910  13.410  27.880
 3097DPPC   GL258852  15.550  13.590  27.890
 3097DPPC   C1A58853  15.640  13.140  27.630
 3097DPPC   C2A58854  15.290  12.780  27.730
 3097DPPC   C3A58855  14.950  12.460  27.630
 3097DPPC   C4A58856  14.960  11.990  27.410
 3097DPPC   C1B58857  15.250  13.330  27.880
 3097DPPC   C2B58858  14.790  13.240  27.900
 3097DPPC   C3B58859  14.330  13.350  27.730
 3097DPPC   C4B58860  14.080  13.010  27.580
 3098DPPC   NC358861  13.150  20.130  27.950
 3098DPPC   PO458862  13.190  20.210  28.350
 3098DPPC   GL158863  12.680  20.210  28.180
 3098DPPC   GL258864  12.670  19.880  27.970
 3098DPPC   C1A58865  12.230  20.240  28.200
 3098DPPC   C2A58866  11.870  20.490  28.400
 3098DPPC   C3A58867  11.620  20.850  28.370
 3098DPPC   C4A58868  11.190  20.920  28.240
 3098DPPC   C1B58869  12.520  19.730  27.590
 3098DPPC   C2B58870  12.150  19.660  27.360
 3098DPPC   C3B58871  11.850  19.560  27.050
 3098DPPC   C4B58872  11.430  19.330  27.180
 3099DPPC   NC358873  29.885  16.440  44.460
 3099DPPC   PO458874  29.835  16.400  43.970
 3099DPPC   GL158875  29.555  16.380  43.690
 3099DPPC   GL258876  29.245  16.430  43.890
 3099DPPC   C1A58877  29.155  16.420  43.390
 3099DPPC   C2A58878  29.015  16.180  43.020
 3099DPPC   C3A58879  29.065  15.730  43.040
 3099DPPC   C4A58880  29.175  15.440  43.420
 3099DPPC   C1B58881  28.855  16.670  43.740
 3099DPPC   C2B58882  28.795  16.740  43.320
 3099DPPC   C3B58883  28.695  16.620  42.930
 3099DPPC   C4B58884  28.455  16.730  42.580
 3100DPPC   NC358885  24.270  19.230  18.320
 3100DPPC   PO458886  23.960  19.200  18.200
 3100DPPC   GL158887  23.740  19.250  18.510
 3100DPPC   GL258888  23.960  19.410  18.720
 3100DPPC   C1A58889  23.510  18.930  18.760
 3100DPPC   C2A58890  23.300  18.450  18.970
 3100DPPC   C3A58891  23.170  18.230  19.270
 3100DPPC   C4A58892  23.390  18.090  19.640
 3100DPPC   C1B58893  23.820  19.530  19.140
 3100DPPC   C2B58894  23.600  19.490  19.520
 3100DPPC   C3B58895  23.260  19.440  19.690
 3100DPPC   C4B58896  23.140  19.340  20.170
 3101DPPC   NC358897  23.320   3.610  27.030
 3101DPPC   PO458898  23.100   3.660  27.380
 3101DPPC   GL158899  23.480   3.970  27.410
 3101DPPC   GL258900  23.220   4.190  27.580
 3101DPPC   C1A58901  23.660   4.320  27.250
 3101DPPC   C2A58902  23.700   4.900  27.110
 3101DPPC   C3A58903  23.740   5.400  27.240
 3101DPPC   C4A58904  23.860   5.670  27.550
 3101DPPC   C1B58905  23.600   4.470  27.790
 3101DPPC   C2B58906  23.790   4.720  28.090
 3101DPPC   C3B58907  23.720   4.960  28.510
 3101DPPC   C4B58908  23.740   5.030  28.960
 3102DPPC   NC358909  14.460  25.440  40.190
 3102DPPC   PO458910  14.400  25.090  40.470
 3102DPPC   GL158911  14.490  24.700  40.280
 3102DPPC   GL258912  14.820  24.780  40.180
 3102DPPC   C1A58913  14.560  24.290  40.190
 3102DPPC   C2A58914  14.750  24.040  39.820
 3102DPPC   C3A58915  14.680  23.770  39.410
 3102DPPC   C4A58916  14.320  23.590  39.230
 3102DPPC   C1B58917  15.220  24.360  40.320
 3102DPPC   C2B58918  15.590  24.070  40.190
 3102DPPC   C3B58919  15.970  23.900  39.960
 3102DPPC   C4B58920  16.330  23.880  39.800
 3103DPPC   NC358921  11.050  15.410  38.220
 3103DPPC   PO458922  11.010  15.700  37.980
 3103DPPC   GL158923  11.300  15.640  37.750
 3103DPPC   GL258924  11.200  15.770  37.480
 3103DPPC   C1A58925  11.670  15.430  37.760
 3103DPPC   C2A58926  11.990  15.390  37.600
 3103DPPC   C3A58927  12.420  15.300  37.530
 3103DPPC   C4A58928  12.830  15.050  37.450
 3103DPPC   C1B58929  11.510  15.430  37.270
 3103DPPC   C2B58930  11.580  15.390  36.830
 3103DPPC   C3B58931  11.780  15.240  36.470
 3103DPPC   C4B58932  12.170  15.180  36.400
 3104DPPC   NC358933  26.565  21.520  21.220
 3104DPPC   PO458934  26.190  21.610  21.110
 3104DPPC   GL158935  25.980  21.450  21.560
 3104DPPC   GL258936  25.620  21.440  21.470
 3104DPPC   C1A58937  25.810  21.260  21.910
 3104DPPC   C2A58938  25.720  20.950  22.320
 3104DPPC   C3A58939  25.700  20.560  22.590
 3104DPPC   C4A58940  25.210  20.500  22.770
 3104DPPC   C1B58941  25.690  21.010  21.350
 3104DPPC   C2B58942  25.890  20.740  21.000
 3104DPPC   C3B58943  25.980  20.300  20.880
 3104DPPC   C4B58944  25.910  19.850  20.830
 3105DPPC   NC358945  14.570   1.690  31.220
 3105DPPC   PO458946  14.320   1.540  31.510
 3105DPPC   GL158947  14.640   1.340  31.780
 3105DPPC   GL258948  14.840   1.330  31.620
 3105DPPC   C1A58949  14.810   0.920  31.890
 3105DPPC   C2A58950  15.140   0.700  32.010
 3105DPPC   C3A58951  15.330   0.460  31.650
 3105DPPC   C4A58952  15.550   0.450  31.260
 3105DPPC   C1B58953  15.090   1.200  31.320
 3105DPPC   C2B58954  15.380   0.970  31.190
 3105DPPC   C3B58955  15.380   0.790  30.790
 3105DPPC   C4B58956  15.680   0.390  30.600
 3106DPPC   NC358957  27.585  14.940  25.960
 3106DPPC   PO458958  28.055  14.760  26.140
 3106DPPC   GL158959  28.165  15.050  25.780
 3106DPPC   GL258960  28.215  15.400  25.880
 3106DPPC   C1A58961  28.425  15.130  25.480
 3106DPPC   C2A58962  28.815  15.230  25.350
 3106DPPC   C3A58963  28.985  15.620  25.570
 3106DPPC   C4A58964  28.825  16.110  25.560
 3106DPPC   C1B58965  28.605  15.320  25.900
 3106DPPC   C2B58966  28.995  15.390  25.980
 3106DPPC   C3B58967  29.285  15.590  26.150
 3106DPPC   C4B58968  29.715  15.640  26.350
 3107DPPC   NC358969  32.465  16.750  28.030
 3107DPPC   PO458970  32.405  17.270  28.130
 3107DPPC   GL158971  32.065  17.060  28.060
 3107DPPC   GL258972  31.905  16.810  27.910
 3107DPPC   C1A58973  31.615  17.180  28.000
 3107DPPC   C2A58974  31.185  17.100  27.890
 3107DPPC   C3A58975  31.105  16.780  27.540
 3107DPPC   C4A58976  30.805  16.730  27.230
 3107DPPC   C1B58977  31.455  16.640  28.050
 3107DPPC   C2B58978  31.035  16.670  28.090
 3107DPPC   C3B58979  30.745  16.880  27.900
 3107DPPC   C4B58980  30.515  16.660  27.620
 3108DPPC   NC358981  20.730   3.730  29.770
 3108DPPC   PO458982  20.850   4.130  29.920
 3108DPPC   GL158983  21.030   4.550  29.890
 3108DPPC   GL258984  21.250   4.530  29.880
 3108DPPC   C1A58985  21.100   4.890  29.570
 3108DPPC   C2A58986  21.010   5.140  29.350
 3108DPPC   C3A58987  20.600   5.290  29.360
 3108DPPC   C4A58988  20.270   5.590  29.320
 3108DPPC   C1B58989  21.560   4.910  29.860
 3108DPPC   C2B58990  21.610   5.410  29.740
 3108DPPC   C3B58991  21.520   5.880  29.690
 3108DPPC   C4B58992  21.720   6.130  29.420
 3109DPPC   NC358993  25.380  17.730  22.980
 3109DPPC   PO458994  25.710  17.420  23.050
 3109DPPC   GL158995  26.030  17.690  23.020
 3109DPPC   GL258996  25.820  17.810  22.680
 3109DPPC   C1A58997  26.200  18.000  23.360
 3109DPPC   C2A58998  26.505  18.190  23.220
 3109DPPC   C3A58999  26.835  18.520  23.120
 3109DPPC   C4A59000  27.195  18.530  22.840
 3109DPPC   C1B59001  26.040  18.000  22.340
 3109DPPC   C2B59002  26.160  17.890  21.950
 3109DPPC   C3B59003  25.950  17.820  21.570
 3109DPPC   C4B59004  25.530  17.910  21.360
 3110DPPC   NC359005  14.480  16.810  26.610
 3110DPPC   PO459006  14.470  17.260  26.340
 3110DPPC   GL159007  14.120  17.170  26.010
 3110DPPC   GL259008  14.180  16.850  26.150
 3110DPPC   C1A59009  13.850  17.140  25.610
 3110DPPC   C2A59010  13.770  17.160  25.210
 3110DPPC   C3A59011  13.510  17.090  24.820
 3110DPPC   C4A59012  13.100  17.130  24.500
 3110DPPC   C1B59013  13.790  16.710  25.950
 3110DPPC   C2B59014  13.300  16.580  25.880
 3110DPPC   C3B59015  12.830  16.370  25.800
 3110DPPC   C4B59016  12.470  16.440  25.620
 3111DPPC   NC359017  16.030  23.820  29.340
 3111DPPC   PO459018  16.020  23.930  29.850
 3111DPPC   GL159019  15.840  24.260  29.650
 3111DPPC   GL259020  15.630  24.370  29.360
 3111DPPC   C1A59021  15.690  24.620  29.850
 3111DPPC   C2A59022  15.490  24.980  29.690
 3111DPPC   C3A59023  15.500  25.460  29.680
 3111DPPC   C4A59024  15.790  25.870  29.550
 3111DPPC   C1B59025  15.330  24.770  29.240
 3111DPPC   C2B59026  15.130  25.180  29.270
 3111DPPC   C3B59027  14.880  25.580  29.330
 3111DPPC   C4B59028  15.260  25.870  29.530
 3112DPPC   NC359029  20.900  23.290  38.210
 3112DPPC   PO459030  20.720  23.250  37.810
 3112DPPC   GL159031  20.990  23.600  37.770
 3112DPPC   GL259032  20.950  23.800  37.450
 3112DPPC   C1A59033  21.160  23.950  38.050
 3112DPPC   C2A59034  21.280  24.360  38.230
 3112DPPC   C3A59035  21.440  24.410  38.490
 3112DPPC   C4A59036  21.710  24.630  38.470
 3112DPPC   C1B59037  21.220  24.110  37.480
 3112DPPC   C2B59038  21.480  24.470  37.370
 3112DPPC   C3B59039  21.750  24.840  37.410
 3112DPPC   C4B59040  22.100  25.070  37.520
 3113DPPC   NC359041  23.330   0.080  40.040
 3113DPPC   PO459042  23.300  26.150  40.290
 3113DPPC   GL159043  23.090  26.030  39.940
 3113DPPC   GL259044  23.270  25.970  39.680
 3113DPPC   C1A59045  22.800  25.720  39.830
 3113DPPC   C2A59046  22.530  25.300  39.790
 3113DPPC   C3A59047  22.120  25.180  39.790
 3113DPPC   C4A59048  21.770  25.200  40.140
 3113DPPC   C1B59049  23.220  25.630  39.490
 3113DPPC   C2B59050  23.190  25.320  39.160
 3113DPPC   C3B59051  23.110  24.880  38.990
 3113DPPC   C4B59052  23.230  24.540  38.770
 3114DPPC   NC359053  23.670  19.660  18.220
 3114DPPC   PO459054  24.100  19.740  18.330
 3114DPPC   GL159055  23.840  19.930  18.650
 3114DPPC   GL259056  24.050  19.910  18.870
 3114DPPC   C1A59057  23.630  20.070  19.120
 3114DPPC   C2A59058  23.630  20.400  19.490
 3114DPPC   C3A59059  23.350  20.420  19.840
 3114DPPC   C4A59060  23.400  20.320  20.320
 3114DPPC   C1B59061  24.120  19.970  19.320
 3114DPPC   C2B59062  23.830  19.950  19.610
 3114DPPC   C3B59063  23.850  20.090  20.030
 3114DPPC   C4B59064  23.910  19.850  20.370
 3115DPPC   NC359065  32.995  16.740  34.230
 3115DPPC   PO459066  32.905  17.130  34.020
 3115DPPC   GL159067  32.555  17.000  33.850
 3115DPPC   GL259068  32.335  17.080  33.990
 3115DPPC   C1A59069  32.235  16.670  33.810
 3115DPPC   C2A59070  31.895  16.550  33.710
 3115DPPC   C3A59071  31.565  16.320  33.710
 3115DPPC   C4A59072  31.235  16.160  33.880
 3115DPPC   C1B59073  31.905  17.000  34.210
 3115DPPC   C2B59074  31.705  16.820  34.480
 3115DPPC   C3B59075  31.475  16.930  34.900
 3115DPPC   C4B59076  31.485  17.290  35.080
 3116DPPC   NC359077  21.050  24.070  30.400
 3116DPPC   PO459078  21.120  24.210  30.790
 3116DPPC   GL159079  21.120  24.610  30.900
 3116DPPC   GL259080  21.000  24.700  31.220
 3116DPPC   C1A59081  21.340  25.040  30.880
 3116DPPC   C2A59082  21.490  25.410  31.000
 3116DPPC   C3A59083  21.890  25.550  31.190
 3116DPPC   C4A59084  22.050  25.800  31.430
 3116DPPC   C1B59085  21.270  25.000  31.350
 3116DPPC   C2B59086  21.620  25.350  31.540
 3116DPPC   C3B59087  21.830  25.590  31.770
 3116DPPC   C4B59088  22.250  25.690  31.900
 3117DPPC   NC359089  26.280  16.920  24.690
 3117DPPC   PO459090  25.980  16.950  24.360
 3117DPPC   GL159091  26.080  17.290  24.040
 3117DPPC   GL259092  26.150  17.240  23.740
 3117DPPC   C1A59093  26.535  17.420  24.020
 3117DPPC   C2A59094  26.795  17.580  23.680
 3117DPPC   C3A59095  27.185  17.560  23.640
 3117DPPC   C4A59096  27.325  17.310  23.440
 3117DPPC   C1B59097  26.350  17.480  23.460
 3117DPPC   C2B59098  26.525  17.630  23.260
 3117DPPC   C3B59099  26.865  17.870  23.260
 3117DPPC   C4B59100  26.965  18.070  22.930
 3118DPPC   NC359101  24.870   0.320  29.680
 3118DPPC   PO459102  24.390   0.230  29.550
 3118DPPC   GL159103  24.200  26.340  29.740
 3118DPPC   GL259104  24.300  26.060  29.730
 3118DPPC   C1A59105  23.800  26.060  29.760
 3118DPPC   C2A59106  23.550  25.680  29.950
 3118DPPC   C3A59107  23.380  25.250  30.060
 3118DPPC   C4A59108  23.310  25.070  30.450
 3118DPPC   C1B59109  24.130  25.600  29.760
 3118DPPC   C2B59110  23.740  25.320  29.740
 3118DPPC   C3B59111  23.470  24.950  29.630
 3118DPPC   C4B59112  23.140  24.870  29.870
 3119DPPC   NC359113  10.880  14.060  29.880
 3119DPPC   PO459114  11.440  14.070  29.840
 3119DPPC   GL159115  11.860  13.930  29.860
 3119DPPC   GL259116  11.950  14.050  29.580
 3119DPPC   C1A59117  11.980  13.850  30.250
 3119DPPC   C2A59118  12.250  13.730  30.640
 3119DPPC   C3A59119  12.600  13.810  30.930
 3119DPPC   C4A59120  12.970  13.940  30.930
 3119DPPC   C1B59121  12.340  14.000  29.810
 3119DPPC   C2B59122  12.830  14.090  29.910
 3119DPPC   C3B59123  13.180  14.280  30.020
 3119DPPC   C4B59124  13.240  14.570  30.230
 3120DPPC   NC359125  12.680  22.930  21.490
 3120DPPC   PO459126  12.940  22.620  21.400
 3120DPPC   GL159127  13.240  22.310  21.560
 3120DPPC   GL259128  13.310  22.160  21.230
 3120DPPC   C1A59129  13.530  22.130  21.900
 3120DPPC   C2A59130  13.580  22.110  22.410
 3120DPPC   C3A59131  13.470  22.260  22.870
 3120DPPC   C4A59132  13.560  22.090  23.280
 3120DPPC   C1B59133  13.710  22.020  21.350
 3120DPPC   C2B59134  13.840  21.840  21.660
 3120DPPC   C3B59135  13.780  21.720  22.100
 3120DPPC   C4B59136  13.760  21.530  22.530
 3121DPPC   NC359137  27.375  16.510  30.010
 3121DPPC   PO459138  27.795  16.710  29.810
 3121DPPC   GL159139  28.115  16.870  29.740
 3121DPPC   GL259140  28.365  16.620  29.680
 3121DPPC   C1A59141  28.185  17.220  29.470
 3121DPPC   C2A59142  28.635  17.400  29.370
 3121DPPC   C3A59143  29.025  17.520  29.020
 3121DPPC   C4A59144  29.505  17.740  29.010
 3121DPPC   C1B59145  28.745  16.830  29.850
 3121DPPC   C2B59146  29.005  17.170  30.030
 3121DPPC   C3B59147  29.395  17.150  30.320
 3121DPPC   C4B59148  29.675  17.260  30.650
 3122DPPC   NC359149  24.910   4.140  39.530
 3122DPPC   PO459150  25.030   4.490  39.280
 3122DPPC   GL159151  25.040   4.870  38.970
 3122DPPC   GL259152  25.020   5.000  38.620
 3122DPPC   C1A59153  25.100   5.250  39.000
 3122DPPC   C2A59154  25.000   5.630  38.740
 3122DPPC   C3A59155  24.900   5.940  38.470
 3122DPPC   C4A59156  24.600   6.260  38.360
 3122DPPC   C1B59157  24.990   5.330  38.300
 3122DPPC   C2B59158  25.050   5.740  38.070
 3122DPPC   C3B59159  25.170   6.130  37.930
 3122DPPC   C4B59160  24.920   6.490  37.750
 3123DPPC   NC359161  27.465  18.330  36.990
 3123DPPC   PO459162  27.555  17.970  37.250
 3123DPPC   GL159163  27.935  18.100  37.290
 3123DPPC   GL259164  27.945  18.470  37.200
 3123DPPC   C1A59165  28.355  18.180  37.290
 3123DPPC   C2A59166  28.685  18.430  37.350
 3123DPPC   C3A59167  29.145  18.480  37.230
 3123DPPC   C4A59168  29.255  18.880  37.000
 3123DPPC   C1B59169  27.975  18.950  37.220
 3123DPPC   C2B59170  28.215  19.340  37.320
 3123DPPC   C3B59171  28.235  19.730  37.360
 3123DPPC   C4B59172  28.375  20.120  37.150
 3124DPPC   NC359173  31.515   5.960  32.920
 3124DPPC   PO459174  31.505   5.860  33.360
 3124DPPC   GL159175  31.085   5.940  33.410
 3124DPPC   GL259176  31.095   6.280  33.550
 3124DPPC   C1A59177  30.635   6.230  33.330
 3124DPPC   C2A59178  30.475   6.640  33.360
 3124DPPC   C3A59179  30.085   6.690  33.300
 3124DPPC   C4A59180  29.725   6.680  32.910
 3124DPPC   C1B59181  30.975   6.660  33.280
 3124DPPC   C2B59182  30.885   7.130  33.260
 3124DPPC   C3B59183  30.855   7.430  33.070
 3124DPPC   C4B59184  30.755   7.640  32.700
 3125DPPC   NC359185  14.780  22.340  25.190
 3125DPPC   PO459186  14.870  21.970  24.860
 3125DPPC   GL159187  14.570  21.940  24.530
 3125DPPC   GL259188  14.610  21.670  24.230
 3125DPPC   C1A59189  14.520  22.170  24.050
 3125DPPC   C2A59190  14.300  22.080  23.640
 3125DPPC   C3A59191  14.180  21.990  23.250
 3125DPPC   C4A59192  14.340  22.230  22.880
 3125DPPC   C1B59193  14.160  21.760  24.130
 3125DPPC   C2B59194  13.880  22.110  24.010
 3125DPPC   C3B59195  13.890  22.350  23.640
 3125DPPC   C4B59196  13.550  22.610  23.440
 3126DPPC   NC359197  11.120  18.170  40.960
 3126DPPC   PO459198  11.640  18.150  40.830
 3126DPPC   GL159199  12.020  17.960  40.660
 3126DPPC   GL259200  12.320  18.060  40.820
 3126DPPC   C1A59201  12.390  17.920  40.340
 3126DPPC   C2A59202  12.690  18.310  40.160
 3126DPPC   C3A59203  13.130  18.310  40.180
 3126DPPC   C4A59204  13.590  18.230  40.240
 3126DPPC   C1B59205  12.720  18.150  40.630
 3126DPPC   C2B59206  13.070  17.860  40.410
 3126DPPC   C3B59207  13.140  17.480  40.100
 3126DPPC   C4B59208  13.150  17.140  39.720
 3127DPPC   NC359209  33.855  12.930  35.800
 3127DPPC   PO459210  33.635  13.120  35.700
 3127DPPC   GL159211  33.325  12.980  35.860
 3127DPPC   GL259212  33.435  12.740  36.110
 3127DPPC   C1A59213  32.895  12.950  35.770
 3127DPPC   C2A59214  32.475  12.830  35.650
 3127DPPC   C3A59215  32.165  12.640  35.580
 3127DPPC   C4A59216  32.055  12.310  35.400
 3127DPPC   C1B59217  33.105  12.980  36.250
 3127DPPC   C2B59218  32.745  12.860  36.180
 3127DPPC   C3B59219  32.285  12.790  36.230
 3127DPPC   C4B59220  31.895  12.870  35.980
 3128DPPC   NC359221  33.695  15.150  30.960
 3128DPPC   PO459222  33.355  15.280  31.000
 3128DPPC   GL159223  32.935  14.950  30.980
 3128DPPC   GL259224  32.725  15.070  31.330
 3128DPPC   C1A59225  32.495  14.750  31.070
 3128DPPC   C2A59226  32.085  14.890  31.080
 3128DPPC   C3A59227  31.815  14.790  30.830
 3128DPPC   C4A59228  31.555  14.680  30.530
 3128DPPC   C1B59229  32.335  14.990  31.510
 3128DPPC   C2B59230  31.965  14.920  31.790
 3128DPPC   C3B59231  31.805  14.650  31.800
 3128DPPC   C4B59232  31.595  14.360  32.050
 3129DPPC   NC359233  24.760  10.450  19.120
 3129DPPC   PO459234  24.790  10.830  19.020
 3129DPPC   GL159235  24.770  10.880  19.410
 3129DPPC   GL259236  24.540  10.680  19.490
 3129DPPC   C1A59237  25.070  10.900  19.700
 3129DPPC   C2A59238  25.230  11.190  20.010
 3129DPPC   C3A59239  24.930  11.470  20.310
 3129DPPC   C4A59240  25.040  11.520  20.670
 3129DPPC   C1B59241  24.070  10.730  19.530
 3129DPPC   C2B59242  23.690  10.630  19.630
 3129DPPC   C3B59243  23.350  10.590  19.870
 3129DPPC   C4B59244  23.020  10.470  19.640
 3130DPPC   NC359245   9.850  18.480  36.880
 3130DPPC   PO459246   9.510  18.800  36.620
 3130DPPC   GL159247  10.000  18.890  36.640
 3130DPPC   GL259248  10.170  18.950  36.950
 3130DPPC   C1A59249  10.440  18.660  36.680
 3130DPPC   C2A59250  10.760  18.400  36.770
 3130DPPC   C3A59251  11.060  18.040  36.850
 3130DPPC   C4A59252  11.090  17.750  37.070
 3130DPPC   C1B59253  10.180  19.340  36.920
 3130DPPC   C2B59254  10.010  19.680  36.750
 3130DPPC   C3B59255  10.320  19.940  36.510
 3130DPPC   C4B59256  10.710  19.940  36.460
 3131DPPC   NC359257  19.590   1.460  25.900
 3131DPPC   PO459258  19.450   1.290  25.520
 3131DPPC   GL159259  19.350   1.020  25.900
 3131DPPC   GL259260  19.450   0.690  25.950
 3131DPPC   C1A59261  19.050   0.840  26.160
 3131DPPC   C2A59262  18.650   0.730  25.980
 3131DPPC   C3A59263  18.610   0.360  25.600
 3131DPPC   C4A59264  18.850  26.390  25.540
 3131DPPC   C1B59265  19.460   0.410  26.190
 3131DPPC   C2B59266  19.130   0.390  26.480
 3131DPPC   C3B59267  18.780   0.390  26.840
 3131DPPC   C4B59268  18.890   0.520  27.200
 3132DPPC   NC359269  33.045   9.940  30.260
 3132DPPC   PO459270  32.875   9.750  29.900
 3132DPPC   GL159271  32.535   9.890  30.210
 3132DPPC   GL259272  32.635  10.000  30.480
 3132DPPC   C1A59273  32.215  10.220  30.320
 3132DPPC   C2A59274  31.935  10.500  30.560
 3132DPPC   C3A59275  31.505  10.590  30.320
 3132DPPC   C4A59276  31.165  10.750  30.260
 3132DPPC   C1B59277  32.285   9.860  30.650
 3132DPPC   C2B59278  32.065   9.850  30.910
 3132DPPC   C3B59279  31.715   9.750  31.120
 3132DPPC   C4B59280  31.205   9.640  31.170
 3133DPPC   NC359281  12.740  15.220  42.380
 3133DPPC   PO459282  13.080  14.930  42.420
 3133DPPC   GL159283  13.100  15.090  41.950
 3133DPPC   GL259284  13.130  15.360  41.890
 3133DPPC   C1A59285  13.270  15.120  41.540
 3133DPPC   C2A59286  13.610  15.330  41.310
 3133DPPC   C3A59287  13.970  15.210  41.220
 3133DPPC   C4A59288  14.350  15.050  40.940
 3133DPPC   C1B59289  13.550  15.500  41.770
 3133DPPC   C2B59290  13.960  15.710  41.570
 3133DPPC   C3B59291  14.290  15.590  41.280
 3133DPPC   C4B59292  14.630  15.530  40.860
 3134DPPC   NC359293  27.725  17.930  36.820
 3134DPPC   PO459294  27.405  18.000  36.520
 3134DPPC   GL159295  27.695  18.320  36.520
 3134DPPC   GL259296  27.665  18.700  36.560
 3134DPPC   C1A59297  28.085  18.500  36.720
 3134DPPC   C2A59298  28.385  18.730  36.920
 3134DPPC   C3A59299  28.435  19.160  36.880
 3134DPPC   C4A59300  28.485  19.560  36.970
 3134DPPC   C1B59301  28.005  19.010  36.590
 3134DPPC   C2B59302  28.285  19.260  36.380
 3134DPPC   C3B59303  28.815  19.210  36.400
 3134DPPC   C4B59304  29.235  19.090  36.480
 3135DPPC   NC359305  23.000   3.290  30.610
 3135DPPC   PO459306  23.100   3.340  31.020
 3135DPPC   GL159307  22.960   3.820  30.990
 3135DPPC   GL259308  23.120   3.890  31.200
 3135DPPC   C1A59309  23.180   4.310  30.850
 3135DPPC   C2A59310  23.150   4.650  31.050
 3135DPPC   C3A59311  23.140   5.040  31.320
 3135DPPC   C4A59312  23.390   5.360  31.290
 3135DPPC   C1B59313  23.000   4.300  31.330
 3135DPPC   C2B59314  23.020   4.560  31.890
 3135DPPC   C3B59315  23.000   5.050  31.820
 3135DPPC   C4B59316  22.950   5.430  31.480
 3136DPPC   NC359317  22.860  15.930  21.480
 3136DPPC   PO459318  22.540  15.790  21.100
 3136DPPC   GL159319  22.330  15.890  20.760
 3136DPPC   GL259320  22.520  15.880  20.520
 3136DPPC   C1A59321  22.210  15.600  20.250
 3136DPPC   C2A59322  22.300  15.370  19.820
 3136DPPC   C3A59323  22.400  15.340  19.330
 3136DPPC   C4A59324  22.770  15.290  19.080
 3136DPPC   C1B59325  22.610  16.230  20.240
 3136DPPC   C2B59326  22.510  16.430  19.870
 3136DPPC   C3B59327  22.580  16.700  19.540
 3136DPPC   C4B59328  22.660  17.030  19.350
 3137DPPC   NC359329  10.590  16.460  25.380
 3137DPPC   PO459330  10.850  16.640  25.030
 3137DPPC   GL159331  11.280  16.880  24.820
 3137DPPC   GL259332  11.480  16.700  24.820
 3137DPPC   C1A59333  11.530  17.140  25.080
 3137DPPC   C2A59334  11.890  17.340  25.030
 3137DPPC   C3A59335  12.050  17.670  25.100
 3137DPPC   C4A59336  12.390  17.840  25.010
 3137DPPC   C1B59337  11.850  16.880  25.270
 3137DPPC   C2B59338  12.280  16.990  25.510
 3137DPPC   C3B59339  12.480  16.780  25.940
 3137DPPC   C4B59340  12.850  16.610  26.220
 3138DPPC   NC359341  32.685  17.610  37.700
 3138DPPC   PO459342  32.665  17.170  37.950
 3138DPPC   GL159343  32.295  16.840  37.900
 3138DPPC   GL259344  32.055  17.020  38.040
 3138DPPC   C1A59345  32.195  16.630  37.520
 3138DPPC   C2A59346  31.975  16.290  37.140
 3138DPPC   C3A59347  31.725  15.950  36.890
 3138DPPC   C4A59348  31.735  15.550  36.810
 3138DPPC   C1B59349  31.565  17.120  38.150
 3138DPPC   C2B59350  31.375  17.300  38.570
 3138DPPC   C3B59351  31.065  17.580  38.480
 3138DPPC   C4B59352  30.825  17.910  38.260
 3139DPPC   NC359353  25.710  16.630  22.940
 3139DPPC   PO459354  25.490  16.820  22.620
 3139DPPC   GL159355  25.750  16.680  22.400
 3139DPPC   GL259356  25.920  16.380  22.510
 3139DPPC   C1A59357  26.040  16.760  22.110
 3139DPPC   C2A59358  26.230  16.900  21.810
 3139DPPC   C3A59359  26.565  16.890  21.510
 3139DPPC   C4A59360  26.845  16.850  21.120
 3139DPPC   C1B59361  26.210  16.290  22.260
 3139DPPC   C2B59362  26.615  16.600  22.230
 3139DPPC   C3B59363  27.045  16.850  22.200
 3139DPPC   C4B59364  27.475  16.970  22.240
 3140DPPC   NC359365  28.155  23.960  36.210
 3140DPPC   PO459366  28.115  23.780  36.630
 3140DPPC   GL159367  27.855  23.380  36.670
 3140DPPC   GL259368  27.525  23.360  36.600
 3140DPPC   C1A59369  27.715  22.970  36.890
 3140DPPC   C2A59370  27.775  22.480  37.110
 3140DPPC   C3A59371  27.705  22.080  37.330
 3140DPPC   C4A59372  27.395  21.810  37.500
 3140DPPC   C1B59373  27.185  23.290  36.310
 3140DPPC   C2B59374  26.705  23.280  36.170
 3140DPPC   C3B59375  26.380  23.070  36.330
 3140DPPC   C4B59376  26.170  22.960  36.700
 3141DPPC   NC359377  26.865  12.690  24.010
 3141DPPC   PO459378  27.195  12.700  24.400
 3141DPPC   GL159379  27.545  12.720  24.110
 3141DPPC   GL259380  27.825  12.990  24.080
 3141DPPC   C1A59381  27.845  12.560  23.690
 3141DPPC   C2A59382  28.225  12.480  23.680
 3141DPPC   C3A59383  28.575  12.390  23.860
 3141DPPC   C4A59384  28.815  12.090  24.010
 3141DPPC   C1B59385  27.605  13.090  23.720
 3141DPPC   C2B59386  27.635  12.960  23.250
 3141DPPC   C3B59387  27.695  12.730  22.960
 3141DPPC   C4B59388  27.815  12.770  22.580
 3142DPPC   NC359389  25.370  18.400  24.940
 3142DPPC   PO459390  25.540  18.090  24.610
 3142DPPC   GL159391  25.900  18.260  24.420
 3142DPPC   GL259392  25.960  18.490  24.670
 3142DPPC   C1A59393  26.290  18.430  24.300
 3142DPPC   C2A59394  26.555  18.760  24.260
 3142DPPC   C3A59395  26.465  19.230  24.160
 3142DPPC   C4A59396  26.745  19.620  24.050
 3142DPPC   C1B59397  25.970  18.830  24.400
 3142DPPC   C2B59398  25.910  19.270  24.280
 3142DPPC   C3B59399  26.220  19.590  23.980
 3142DPPC   C4B59400  26.515  20.030  23.900
 3143DPPC   NC359401  17.450  24.330  44.040
 3143DPPC   PO459402  17.530  24.430  43.630
 3143DPPC   GL159403  17.680  24.130  43.320
 3143DPPC   GL259404  17.980  24.220  43.250
 3143DPPC   C1A59405  17.610  23.780  43.200
 3143DPPC   C2A59406  17.690  23.360  42.990
 3143DPPC   C3A59407  18.010  23.020  42.930
 3143DPPC   C4A59408  18.160  22.770  42.710
 3143DPPC   C1B59409  18.110  23.870  43.440
 3143DPPC   C2B59410  18.450  23.690  43.550
 3143DPPC   C3B59411  18.860  23.490  43.560
 3143DPPC   C4B59412  18.900  23.200  43.280
 3144DPPC   NC359413  13.120  21.160  41.600
 3144DPPC   PO459414  13.430  21.410  41.730
 3144DPPC   GL159415  13.660  21.230  41.410
 3144DPPC   GL259416  13.510  21.020  41.260
 3144DPPC   C1A59417  14.060  21.340  41.230
 3144DPPC   C2A59418  14.370  21.030  41.150
 3144DPPC   C3A59419  14.750  20.760  41.090
 3144DPPC   C4A59420  15.260  20.650  41.250
 3144DPPC   C1B59421  13.860  20.900  41.050
 3144DPPC   C2B59422  14.140  20.560  41.140
 3144DPPC   C3B59423  14.120  20.180  41.070
 3144DPPC   C4B59424  13.940  19.810  41.200
 3145DPPC   NC359425  30.205  14.670  43.190
 3145DPPC   PO459426  30.285  14.860  42.830
 3145DPPC   GL159427  29.935  14.730  42.660
 3145DPPC   GL259428  29.865  14.590  42.820
 3145DPPC   C1A59429  29.595  14.630  42.430
 3145DPPC   C2A59430  29.435  14.470  42.060
 3145DPPC   C3A59431  28.975  14.510  41.860
 3145DPPC   C4A59432  28.745  14.540  41.550
 3145DPPC   C1B59433  29.515  14.410  42.910
 3145DPPC   C2B59434  29.025  14.510  43.050
 3145DPPC   C3B59435  28.655  14.700  43.100
 3145DPPC   C4B59436  28.265  14.540  43.000
 3146DPPC   NC359437  19.490  23.410  25.160
 3146DPPC   PO459438  19.410  23.330  24.800
 3146DPPC   GL159439  19.410  23.540  24.400
 3146DPPC   GL259440  19.160  23.740  24.450
 3146DPPC   C1A59441  19.560  23.490  23.920
 3146DPPC   C2A59442  19.580  23.670  23.580
 3146DPPC   C3A59443  19.760  23.840  23.100
 3146DPPC   C4A59444  19.970  23.920  22.720
 3146DPPC   C1B59445  19.310  23.930  24.010
 3146DPPC   C2B59446  19.660  24.050  23.880
 3146DPPC   C3B59447  20.030  24.300  23.900
 3146DPPC   C4B59448  20.360  24.460  23.560
 3147DPPC   NC359449  13.680  22.360  32.950
 3147DPPC   PO459450  13.690  22.170  33.370
 3147DPPC   GL159451  13.330  22.240  33.440
 3147DPPC   GL259452  13.190  22.340  33.720
 3147DPPC   C1A59453  12.880  22.400  33.270
 3147DPPC   C2A59454  12.500  22.480  33.210
 3147DPPC   C3A59455  12.200  22.600  33.420
 3147DPPC   C4A59456  12.080  22.950  33.500
 3147DPPC   C1B59457  12.940  22.610  34.080
 3147DPPC   C2B59458  12.550  22.750  34.320
 3147DPPC   C3B59459  12.150  22.580  34.420
 3147DPPC   C4B59460  11.700  22.490  34.310
 3148DPPC   NC359461  10.340  15.300  36.280
 3148DPPC   PO459462  10.170  15.580  35.910
 3148DPPC   GL159463  10.570  15.850  35.940
 3148DPPC   GL259464  10.820  15.600  35.930
 3148DPPC   C1A59465  10.730  16.190  35.840
 3148DPPC   C2A59466  10.710  16.440  35.520
 3148DPPC   C3A59467  10.930  16.590  35.100
 3148DPPC   C4A59468  11.390  16.730  35.020
 3148DPPC   C1B59469  11.070  15.850  36.010
 3148DPPC   C2B59470  11.450  15.920  36.050
 3148DPPC   C3B59471  11.830  15.880  35.750
 3148DPPC   C4B59472  12.000  15.460  35.700
 3149DPPC   NC359473  27.655  17.050  33.890
 3149DPPC   PO459474  28.035  16.810  34.210
 3149DPPC   GL159475  28.365  17.070  34.100
 3149DPPC   GL259476  28.345  17.250  34.390
 3149DPPC   C1A59477  28.615  17.490  34.020
 3149DPPC   C2A59478  28.925  17.830  34.100
 3149DPPC   C3A59479  29.155  18.120  34.300
 3149DPPC   C4A59480  29.365  18.430  34.150
 3149DPPC   C1B59481  28.785  17.270  34.540
 3149DPPC   C2B59482  29.105  17.450  34.320
 3149DPPC   C3B59483  29.395  17.640  33.990
 3149DPPC   C4B59484  29.685  17.700  33.550
 3150DPPC   NC359485  13.260  20.090  30.860
 3150DPPC   PO459486  13.470  19.840  31.150
 3150DPPC   GL159487  12.890  19.970  31.250
 3150DPPC   GL259488  12.760  20.190  31.040
 3150DPPC   C1A59489  12.500  19.920  31.480
 3150DPPC   C2A59490  12.050  19.780  31.480
 3150DPPC   C3A59491  11.600  19.870  31.600
 3150DPPC   C4A59492  11.240  20.040  31.450
 3150DPPC   C1B59493  12.340  19.910  30.950
 3150DPPC   C2B59494  11.890  19.940  31.080
 3150DPPC   C3B59495  11.670  20.260  31.160
 3150DPPC   C4B59496  11.250  20.410  31.110
 3151DPPC   NC359497  20.140   0.200  41.220
 3151DPPC   PO459498  19.910   0.340  40.860
 3151DPPC   GL159499  20.240   0.100  40.690
 3151DPPC   GL259500  20.420  26.320  40.830
 3151DPPC   C1A59501  20.340  26.330  40.360
 3151DPPC   C2A59502  20.260  25.890  40.180
 3151DPPC   C3A59503  19.980  25.780  39.800
 3151DPPC   C4A59504  19.790  25.970  39.550
 3151DPPC   C1B59505  20.090  26.040  40.690
 3151DPPC   C2B59506  19.810  26.040  40.290
 3151DPPC   C3B59507  19.590  26.170  39.910
 3151DPPC   C4B59508  19.130  25.990  39.770
 3152DPPC   NC359509  19.940  23.270  25.980
 3152DPPC   PO459510  19.670  23.320  26.320
 3152DPPC   GL159511  19.680  23.750  26.080
 3152DPPC   GL259512  19.310  23.960  26.070
 3152DPPC   C1A59513  19.810  24.040  25.780
 3152DPPC   C2A59514  19.780  24.390  25.650
 3152DPPC   C3A59515  20.000  24.780  25.870
 3152DPPC   C4A59516  20.060  25.110  26.110
 3152DPPC   C1B59517  19.410  24.410  26.010
 3152DPPC   C2B59518  19.510  24.770  25.820
 3152DPPC   C3B59519  19.760  24.910  25.390
 3152DPPC   C4B59520  19.820  24.890  24.980
 3153DPPC   NC359521  16.180  23.310  37.770
 3153DPPC   PO459522  16.610  23.450  37.600
 3153DPPC   GL159523  16.530  23.710  38.040
 3153DPPC   GL259524  16.270  23.750  37.860
 3153DPPC   C1A59525  16.330  23.820  38.320
 3153DPPC   C2A59526  16.480  24.150  38.640
 3153DPPC   C3A59527  16.640  24.410  39.110
 3153DPPC   C4A59528  16.910  24.170  39.240
 3153DPPC   C1B59529  15.830  23.940  37.880
 3153DPPC   C2B59530  15.410  23.940  38.130
 3153DPPC   C3B59531  15.240  24.230  38.490
 3153DPPC   C4B59532  15.480  24.520  38.760
 3154DPPC   NC359533  14.100   1.130  27.860
 3154DPPC   PO459534  13.690   1.020  27.870
 3154DPPC   GL159535  13.730   0.850  28.270
 3154DPPC   GL259536  13.580   0.580  28.380
 3154DPPC   C1A59537  14.100   0.610  28.560
 3154DPPC   C2A59538  14.400   0.420  28.680
 3154DPPC   C3A59539  14.560  26.410  28.620
 3154DPPC   C4A59540  14.840  26.090  28.500
 3154DPPC   C1B59541  13.810   0.330  28.260
 3154DPPC   C2B59542  13.910   0.050  27.970
 3154DPPC   C3B59543  14.220  26.210  27.720
 3154DPPC   C4B59544  14.260  26.170  27.290
 3155DPPC   NC359545  13.750  20.640  35.610
 3155DPPC   PO459546  13.590  20.940  35.360
 3155DPPC   GL159547  13.370  21.080  35.680
 3155DPPC   GL259548  13.300  20.770  35.850
 3155DPPC   C1A59549  13.030  21.240  35.720
 3155DPPC   C2A59550  12.750  21.390  36.020
 3155DPPC   C3A59551  12.420  21.320  36.290
 3155DPPC   C4A59552  12.440  21.270  36.690
 3155DPPC   C1B59553  12.870  20.770  35.800
 3155DPPC   C2B59554  12.570  20.890  35.880
 3155DPPC   C3B59555  12.220  20.800  35.960
 3155DPPC   C4B59556  11.800  20.780  36.230
 3156DPPC   NC359557  28.305  12.940  26.100
 3156DPPC   PO459558  28.255  13.370  26.240
 3156DPPC   GL159559  28.635  13.400  26.070
 3156DPPC   GL259560  28.785  13.580  26.300
 3156DPPC   C1A59561  28.915  13.470  25.640
 3156DPPC   C2A59562  29.235  13.520  25.260
 3156DPPC   C3A59563  29.475  13.300  24.950
 3156DPPC   C4A59564  29.555  13.320  24.590
 3156DPPC   C1B59565  29.155  13.770  26.080
 3156DPPC   C2B59566  29.455  14.080  26.110
 3156DPPC   C3B59567  29.795  14.250  26.290
 3156DPPC   C4B59568  30.225  14.270  26.260
 3157DPPC   NC359569  23.630  21.230  40.520
 3157DPPC   PO459570  23.610  20.890  41.000
 3157DPPC   GL159571  23.950  21.160  41.020
 3157DPPC   GL259572  23.920  21.280  41.450
 3157DPPC   C1A59573  24.230  21.590  41.100
 3157DPPC   C2A59574  24.470  21.900  41.220
 3157DPPC   C3A59575  24.440  22.360  41.280
 3157DPPC   C4A59576  24.360  22.740  41.500
 3157DPPC   C1B59577  24.220  21.520  41.620
 3157DPPC   C2B59578  24.300  21.860  41.800
 3157DPPC   C3B59579  24.090  22.170  42.100
 3157DPPC   C4B59580  24.140  22.470  42.380
 3158DPPC   NC359581  29.425  13.610  36.730
 3158DPPC   PO459582  29.225  14.020  36.890
 3158DPPC   GL159583  29.545  14.360  36.930
 3158DPPC   GL259584  29.645  14.510  37.270
 3158DPPC   C1A59585  29.965  14.350  36.880
 3158DPPC   C2A59586  30.215  14.610  36.980
 3158DPPC   C3A59587  30.505  14.900  37.080
 3158DPPC   C4A59588  30.925  15.010  36.870
 3158DPPC   C1B59589  30.135  14.440  37.420
 3158DPPC   C2B59590  30.605  14.470  37.350
 3158DPPC   C3B59591  30.995  14.670  37.240
 3158DPPC   C4B59592  31.465  14.690  37.220
 3159DPPC   NC359593  21.150  25.260  21.890
 3159DPPC   PO459594  20.750  25.500  21.950
 3159DPPC   GL159595  20.330  25.200  22.020
 3159DPPC   GL259596  20.330  24.970  21.750
 3159DPPC   C1A59597  20.450  24.930  22.300
 3159DPPC   C2A59598  20.600  24.550  22.410
 3159DPPC   C3A59599  20.990  24.410  22.290
 3159DPPC   C4A59600  20.930  23.920  22.170
 3159DPPC   C1B59601  20.120  24.530  21.980
 3159DPPC   C2B59602  19.870  24.170  22.010
 3159DPPC   C3B59603  19.720  23.850  22.300
 3159DPPC   C4B59604  19.350  23.710  22.260
 3160DPPC   NC359605  29.895  10.300  23.010
 3160DPPC   PO459606  30.285  10.360  23.260
 3160DPPC   GL159607  30.205  10.690  23.510
 3160DPPC   GL259608  30.035  10.410  23.770
 3160DPPC   C1A59609  30.295  10.930  23.920
 3160DPPC   C2A59610  30.455  10.850  24.380
 3160DPPC   C3A59611  30.535  10.500  24.650
 3160DPPC   C4A59612  30.765  10.150  24.890
 3160DPPC   C1B59613  29.695  10.190  23.880
 3160DPPC   C2B59614  29.355  10.130  24.100
 3160DPPC   C3B59615  29.125  10.310  24.410
 3160DPPC   C4B59616  28.675  10.440  24.530
 3161DPPC   NC359617  11.680  11.960  34.510
 3161DPPC   PO459618  11.900  11.760  34.220
 3161DPPC   GL159619  11.960  12.170  34.080
 3161DPPC   GL259620  11.990  12.360  34.500
 3161DPPC   C1A59621  12.340  12.270  34.120
 3161DPPC   C2A59622  12.720  12.410  33.860
 3161DPPC   C3A59623  12.830  12.300  33.440
 3161DPPC   C4A59624  12.610  12.000  33.230
 3161DPPC   C1B59625  12.350  12.590  34.460
 3161DPPC   C2B59626  12.630  12.750  34.200
 3161DPPC   C3B59627  13.070  12.800  34.150
 3161DPPC   C4B59628  13.490  12.860  34.270
 3162DPPC   NC359629  30.525  18.190  42.520
 3162DPPC   PO459630  30.635  17.710  42.530
 3162DPPC   GL159631  30.545  17.490  42.160
 3162DPPC   GL259632  30.445  17.420  41.830
 3162DPPC   C1A59633  30.185  17.280  42.200
 3162DPPC   C2A59634  30.115  17.100  42.560
 3162DPPC   C3A59635  29.845  16.810  42.730
 3162DPPC   C4A59636  29.955  16.340  42.650
 3162DPPC   C1B59637  30.145  17.370  41.570
 3162DPPC   C2B59638  29.745  17.240  41.700
 3162DPPC   C3B59639  29.355  17.290  41.630
 3162DPPC   C4B59640  28.905  17.420  41.520
 3163DPPC   NC359641  32.785   8.560  29.690
 3163DPPC   PO459642  32.675   8.900  29.510
 3163DPPC   GL159643  32.315   8.810  29.740
 3163DPPC   GL259644  32.275   8.910  30.040
 3163DPPC   C1A59645  31.925   8.690  29.760
 3163DPPC   C2A59646  31.475   8.760  29.910
 3163DPPC   C3A59647  31.275   9.010  30.170
 3163DPPC   C4A59648  30.965   9.340  30.170
 3163DPPC   C1B59649  32.115   9.040  30.420
 3163DPPC   C2B59650  31.915   9.390  30.680
 3163DPPC   C3B59651  31.495   9.540  30.630
 3163DPPC   C4B59652  31.055   9.720  30.630
 3164DPPC   NC359653  13.710   0.870  25.970
 3164DPPC   PO459654  14.010   0.650  26.140
 3164DPPC   GL159655  14.070   0.240  26.150
 3164DPPC   GL259656  13.910  26.370  26.190
 3164DPPC   C1A59657  14.340  26.270  25.950
 3164DPPC   C2A59658  14.360  25.940  25.730
 3164DPPC   C3A59659  14.530  25.580  25.580
 3164DPPC   C4A59660  14.830  25.340  25.680
 3164DPPC   C1B59661  13.880  25.900  26.220
 3164DPPC   C2B59662  13.860  25.440  26.350
 3164DPPC   C3B59663  13.920  25.120  26.070
 3164DPPC   C4B59664  13.910  24.820  25.740
 3165DPPC   NC359665  20.850   0.860  25.320
 3165DPPC   PO459666  20.580   0.960  25.750
 3165DPPC   GL159667  20.590   0.630  26.070
 3165DPPC   GL259668  20.780   0.510  26.360
 3165DPPC   C1A59669  20.600   0.160  26.060
 3165DPPC   C2A59670  20.820  26.430  26.390
 3165DPPC   C3A59671  21.140   0.120  26.580
 3165DPPC   C4A59672  21.160   0.570  26.590
 3165DPPC   C1B59673  21.060   0.400  26.110
 3165DPPC   C2B59674  21.230   0.220  25.730
 3165DPPC   C3B59675  21.100  26.430  25.330
 3165DPPC   C4B59676  20.930  26.100  25.030
 3166DPPC   NC359677  17.460  24.540  31.380
 3166DPPC   PO459678  17.120  24.580  31.760
 3166DPPC   GL159679  16.820  24.830  31.810
 3166DPPC   GL259680  16.800  24.890  32.110
 3166DPPC   C1A59681  16.570  25.160  31.820
 3166DPPC   C2A59682  16.280  25.510  31.770
 3166DPPC   C3A59683  15.990  25.660  31.580
 3166DPPC   C4A59684  15.660  25.710  31.280
 3166DPPC   C1B59685  16.770  25.310  32.280
 3166DPPC   C2B59686  16.620  25.730  32.240
 3166DPPC   C3B59687  16.490  26.190  32.280
 3166DPPC   C4B59688  16.390   0.170  32.390
 3167DPPC   NC359689   9.640  17.340  29.690
 3167DPPC   PO459690   9.570  17.230  30.150
 3167DPPC   GL159691   9.940  17.430  30.320
 3167DPPC   GL259692  10.160  17.180  30.620
 3167DPPC   C1A59693  10.150  17.830  30.480
 3167DPPC   C2A59694  10.430  18.160  30.720
 3167DPPC   C3A59695  10.830  18.200  30.880
 3167DPPC   C4A59696  11.220  18.350  30.690
 3167DPPC   C1B59697  10.520  17.090  30.450
 3167DPPC   C2B59698  10.910  17.120  30.320
 3167DPPC   C3B59699  11.280  17.320  30.250
 3167DPPC   C4B59700  11.730  17.530  30.080
 3168DPPC   NC359701  25.900  13.970  23.000
 3168DPPC   PO459702  26.120  13.540  23.100
 3168DPPC   GL159703  26.505  13.490  22.810
 3168DPPC   GL259704  26.675  13.320  23.060
 3168DPPC   C1A59705  27.015  13.530  22.630
 3168DPPC   C2A59706  27.405  13.610  22.470
 3168DPPC   C3A59707  27.605  13.610  22.060
 3168DPPC   C4A59708  27.885  13.410  21.750
 3168DPPC   C1B59709  26.835  13.040  22.800
 3168DPPC   C2B59710  26.885  13.050  22.390
 3168DPPC   C3B59711  26.675  13.020  22.040
 3168DPPC   C4B59712  26.725  12.720  21.700
 3169DPPC   NC359713  12.240  23.610  39.180
 3169DPPC   PO459714  12.300  23.670  38.800
 3169DPPC   GL159715  12.590  23.860  38.500
 3169DPPC   GL259716  12.970  24.040  38.390
 3169DPPC   C1A59717  12.900  23.590  38.220
 3169DPPC   C2A59718  13.110  23.310  38.030
 3169DPPC   C3A59719  13.460  23.070  38.040
 3169DPPC   C4A59720  13.730  22.800  38.400
 3169DPPC   C1B59721  13.330  24.300  38.300
 3169DPPC   C2B59722  13.580  24.650  38.090
 3169DPPC   C3B59723  13.870  24.610  37.680
 3169DPPC   C4B59724  14.020  24.450  37.310
 3170DPPC   NC359725  33.375  13.560  37.650
 3170DPPC   PO459726  33.345  13.980  37.670
 3170DPPC   GL159727  33.215  14.150  37.330
 3170DPPC   GL259728  32.945  14.430  37.390
 3170DPPC   C1A59729  32.845  14.070  37.070
 3170DPPC   C2A59730  32.475  13.820  37.250
 3170DPPC   C3A59731  32.195  13.840  37.590
 3170DPPC   C4A59732  31.805  13.940  37.760
 3170DPPC   C1B59733  32.515  14.280  37.470
 3170DPPC   C2B59734  32.185  14.220  37.170
 3170DPPC   C3B59735  31.775  14.160  37.270
 3170DPPC   C4B59736  31.335  14.070  37.430
 3171DPPC   NC359737  14.470   1.320  29.360
 3171DPPC   PO459738  14.530   1.320  29.880
 3171DPPC   GL159739  14.820   0.980  30.090
 3171DPPC   GL259740  14.970   1.110  30.360
 3171DPPC   C1A59741  15.220   0.770  29.920
 3171DPPC   C2A59742  15.240   0.340  29.820
 3171DPPC   C3A59743  15.240  26.370  29.700
 3171DPPC   C4A59744  15.020  26.160  29.960
 3171DPPC   C1B59745  15.360   0.970  30.320
 3171DPPC   C2B59746  15.780   0.890  30.460
 3171DPPC   C3B59747  16.140   0.670  30.120
 3171DPPC   C4B59748  16.170   0.220  30.050
 3172DPPC   NC359749  27.015  15.330  25.160
 3172DPPC   PO459750  27.235  15.620  25.370
 3172DPPC   GL159751  27.665  15.860  25.440
 3172DPPC   GL259752  27.715  16.160  25.580
 3172DPPC   C1A59753  28.075  16.020  25.290
 3172DPPC   C2A59754  28.495  15.870  25.200
 3172DPPC   C3A59755  28.895  15.690  25.030
 3172DPPC   C4A59756  28.995  15.280  24.860
 3172DPPC   C1B59757  27.915  16.550  25.360
 3172DPPC   C2B59758  28.285  16.570  25.150
 3172DPPC   C3B59759  28.575  16.730  24.800
 3172DPPC   C4B59760  28.975  17.040  24.960
 3173DPPC   NC359761  26.130  18.460  34.640
 3173DPPC   PO459762  26.535  18.270  34.620
 3173DPPC   GL159763  26.925  18.440  34.360
 3173DPPC   GL259764  27.075  18.780  34.460
 3173DPPC   C1A59765  27.265  18.540  34.070
 3173DPPC   C2A59766  27.635  18.780  33.990
 3173DPPC   C3A59767  27.965  18.990  34.040
 3173DPPC   C4A59768  28.365  19.050  33.750
 3173DPPC   C1B59769  27.235  19.020  34.130
 3173DPPC   C2B59770  27.525  19.310  33.990
 3173DPPC   C3B59771  27.895  19.510  33.890
 3173DPPC   C4B59772  28.195  19.510  33.580
 3174DPPC   NC359773  17.420  10.440  20.870
 3174DPPC   PO459774  17.780  10.420  20.720
 3174DPPC   GL159775  17.900  10.450  21.130
 3174DPPC   GL259776  17.620  10.440  21.330
 3174DPPC   C1A59777  18.140  10.240  21.510
 3174DPPC   C2A59778  18.530  10.200  21.590
 3174DPPC   C3A59779  18.720  10.170  22.090
 3174DPPC   C4A59780  18.760   9.890  22.420
 3174DPPC   C1B59781  17.820  10.640  21.640
 3174DPPC   C2B59782  18.210  10.790  21.810
 3174DPPC   C3B59783  18.240  10.980  22.230
 3174DPPC   C4B59784  18.570  11.300  22.470
 3175DPPC   NC359785  16.190   8.890  24.760
 3175DPPC   PO459786  15.930   9.120  24.780
 3175DPPC   GL159787  16.390   9.310  24.800
 3175DPPC   GL259788  16.600   9.190  24.550
 3175DPPC   C1A59789  16.500   9.680  24.940
 3175DPPC   C2A59790  16.600   9.910  25.180
 3175DPPC   C3A59791  16.860   9.860  25.350
 3175DPPC   C4A59792  17.020   9.800  25.790
 3175DPPC   C1B59793  16.920   9.410  24.850
 3175DPPC   C2B59794  17.010   9.760  24.880
 3175DPPC   C3B59795  17.190  10.220  24.960
 3175DPPC   C4B59796  17.600  10.320  25.120
 3176DPPC   NC359797  30.585  12.820  22.140
 3176DPPC   PO459798  30.285  12.500  22.040
 3176DPPC   GL159799  29.925  12.570  22.100
 3176DPPC   GL259800  29.615  12.490  22.170
 3176DPPC   C1A59801  29.775  12.830  22.460
 3176DPPC   C2A59802  29.465  13.060  22.810
 3176DPPC   C3A59803  29.205  13.260  23.100
 3176DPPC   C4A59804  28.975  13.580  23.310
 3176DPPC   C1B59805  29.325  12.600  22.590
 3176DPPC   C2B59806  28.985  12.820  22.810
 3176DPPC   C3B59807  28.625  13.050  23.050
 3176DPPC   C4B59808  28.535  13.310  23.400
 3177DPPC   NC359809  15.720   2.080  35.870
 3177DPPC   PO459810  15.360   1.910  36.100
 3177DPPC   GL159811  15.590   1.720  36.330
 3177DPPC   GL259812  15.940   1.840  36.360
 3177DPPC   C1A59813  15.710   1.350  36.490
 3177DPPC   C2A59814  15.840   0.960  36.190
 3177DPPC   C3A59815  16.250   0.830  36.150
 3177DPPC   C4A59816  16.680   0.740  36.100
 3177DPPC   C1B59817  16.250   1.560  36.270
 3177DPPC   C2B59818  16.320   1.320  36.000
 3177DPPC   C3B59819  16.580   1.070  35.690
 3177DPPC   C4B59820  16.870   1.220  35.370
 3178DPPC   NC359821  21.670   2.150  34.220
 3178DPPC   PO459822  21.590   1.670  34.130
 3178DPPC   GL159823  21.810   1.240  34.330
 3178DPPC   GL259824  22.190   1.260  34.510
 3178DPPC   C1A59825  21.830   0.860  34.370
 3178DPPC   C2A59826  21.520   0.430  34.450
 3178DPPC   C3A59827  21.190   0.160  34.510
 3178DPPC   C4A59828  20.770   0.080  34.300
 3178DPPC   C1B59829  22.310   0.820  34.430
 3178DPPC   C2B59830  22.060   0.450  34.500
 3178DPPC   C3B59831  21.800   0.040  34.580
 3178DPPC   C4B59832  21.660  25.980  34.760
 3179DPPC   NC359833  21.000   5.840  39.490
 3179DPPC   PO459834  20.670   5.770  39.640
 3179DPPC   GL159835  20.640   6.190  39.260
 3179DPPC   GL259836  20.980   6.330  39.260
 3179DPPC   C1A59837  20.520   6.540  39.040
 3179DPPC   C2A59838  20.570   6.920  39.110
 3179DPPC   C3A59839  20.530   7.370  38.910
 3179DPPC   C4A59840  20.770   7.660  38.650
 3179DPPC   C1B59841  21.060   6.740  39.130
 3179DPPC   C2B59842  21.400   6.960  39.070
 3179DPPC   C3B59843  21.670   7.100  38.770
 3179DPPC   C4B59844  21.960   7.330  38.480
 3180DPPC   NC359845  21.330  23.780  19.330
 3180DPPC   PO459846  21.310  23.280  19.270
 3180DPPC   GL159847  21.170  22.980  19.670
 3180DPPC   GL259848  21.050  22.810  19.670
 3180DPPC   C1A59849  21.380  22.900  20.020
 3180DPPC   C2A59850  21.670  22.600  20.180
 3180DPPC   C3A59851  22.080  22.570  20.160
 3180DPPC   C4A59852  22.410  22.290  20.230
 3180DPPC   C1B59853  20.770  22.600  20.000
 3180DPPC   C2B59854  20.620  22.430  20.380
 3180DPPC   C3B59855  20.390  22.120  20.550
 3180DPPC   C4B59856  20.150  21.930  20.810
 3181DPPC   NC359857  22.390  15.120  16.740
 3181DPPC   PO459858  21.940  14.950  16.730
 3181DPPC   GL159859  22.010  14.710  17.120
 3181DPPC   GL259860  22.320  14.810  17.280
 3181DPPC   C1A59861  21.950  14.710  17.610
 3181DPPC   C2A59862  22.060  14.550  17.960
 3181DPPC   C3A59863  22.090  14.830  18.220
 3181DPPC   C4A59864  22.490  14.810  18.420
 3181DPPC   C1B59865  22.390  14.730  17.660
 3181DPPC   C2B59866  22.620  14.910  17.960
 3181DPPC   C3B59867  22.590  15.360  18.210
 3181DPPC   C4B59868  22.870  15.710  18.050
 3182DPPC   NC359869  28.005  14.310  45.320
 3182DPPC   PO459870  28.315  14.160  45.010
 3182DPPC   GL159871  28.135  13.980  44.740
 3182DPPC   GL259872  28.275  13.850  44.450
 3182DPPC   C1A59873  27.785  13.690  44.530
 3182DPPC   C2A59874  27.545  13.590  44.200
 3182DPPC   C3A59875  27.595  13.530  43.810
 3182DPPC   C4A59876  27.535  13.420  43.430
 3182DPPC   C1B59877  28.015  14.110  44.280
 3182DPPC   C2B59878  27.635  14.040  44.070
 3182DPPC   C3B59879  27.205  13.850  43.860
 3182DPPC   C4B59880  27.075  13.700  43.530
 3183DPPC   NC359881  19.590   0.060  41.080
 3183DPPC   PO459882  19.470   0.440  40.820
 3183DPPC   GL159883  19.290   0.080  40.550
 3183DPPC   GL259884  19.160   0.170  40.280
 3183DPPC   C1A59885  19.190  26.160  40.330
 3183DPPC   C2A59886  19.390  25.780  40.120
 3183DPPC   C3A59887  19.400  25.610  39.730
 3183DPPC   C4A59888  19.180  25.260  39.570
 3183DPPC   C1B59889  19.290   0.140  39.860
 3183DPPC   C2B59890  19.170  26.390  39.450
 3183DPPC   C3B59891  19.440  26.100  39.190
 3183DPPC   C4B59892  19.540  25.980  38.870
 3184DPPC   NC359893  20.270  14.780  21.820
 3184DPPC   PO459894  20.370  15.180  21.630
 3184DPPC   GL159895  20.180  15.010  21.320
 3184DPPC   GL259896  20.050  15.350  21.270
 3184DPPC   C1A59897  20.200  14.930  20.840
 3184DPPC   C2A59898  20.330  15.040  20.540
 3184DPPC   C3A59899  20.320  15.190  20.170
 3184DPPC   C4A59900  20.250  15.060  19.790
 3184DPPC   C1B59901  19.690  15.110  20.960
 3184DPPC   C2B59902  19.720  14.720  20.760
 3184DPPC   C3B59903  19.570  14.370  20.520
 3184DPPC   C4B59904  19.260  14.360  20.160
 3185DPPC   NC359905  22.570   6.310  22.890
 3185DPPC   PO459906  23.070   6.330  22.910
 3185DPPC   GL159907  23.120   6.710  23.130
 3185DPPC   GL259908  22.900   6.720  23.230
 3185DPPC   C1A59909  23.480   6.880  23.180
 3185DPPC   C2A59910  23.920   7.060  23.230
 3185DPPC   C3A59911  24.230   7.520  23.160
 3185DPPC   C4A59912  24.430   7.680  23.480
 3185DPPC   C1B59913  23.140   6.970  23.590
 3185DPPC   C2B59914  23.550   6.930  23.650
 3185DPPC   C3B59915  23.930   7.230  23.760
 3185DPPC   C4B59916  24.230   7.500  23.970
 3186DPPC   NC359917  17.550  25.820  21.100
 3186DPPC   PO459918  17.160  25.700  20.900
 3186DPPC   GL159919  17.320  25.250  20.820
 3186DPPC   GL259920  17.610  25.340  21.030
 3186DPPC   C1A59921  17.280  24.850  20.680
 3186DPPC   C2A59922  17.110  24.520  21.020
 3186DPPC   C3A59923  17.030  24.100  21.180
 3186DPPC   C4A59924  17.160  23.870  21.410
 3186DPPC   C1B59925  17.580  24.890  21.070
 3186DPPC   C2B59926  17.610  24.520  21.220
 3186DPPC   C3B59927  17.630  24.080  21.290
 3186DPPC   C4B59928  17.780  23.730  21.520
 3187DPPC   NC359929  20.770   4.290  27.920
 3187DPPC   PO459930  20.940   4.640  27.680
 3187DPPC   GL159931  21.120   5.010  27.530
 3187DPPC   GL259932  20.940   5.280  27.670
 3187DPPC   C1A59933  21.380   5.430  27.650
 3187DPPC   C2A59934  21.230   5.930  27.810
 3187DPPC   C3A59935  21.020   6.130  28.100
 3187DPPC   C4A59936  21.190   6.480  28.470
 3187DPPC   C1B59937  21.130   5.240  27.990
 3187DPPC   C2B59938  21.170   5.270  28.460
 3187DPPC   C3B59939  21.090   5.310  28.880
 3187DPPC   C4B59940  21.240   5.570  29.280
 3188DPPC   NC359941  17.060  22.220  38.840
 3188DPPC   PO459942  16.700  21.840  38.820
 3188DPPC   GL159943  16.540  22.130  39.090
 3188DPPC   GL259944  16.370  21.990  39.360
 3188DPPC   C1A59945  16.520  22.470  39.180
 3188DPPC   C2A59946  16.600  22.760  39.470
 3188DPPC   C3A59947  16.560  22.930  39.910
 3188DPPC   C4A59948  16.660  23.130  40.330
 3188DPPC   C1B59949  16.040  22.030  39.580
 3188DPPC   C2B59950  15.600  22.030  39.530
 3188DPPC   C3B59951  15.290  21.970  39.720
 3188DPPC   C4B59952  14.840  21.960  39.620
 3189DPPC   NC359953  12.410   0.540  30.690
 3189DPPC   PO459954  12.640   0.660  30.340
 3189DPPC   GL159955  12.640   0.250  30.090
 3189DPPC   GL259956  12.860   0.220  29.840
 3189DPPC   C1A59957  12.410  26.350  30.040
 3189DPPC   C2A59958  12.360  25.890  29.850
 3189DPPC   C3A59959  12.620  25.590  29.960
 3189DPPC   C4A59960  13.090  25.410  29.890
 3189DPPC   C1B59961  12.820  26.150  29.900
 3189DPPC   C2B59962  13.010  25.830  30.230
 3189DPPC   C3B59963  13.450  25.680  30.140
 3189DPPC   C4B59964  13.870  25.490  30.020
 3190DPPC   NC359965  24.100  26.340  27.930
 3190DPPC   PO459966  24.010  26.300  28.420
 3190DPPC   GL159967  23.790  25.900  28.570
 3190DPPC   GL259968  23.670  25.780  28.860
 3190DPPC   C1A59969  23.680  25.450  28.410
 3190DPPC   C2A59970  23.410  25.160  28.500
 3190DPPC   C3A59971  23.360  24.830  28.710
 3190DPPC   C4A59972  23.380  24.410  28.600
 3190DPPC   C1B59973  23.200  25.590  29.020
 3190DPPC   C2B59974  22.830  25.780  28.930
 3190DPPC   C3B59975  22.430  25.760  29.010
 3190DPPC   C4B59976  22.100  25.810  29.140
 3191DPPC   NC359977  27.875  21.390  43.910
 3191DPPC   PO459978  28.145  20.970  43.890
 3191DPPC   GL159979  27.755  20.940  43.740
 3191DPPC   GL259980  27.505  21.070  43.810
 3191DPPC   C1A59981  27.645  20.810  43.350
 3191DPPC   C2A59982  27.715  21.080  43.040
 3191DPPC   C3A59983  27.725  21.070  42.550
 3191DPPC   C4A59984  27.495  21.120  42.120
 3191DPPC   C1B59985  27.265  20.990  43.600
 3191DPPC   C2B59986  26.865  20.980  43.230
 3191DPPC   C3B59987  26.715  20.960  42.890
 3191DPPC   C4B59988  26.340  20.800  42.640
 3192DPPC   NC359989  19.440  11.960  46.360
 3192DPPC   PO459990  19.440  12.140  45.950
 3192DPPC   GL159991  19.640  12.430  45.800
 3192DPPC   GL259992  19.460  12.640  45.750
 3192DPPC   C1A59993  20.050  12.580  45.500
 3192DPPC   C2A59994  20.010  12.970  45.230
 3192DPPC   C3A59995  20.000  13.300  44.880
 3192DPPC   C4A59996  19.920  13.490  44.530
 3192DPPC   C1B59997  19.730  12.940  45.680
 3192DPPC   C2B59998  19.910  13.280  45.590
 3192DPPC   C3B59999  20.290  13.440  45.290
 3192DPPC   C4B60000  20.320  13.640  44.860
 3193DPPC   NC360001  18.620   4.840  33.070
 3193DPPC   PO460002  18.550   5.010  32.580
 3193DPPC   GL160003  18.740   5.500  32.670
 3193DPPC   GL260004  18.510   5.730  32.730
 3193DPPC   C1A60005  19.090   5.790  32.530
 3193DPPC   C2A60006  19.360   5.990  32.840
 3193DPPC   C3A60007  19.580   6.310  33.220
 3193DPPC   C4A60008  19.610   6.440  33.640
 3193DPPC   C1B60009  18.700   6.080  32.440
 3193DPPC   C2B60010  18.740   6.350  32.230
 3193DPPC   C3B60011  18.760   6.790  32.060
 3193DPPC   C4B60012  18.840   6.890  31.590
 3194DPPC   NC360013  14.230  11.520  40.860
 3194DPPC   PO460014  14.060  11.900  41.130
 3194DPPC   GL160015  14.450  12.270  41.080
 3194DPPC   GL260016  14.570  12.020  40.910
 3194DPPC   C1A60017  14.820  12.420  41.190
 3194DPPC   C2A60018  15.140  12.540  41.040
 3194DPPC   C3A60019  15.610  12.710  40.790
 3194DPPC   C4A60020  15.770  13.170  40.750
 3194DPPC   C1B60021  14.840  12.230  40.610
 3194DPPC   C2B60022  15.190  12.410  40.560
 3194DPPC   C3B60023  15.490  12.510  40.290
 3194DPPC   C4B60024  15.890  12.630  40.290
 3195DPPC   NC360025  24.050  20.170  26.870
 3195DPPC   PO460026  24.440  19.860  26.890
 3195DPPC   GL160027  24.650  20.230  27.160
 3195DPPC   GL260028  24.650  20.470  26.880
 3195DPPC   C1A60029  24.950  20.510  27.510
 3195DPPC   C2A60030  25.220  20.840  27.490
 3195DPPC   C3A60031  25.150  21.300  27.280
 3195DPPC   C4A60032  24.780  21.550  27.160
 3195DPPC   C1B60033  24.630  20.830  26.690
 3195DPPC   C2B60034  24.770  21.270  26.570
 3195DPPC   C3B60035  25.180  21.540  26.770
 3195DPPC   C4B60036  25.190  21.800  27.170
 3196DPPC   NC360037  13.640  11.250  23.860
 3196DPPC   PO460038  13.420  11.460  24.230
 3196DPPC   GL160039  13.700  11.890  24.370
 3196DPPC   GL260040  13.640  12.240  24.560
 3196DPPC   C1A60041  14.190  11.860  24.460
 3196DPPC   C2A60042  14.560  11.790  24.430
 3196DPPC   C3A60043  15.030  11.740  24.540
 3196DPPC   C4A60044  15.300  11.890  24.790
 3196DPPC   C1B60045  14.090  12.340  24.570
 3196DPPC   C2B60046  14.360  12.760  24.630
 3196DPPC   C3B60047  14.850  12.870  24.690
 3196DPPC   C4B60048  15.130  13.130  24.940
 3197DPPC   NC360049  10.940  19.980  39.710
 3197DPPC   PO460050  11.350  20.020  39.710
 3197DPPC   GL160051  11.700  19.820  39.520
 3197DPPC   GL260052  11.340  19.740  39.350
 3197DPPC   C1A60053  11.920  19.810  39.110
 3197DPPC   C2A60054  12.180  19.950  38.820
 3197DPPC   C3A60055  12.460  20.100  38.560
 3197DPPC   C4A60056  12.570  19.850  38.180
 3197DPPC   C1B60057  11.560  19.460  39.190
 3197DPPC   C2B60058  11.700  19.370  38.830
 3197DPPC   C3B60059  11.970  19.120  38.620
 3197DPPC   C4B60060  12.210  18.920  38.400
 3198DPPC   NC360061  22.930   3.930  27.920
 3198DPPC   PO460062  22.730   4.220  27.630
 3198DPPC   GL160063  22.840   4.560  27.910
 3198DPPC   GL260064  23.080   4.410  28.080
 3198DPPC   C1A60065  22.810   4.970  27.750
 3198DPPC   C2A60066  22.950   5.410  27.650
 3198DPPC   C3A60067  23.380   5.450  27.840
 3198DPPC   C4A60068  23.550   5.760  27.900
 3198DPPC   C1B60069  22.820   4.800  28.310
 3198DPPC   C2B60070  22.810   5.250  28.180
 3198DPPC   C3B60071  22.970   5.710  28.120
 3198DPPC   C4B60072  23.080   5.950  28.170
 3199DPPC   NC360073  33.215  10.440  38.070
 3199DPPC   PO460074  32.855  10.190  38.300
 3199DPPC   GL160075  32.485  10.310  38.040
 3199DPPC   GL260076  32.655  10.350  37.810
 3199DPPC   C1A60077  32.195   9.980  37.950
 3199DPPC   C2A60078  31.755   9.900  37.820
 3199DPPC   C3A60079  31.315   9.870  37.590
 3199DPPC   C4A60080  30.955  10.120  37.510
 3199DPPC   C1B60081  32.265  10.440  37.560
 3199DPPC   C2B60082  31.755  10.360  37.560
 3199DPPC   C3B60083  31.445  10.260  37.250
 3199DPPC   C4B60084  31.055  10.310  36.910
 3200DPPC   NC360085  19.430   6.250  39.730
 3200DPPC   PO460086  19.520   6.330  39.270
 3200DPPC   GL160087  19.340   6.680  39.010
 3200DPPC   GL260088  19.240   6.570  38.650
 3200DPPC   C1A60089  19.370   7.030  38.770
 3200DPPC   C2A60090  19.480   7.330  38.460
 3200DPPC   C3A60091  19.760   7.400  38.170
 3200DPPC   C4A60092  20.090   7.560  37.880
 3200DPPC   C1B60093  19.700   6.670  38.510
 3200DPPC   C2B60094  19.960   7.010  38.240
 3200DPPC   C3B60095  20.370   7.190  38.110
 3200DPPC   C4B60096  20.750   7.290  38.300
 3201DPPC   NC360097  13.410  24.770  22.130
 3201DPPC   PO460098  13.320  24.680  22.500
 3201DPPC   GL160099  13.300  24.390  22.770
 3201DPPC   GL260100  13.230  24.130  22.730
 3201DPPC   C1A60101  13.670  24.400  23.110
 3201DPPC   C2A60102  13.760  24.200  23.460
 3201DPPC   C3A60103  13.870  23.890  23.660
 3201DPPC   C4A60104  14.040  23.660  23.970
 3201DPPC   C1B60105  13.590  24.000  22.830
 3201DPPC   C2B60106  13.880  23.790  23.110
 3201DPPC   C3B60107  14.180  23.610  23.410
 3201DPPC   C4B60108  14.450  23.440  23.770
 3202DPPC   NC360109  30.675   8.660  41.210
 3202DPPC   PO460110  30.225   8.860  41.050
 3202DPPC   GL160111  29.845   8.950  40.820
 3202DPPC   GL260112  29.565   8.740  40.900
 3202DPPC   C1A60113  29.675   9.120  40.500
 3202DPPC   C2A60114  29.675   9.440  40.200
 3202DPPC   C3A60115  29.645   9.880  40.100
 3202DPPC   C4A60116  29.765  10.240  39.870
 3202DPPC   C1B60117  29.355   8.760  40.440
 3202DPPC   C2B60118  29.135   9.100  40.250
 3202DPPC   C3B60119  28.995   9.380  39.970
 3202DPPC   C4B60120  28.615   9.610  39.900
 3203DPPC   NC360121  21.560  23.560  31.630
 3203DPPC   PO460122  21.770  23.580  31.170
 3203DPPC   GL160123  22.160  23.620  30.990
 3203DPPC   GL260124  22.340  23.480  31.210
 3203DPPC   C1A60125  22.410  23.900  30.880
 3203DPPC   C2A60126  22.310  24.250  30.590
 3203DPPC   C3A60127  22.580  24.220  30.130
 3203DPPC   C4A60128  22.830  24.490  30.030
 3203DPPC   C1B60129  22.670  23.840  31.360
 3203DPPC   C2B60130  22.710  24.280  31.190
 3203DPPC   C3B60131  22.570  24.620  30.930
 3203DPPC   C4B60132  22.420  24.720  30.440
 3204DPPC   NC360133  12.910  10.900  27.060
 3204DPPC   PO460134  12.940  11.020  27.440
 3204DPPC   GL160135  13.310  11.110  27.730
 3204DPPC   GL260136  13.450  10.950  27.660
 3204DPPC   C1A60137  13.480  11.430  27.810
 3204DPPC   C2A60138  13.810  11.710  27.890
 3204DPPC   C3A60139  13.840  12.140  27.880
 3204DPPC   C4A60140  13.510  12.410  28.180
 3204DPPC   C1B60141  13.850  11.180  27.970
 3204DPPC   C2B60142  14.110  11.480  28.180
 3204DPPC   C3B60143  14.270  11.810  28.090
 3204DPPC   C4B60144  14.310  12.270  27.910
 3205DPPC   NC360145  15.460  22.800  25.380
 3205DPPC   PO460146  15.030  23.010  25.630
 3205DPPC   GL160147  14.810  23.290  25.630
 3205DPPC   GL260148  14.780  23.480  26.030
 3205DPPC   C1A60149  14.510  23.580  25.500
 3205DPPC   C2A60150  14.330  23.970  25.600
 3205DPPC   C3A60151  14.570  24.290  25.640
 3205DPPC   C4A60152  14.860  24.770  25.560
 3205DPPC   C1B60153  14.460  23.740  25.990
 3205DPPC   C2B60154  14.170  24.040  26.060
 3205DPPC   C3B60155  14.150  24.410  25.760
 3205DPPC   C4B60156  14.310  24.700  25.420
 3206DPPC   NC360157  31.945   6.800  33.940
 3206DPPC   PO460158  31.905   6.880  34.370
 3206DPPC   GL160159  31.715   7.270  34.050
 3206DPPC   GL260160  31.535   7.140  33.970
 3206DPPC   C1A60161  31.525   7.600  33.700
 3206DPPC   C2A60162  31.155   7.960  33.780
 3206DPPC   C3A60163  30.875   8.360  33.590
 3206DPPC   C4A60164  30.975   8.770  33.510
 3206DPPC   C1B60165  31.135   7.320  33.910
 3206DPPC   C2B60166  30.865   7.560  33.570
 3206DPPC   C3B60167  30.495   7.740  33.380
 3206DPPC   C4B60168  30.245   8.090  33.340
 3207DPPC   NC360169  19.630   0.460  24.180
 3207DPPC   PO460170  19.770   0.660  24.630
 3207DPPC   GL160171  19.760   0.460  25.050
 3207DPPC   GL260172  19.990   0.260  25.280
 3207DPPC   C1A60173  19.480   0.070  25.180
 3207DPPC   C2A60174  19.260  26.250  25.240
 3207DPPC   C3A60175  19.120  25.870  25.600
 3207DPPC   C4A60176  18.940  25.530  25.860
 3207DPPC   C1B60177  20.010  26.330  25.380
 3207DPPC   C2B60178  19.720  25.870  25.270
 3207DPPC   C3B60179  19.320  25.740  25.150
 3207DPPC   C4B60180  19.100  25.490  25.020
 3208DPPC   NC360181  21.170  23.060  33.710
 3208DPPC   PO460182  21.420  23.480  33.650
 3208DPPC   GL160183  21.650  23.890  33.620
 3208DPPC   GL260184  22.070  23.800  33.780
 3208DPPC   C1A60185  21.710  24.310  33.620
 3208DPPC   C2A60186  21.950  24.680  33.700
 3208DPPC   C3A60187  22.110  25.010  33.460
 3208DPPC   C4A60188  22.340  24.980  33.110
 3208DPPC   C1B60189  22.170  24.230  33.740
 3208DPPC   C2B60190  22.420  24.560  33.950
 3208DPPC   C3B60191  22.750  24.770  33.830
 3208DPPC   C4B60192  22.650  25.050  33.490
 3209DPPC   NC360193  16.580   7.370  25.300
 3209DPPC   PO460194  16.880   7.210  25.750
 3209DPPC   GL160195  17.320   7.370  25.830
 3209DPPC   GL260196  17.290   7.680  26.050
 3209DPPC   C1A60197  17.600   7.160  26.160
 3209DPPC   C2A60198  17.910   6.940  26.350
 3209DPPC   C3A60199  18.400   6.990  26.380
 3209DPPC   C4A60200  18.600   6.870  26.730
 3209DPPC   C1B60201  17.770   7.610  26.150
 3209DPPC   C2B60202  18.080   7.360  26.250
 3209DPPC   C3B60203  18.270   7.390  26.640
 3209DPPC   C4B60204  18.510   7.420  26.970
 3210DPPC   NC360205  10.350  25.450  33.050
 3210DPPC   PO460206  10.330  25.110  33.410
 3210DPPC   GL160207  10.610  24.630  33.320
 3210DPPC   GL260208  10.770  24.620  33.560
 3210DPPC   C1A60209  10.920  24.240  33.250
 3210DPPC   C2A60210  11.200  23.980  33.160
 3210DPPC   C3A60211  11.610  23.790  33.210
 3210DPPC   C4A60212  11.780  23.660  32.900
 3210DPPC   C1B60213  11.170  24.590  33.440
 3210DPPC   C2B60214  11.440  24.360  33.750
 3210DPPC   C3B60215  11.300  24.180  34.060
 3210DPPC   C4B60216  11.520  23.970  34.420
 3211DPPC   NC360217  16.070  14.140  26.630
 3211DPPC   PO460218  16.310  13.830  26.550
 3211DPPC   GL160219  16.120  13.430  26.440
 3211DPPC   GL260220  16.050  13.470  26.770
 3211DPPC   C1A60221  15.970  13.240  26.070
 3211DPPC   C2A60222  15.540  13.090  26.120
 3211DPPC   C3A60223  15.230  12.980  26.280
 3211DPPC   C4A60224  14.800  13.030  26.260
 3211DPPC   C1B60225  15.650  13.390  26.820
 3211DPPC   C2B60226  15.250  13.440  26.590
 3211DPPC   C3B60227  14.810  13.460  26.520
 3211DPPC   C4B60228  14.430  13.230  26.510
 3212DPPC   NC360229  24.580   3.100  27.830
 3212DPPC   PO460230  24.540   3.390  28.230
 3212DPPC   GL160231  24.510   3.730  28.370
 3212DPPC   GL260232  24.680   3.740  28.540
 3212DPPC   C1A60233  24.520   4.090  28.090
 3212DPPC   C2A60234  24.630   4.560  28.130
 3212DPPC   C3A60235  24.720   4.910  28.410
 3212DPPC   C4A60236  24.970   5.370  28.450
 3212DPPC   C1B60237  24.670   4.160  28.530
 3212DPPC   C2B60238  24.590   4.540  28.720
 3212DPPC   C3B60239  24.630   4.840  29.110
 3212DPPC   C4B60240  24.770   5.220  29.010
 3213DPPC   NC360241  13.800  19.930  26.590
 3213DPPC   PO460242  13.620  19.530  26.750
 3213DPPC   GL160243  13.370  19.580  26.490
 3213DPPC   GL260244  13.520  19.750  26.200
 3213DPPC   C1A60245  12.900  19.490  26.370
 3213DPPC   C2A60246  12.610  19.380  26.050
 3213DPPC   C3A60247  12.360  19.270  25.600
 3213DPPC   C4A60248  12.260  18.930  25.350
 3213DPPC   C1B60249  13.120  19.880  26.160
 3213DPPC   C2B60250  12.570  19.880  26.250
 3213DPPC   C3B60251  12.150  19.930  26.410
 3213DPPC   C4B60252  11.750  19.870  26.240
 3214DPPC   NC360253  11.190  16.260  24.960
 3214DPPC   PO460254  10.990  16.200  25.260
 3214DPPC   GL160255  11.020  16.520  25.590
 3214DPPC   GL260256  11.270  16.610  25.380
 3214DPPC   C1A60257  11.020  16.790  25.860
 3214DPPC   C2A60258  10.920  17.210  25.910
 3214DPPC   C3A60259  10.870  17.670  25.930
 3214DPPC   C4A60260  10.760  18.090  26.090
 3214DPPC   C1B60261  11.510  16.720  25.740
 3214DPPC   C2B60262  11.690  16.600  26.170
 3214DPPC   C3B60263  11.990  16.550  26.540
 3214DPPC   C4B60264  12.350  16.630  26.420
 3215DPPC   NC360265  15.320  17.060  24.100
 3215DPPC   PO460266  15.420  17.060  23.740
 3215DPPC   GL160267  14.920  16.950  23.730
 3215DPPC   GL260268  14.790  17.000  24.120
 3215DPPC   C1A60269  14.560  16.880  23.640
 3215DPPC   C2A60270  14.160  16.840  23.420
 3215DPPC   C3A60271  14.150  16.580  23.230
 3215DPPC   C4A60272  13.700  16.460  23.160
 3215DPPC   C1B60273  14.430  16.660  24.090
 3215DPPC   C2B60274  14.170  16.440  23.780
 3215DPPC   C3B60275  14.100  16.080  23.440
 3215DPPC   C4B60276  14.450  15.910  23.410
 3216DPPC   NC360277  14.120  13.010  21.820
 3216DPPC   PO460278  13.770  13.290  21.560
 3216DPPC   GL160279  14.080  13.500  21.770
 3216DPPC   GL260280  14.400  13.480  21.800
 3216DPPC   C1A60281  14.200  13.910  22.030
 3216DPPC   C2A60282  14.410  14.210  22.440
 3216DPPC   C3A60283  14.790  14.490  22.500
 3216DPPC   C4A60284  15.060  14.690  22.800
 3216DPPC   C1B60285  14.510  13.590  22.240
 3216DPPC   C2B60286  14.780  13.900  22.500
 3216DPPC   C3B60287  15.060  14.190  22.790
 3216DPPC   C4B60288  15.380  14.330  23.050
 3217DPPC   NC360289  33.765  11.390  34.530
 3217DPPC   PO460290  33.605  11.780  34.370
 3217DPPC   GL160291  33.245  11.560  34.280
 3217DPPC   GL260292  33.215  11.180  34.340
 3217DPPC   C1A60293  32.895  11.510  34.590
 3217DPPC   C2A60294  32.845  11.090  34.880
 3217DPPC   C3A60295  32.755  10.640  35.020
 3217DPPC   C4A60296  32.395  10.250  34.820
 3217DPPC   C1B60297  32.775  11.180  34.230
 3217DPPC   C2B60298  32.485  11.250  34.410
 3217DPPC   C3B60299  32.345  11.260  34.740
 3217DPPC   C4B60300  32.435  11.050  35.040
 3218DPPC   NC360301  21.880  11.010  23.210
 3218DPPC   PO460302  21.580  11.250  23.000
 3218DPPC   GL160303  21.500  10.940  22.790
 3218DPPC   GL260304  21.180  10.900  22.880
 3218DPPC   C1A60305  21.530  10.530  22.780
 3218DPPC   C2A60306  21.280  10.210  22.620
 3218DPPC   C3A60307  21.090   9.820  22.570
 3218DPPC   C4A60308  21.020   9.460  22.820
 3218DPPC   C1B60309  20.860  10.640  22.720
 3218DPPC   C2B60310  20.730  10.220  22.590
 3218DPPC   C3B60311  20.640  10.040  22.270
 3218DPPC   C4B60312  20.520   9.870  21.840
 3219DPPC   NC360313  24.710  26.310  26.820
 3219DPPC   PO460314  24.470  25.920  26.990
 3219DPPC   GL160315  24.010  25.830  26.980
 3219DPPC   GL260316  23.940  25.710  27.210
 3219DPPC   C1A60317  23.710  25.540  26.720
 3219DPPC   C2A60318  23.370  25.500  26.680
 3219DPPC   C3A60319  23.210  25.250  26.360
 3219DPPC   C4A60320  23.030  25.000  26.050
 3219DPPC   C1B60321  23.720  25.470  27.510
 3219DPPC   C2B60322  23.650  25.030  27.550
 3219DPPC   C3B60323  23.400  24.670  27.700
 3219DPPC   C4B60324  23.130  24.750  27.990
 3220DPPC   NC360325  24.260  19.160  25.340
 3220DPPC   PO460326  24.540  19.410  25.610
 3220DPPC   GL160327  24.850  19.770  25.390
 3220DPPC   GL260328  24.920  20.010  25.600
 3220DPPC   C1A60329  25.260  19.950  25.190
 3220DPPC   C2A60330  25.590  20.270  25.110
 3220DPPC   C3A60331  25.970  20.310  25.300
 3220DPPC   C4A60332  26.420  20.500  25.200
 3220DPPC   C1B60333  25.220  20.450  25.600
 3220DPPC   C2B60334  25.620  20.680  25.600
 3220DPPC   C3B60335  25.900  20.780  25.380
 3220DPPC   C4B60336  26.200  20.920  25.150
 3221DPPC   NC360337  15.630  24.060  30.250
 3221DPPC   PO460338  15.820  24.110  30.660
 3221DPPC   GL160339  15.570  24.430  30.750
 3221DPPC   GL260340  15.350  24.470  30.410
 3221DPPC   C1A60341  15.320  24.660  31.000
 3221DPPC   C2A60342  14.960  24.970  31.000
 3221DPPC   C3A60343  14.850  25.280  30.710
 3221DPPC   C4A60344  14.620  25.430  30.210
 3221DPPC   C1B60345  15.190  24.850  30.520
 3221DPPC   C2B60346  14.900  25.060  30.300
 3221DPPC   C3B60347  14.550  24.930  30.030
 3221DPPC   C4B60348  14.170  25.060  29.940
 3222DPPC   NC360349  23.670   5.070  25.370
 3222DPPC   PO460350  23.380   4.910  25.680
 3222DPPC   GL160351  23.560   5.300  25.740
 3222DPPC   GL260352  23.630   5.520  25.450
 3222DPPC   C1A60353  23.630   5.690  25.930
 3222DPPC   C2A60354  23.660   6.210  26.020
 3222DPPC   C3A60355  24.060   6.370  25.770
 3222DPPC   C4A60356  24.380   6.130  25.510
 3222DPPC   C1B60357  23.510   5.950  25.530
 3222DPPC   C2B60358  23.550   6.320  25.410
 3222DPPC   C3B60359  23.650   6.600  25.580
 3222DPPC   C4B60360  23.930   6.960  25.590
 3223DPPC   NC360361  21.640  20.860  23.050
 3223DPPC   PO460362  21.300  20.780  22.630
 3223DPPC   GL160363  21.630  20.980  22.560
 3223DPPC   GL260364  21.450  21.260  22.760
 3223DPPC   C1A60365  21.960  20.950  22.210
 3223DPPC   C2A60366  21.850  20.910  21.800
 3223DPPC   C3A60367  21.960  20.850  21.430
 3223DPPC   C4A60368  21.720  20.850  21.050
 3223DPPC   C1B60369  21.600  21.520  22.440
 3223DPPC   C2B60370  21.750  21.890  22.370
 3223DPPC   C3B60371  21.500  22.170  22.170
 3223DPPC   C4B60372  21.210  22.500  22.070
 3224DPPC   NC360373  27.235  17.760  38.530
 3224DPPC   PO460374  27.455  18.260  38.350
 3224DPPC   GL160375  27.765  18.470  38.120
 3224DPPC   GL260376  27.565  18.750  38.060
 3224DPPC   C1A60377  28.125  18.820  38.150
 3224DPPC   C2A60378  28.445  19.100  37.960
 3224DPPC   C3A60379  28.835  19.220  38.230
 3224DPPC   C4A60380  29.235  19.460  38.150
 3224DPPC   C1B60381  27.775  19.080  38.370
 3224DPPC   C2B60382  28.155  19.240  38.390
 3224DPPC   C3B60383  28.415  19.560  38.420
 3224DPPC   C4B60384  28.675  19.830  38.710
 3225DPPC   NC360385  13.860   1.840  33.710
 3225DPPC   PO460386  14.200   1.690  33.650
 3225DPPC   GL160387  14.420   1.290  33.580
 3225DPPC   GL260388  14.580   1.380  33.310
 3225DPPC   C1A60389  14.200   1.040  33.210
 3225DPPC   C2A60390  14.140   0.650  33.000
 3225DPPC   C3A60391  13.900   0.340  33.090
 3225DPPC   C4A60392  13.830  26.380  33.080
 3225DPPC   C1B60393  14.840   1.380  33.740
 3225DPPC   C2B60394  15.300   1.240  33.810
 3225DPPC   C3B60395  15.420   0.960  34.070
 3225DPPC   C4B60396  15.490   0.550  34.050
 3226DPPC   NC360397  18.400  21.670  22.720
 3226DPPC   PO460398  17.960  21.790  22.610
 3226DPPC   GL160399  18.160  22.140  22.590
 3226DPPC   GL260400  18.490  22.180  22.540
 3226DPPC   C1A60401  18.170  22.480  22.320
 3226DPPC   C2A60402  18.330  22.720  21.990
 3226DPPC   C3A60403  18.520  23.100  21.720
 3226DPPC   C4A60404  18.700  23.290  21.360
 3226DPPC   C1B60405  18.470  22.210  22.030
 3226DPPC   C2B60406  18.380  22.360  21.660
 3226DPPC   C3B60407  18.550  22.670  21.450
 3226DPPC   C4B60408  18.600  22.870  21.100
 3227DPPC   NC360409  28.855   8.840  22.410
 3227DPPC   PO460410  29.095   9.300  22.530
 3227DPPC   GL160411  28.725   9.330  22.560
 3227DPPC   GL260412  28.585   9.380  22.900
 3227DPPC   C1A60413  28.375   9.550  22.360
 3227DPPC   C2A60414  27.995   9.640  22.480
 3227DPPC   C3A60415  27.595   9.820  22.610
 3227DPPC   C4A60416  27.315  10.120  22.770
 3227DPPC   C1B60417  28.275   9.790  22.830
 3227DPPC   C2B60418  28.365  10.190  23.040
 3227DPPC   C3B60419  28.145  10.430  23.360
 3227DPPC   C4B60420  27.765  10.310  23.700
 3228DPPC   NC360421  27.595   5.110  26.500
 3228DPPC   PO460422  27.995   5.120  26.590
 3228DPPC   GL160423  27.985   5.540  26.500
 3228DPPC   GL260424  28.065   5.590  26.290
 3228DPPC   C1A60425  27.825   5.900  26.770
 3228DPPC   C2A60426  27.535   6.280  26.950
 3228DPPC   C3A60427  27.485   6.610  27.230
 3228DPPC   C4A60428  27.215   6.870  27.470
 3228DPPC   C1B60429  28.075   6.060  26.260
 3228DPPC   C2B60430  27.795   6.380  26.470
 3228DPPC   C3B60431  27.375   6.480  26.350
 3228DPPC   C4B60432  27.065   6.720  26.430
 3229DPPC   NC360433  21.380  21.510  24.660
 3229DPPC   PO460434  21.500  21.780  24.940
 3229DPPC   GL160435  21.690  21.930  24.720
 3229DPPC   GL260436  21.860  22.160  24.860
 3229DPPC   C1A60437  21.750  22.100  24.350
 3229DPPC   C2A60438  22.010  22.460  24.080
 3229DPPC   C3A60439  22.330  22.430  23.720
 3229DPPC   C4A60440  22.570  22.430  23.280
 3229DPPC   C1B60441  21.980  22.560  24.630
 3229DPPC   C2B60442  22.380  22.800  24.640
 3229DPPC   C3B60443  22.490  23.180  24.710
 3229DPPC   C4B60444  22.480  23.660  24.760
 3230DPPC   NC360445  24.460  20.880  35.440
 3230DPPC   PO460446  24.650  20.880  35.880
 3230DPPC   GL160447  24.920  21.170  35.810
 3230DPPC   GL260448  24.850  21.420  35.810
 3230DPPC   C1A60449  25.280  21.400  35.510
 3230DPPC   C2A60450  25.440  21.670  35.230
 3230DPPC   C3A60451  25.760  22.100  35.130
 3230DPPC   C4A60452  25.960  22.510  35.290
 3230DPPC   C1B60453  25.120  21.730  35.930
 3230DPPC   C2B60454  25.170  21.950  36.170
 3230DPPC   C3B60455  25.460  22.170  36.120
 3230DPPC   C4B60456  25.660  22.400  36.370
 3231DPPC   NC360457  30.495   8.160  40.370
 3231DPPC   PO460458  30.105   8.170  40.130
 3231DPPC   GL160459  29.745   8.180  39.850
 3231DPPC   GL260460  29.635   8.450  40.050
 3231DPPC   C1A60461  29.485   8.030  39.480
 3231DPPC   C2A60462  29.165   8.200  39.260
 3231DPPC   C3A60463  28.785   8.340  39.260
 3231DPPC   C4A60464  28.425   8.760  39.210
 3231DPPC   C1B60465  29.255   8.240  39.920
 3231DPPC   C2B60466  28.975   8.470  39.670
 3231DPPC   C3B60467  28.855   8.800  39.480
 3231DPPC   C4B60468  29.065   9.290  39.470
 3232DPPC   NC360469  26.635   3.660  30.230
 3232DPPC   PO460470  26.280   3.420  29.860
 3232DPPC   GL160471  26.495   3.890  29.800
 3232DPPC   GL260472  26.370   4.190  29.890
 3232DPPC   C1A60473  26.715   4.230  29.560
 3232DPPC   C2A60474  26.845   4.660  29.750
 3232DPPC   C3A60475  26.705   5.120  29.890
 3232DPPC   C4A60476  26.635   5.500  30.030
 3232DPPC   C1B60477  26.240   4.510  30.080
 3232DPPC   C2B60478  26.050   4.830  30.420
 3232DPPC   C3B60479  25.940   5.140  30.560
 3232DPPC   C4B60480  26.140   5.520  30.330
 3233DPPC   NC360481  24.810  16.800  29.630
 3233DPPC   PO460482  25.250  16.620  29.900
 3233DPPC   GL160483  25.220  17.000  30.000
 3233DPPC   GL260484  25.280  17.190  29.830
 3233DPPC   C1A60485  25.320  17.320  30.280
 3233DPPC   C2A60486  25.400  17.720  30.350
 3233DPPC   C3A60487  25.810  17.960  30.260
 3233DPPC   C4A60488  25.870  18.200  30.040
 3233DPPC   C1B60489  25.400  17.690  29.810
 3233DPPC   C2B60490  25.330  18.040  29.810
 3233DPPC   C3B60491  25.220  18.330  29.470
 3233DPPC   C4B60492  24.990  18.340  29.210
 3234DPPC   NC360493  15.250  23.650  42.690
 3234DPPC   PO460494  15.590  23.890  42.810
 3234DPPC   GL160495  15.860  23.690  42.510
 3234DPPC   GL260496  15.650  23.380  42.530
 3234DPPC   C1A60497  16.070  23.860  42.150
 3234DPPC   C2A60498  16.570  23.920  41.950
 3234DPPC   C3A60499  16.730  23.760  41.740
 3234DPPC   C4A60500  16.870  23.520  41.530
 3234DPPC   C1B60501  15.970  23.350  42.140
 3234DPPC   C2B60502  16.290  23.480  41.820
 3234DPPC   C3B60503  16.280  23.880  41.550
 3234DPPC   C4B60504  16.180  24.330  41.500
 3235DPPC   NC360505  26.875  19.840  46.170
 3235DPPC   PO460506  26.675  19.410  46.050
 3235DPPC   GL160507  26.430  19.210  45.660
 3235DPPC   GL260508  26.575  19.420  45.480
 3235DPPC   C1A60509  26.250  19.000  45.330
 3235DPPC   C2A60510  25.960  18.840  44.980
 3235DPPC   C3A60511  25.550  18.910  44.750
 3235DPPC   C4A60512  25.150  18.960  44.600
 3235DPPC   C1B60513  26.260  19.570  45.380
 3235DPPC   C2B60514  26.300  19.750  44.880
 3235DPPC   C3B60515  26.455  19.550  44.590
 3235DPPC   C4B60516  26.835  19.180  44.520
 3236DPPC   NC360517  18.880  12.440  18.560
 3236DPPC   PO460518  19.290  12.480  18.730
 3236DPPC   GL160519  19.670  12.440  18.910
 3236DPPC   GL260520  19.790  12.780  18.950
 3236DPPC   C1A60521  20.040  12.410  19.220
 3236DPPC   C2A60522  20.190  12.540  19.630
 3236DPPC   C3A60523  20.070  12.620  19.960
 3236DPPC   C4A60524  19.680  12.440  20.160
 3236DPPC   C1B60525  20.170  13.100  19.110
 3236DPPC   C2B60526  20.440  13.310  19.510
 3236DPPC   C3B60527  20.850  13.560  19.670
 3236DPPC   C4B60528  21.000  13.960  19.730
 3237DPPC   NC360529  12.140  23.000  22.510
 3237DPPC   PO460530  12.240  23.450  22.550
 3237DPPC   GL160531  12.510  23.230  22.800
 3237DPPC   GL260532  12.740  23.220  22.610
 3237DPPC   C1A60533  12.700  23.150  23.230
 3237DPPC   C2A60534  12.930  23.440  23.400
 3237DPPC   C3A60535  13.130  23.780  23.630
 3237DPPC   C4A60536  13.380  24.060  23.790
 3237DPPC   C1B60537  13.230  23.150  22.580
 3237DPPC   C2B60538  13.590  23.110  22.460
 3237DPPC   C3B60539  14.000  22.990  22.310
 3237DPPC   C4B60540  14.340  22.660  22.480
 3238DPPC   NC360541  23.500  16.320  22.040
 3238DPPC   PO460542  23.650  16.410  21.670
 3238DPPC   GL160543  23.480  16.280  21.130
 3238DPPC   GL260544  23.730  15.990  20.990
 3238DPPC   C1A60545  23.600  16.440  20.650
 3238DPPC   C2A60546  23.200  16.490  20.410
 3238DPPC   C3A60547  22.980  16.540  20.080
 3238DPPC   C4A60548  23.070  16.750  19.780
 3238DPPC   C1B60549  23.780  15.630  20.800
 3238DPPC   C2B60550  24.070  15.610  20.400
 3238DPPC   C3B60551  24.280  15.440  20.070
 3238DPPC   C4B60552  24.680  15.280  20.080
 3239DPPC   NC360553  27.485   9.820  20.410
 3239DPPC   PO460554  27.475   9.460  20.630
 3239DPPC   GL160555  27.265   9.760  20.900
 3239DPPC   GL260556  27.015   9.650  20.800
 3239DPPC   C1A60557  27.155  10.130  21.100
 3239DPPC   C2A60558  27.045  10.430  21.490
 3239DPPC   C3A60559  26.665  10.510  21.780
 3239DPPC   C4A60560  26.465  10.600  22.190
 3239DPPC   C1B60561  26.675   9.900  20.790
 3239DPPC   C2B60562  26.535  10.290  20.560
 3239DPPC   C3B60563  26.360  10.570  20.680
 3239DPPC   C4B60564  26.180  10.760  21.010
 3240DPPC   NC360565  11.570  12.770  28.170
 3240DPPC   PO460566  11.490  13.210  28.290
 3240DPPC   GL160567  11.910  13.420  28.310
 3240DPPC   GL260568  12.000  13.680  28.070
 3240DPPC   C1A60569  12.310  13.340  28.490
 3240DPPC   C2A60570  12.640  13.450  28.730
 3240DPPC   C3A60571  12.910  13.810  28.850
 3240DPPC   C4A60572  13.090  14.210  28.810
 3240DPPC   C1B60573  12.370  13.970  27.980
 3240DPPC   C2B60574  12.740  14.130  28.010
 3240DPPC   C3B60575  13.090  14.180  28.260
 3240DPPC   C4B60576  13.480  14.430  28.430
 3241DPPC   NC360577  23.950  18.280  23.460
 3241DPPC   PO460578  24.120  18.470  23.820
 3241DPPC   GL160579  24.300  18.850  23.510
 3241DPPC   GL260580  24.110  19.000  23.360
 3241DPPC   C1A60581  24.730  19.030  23.320
 3241DPPC   C2A60582  24.870  19.430  23.230
 3241DPPC   C3A60583  25.080  19.790  23.040
 3241DPPC   C4A60584  25.240  19.950  22.560
 3241DPPC   C1B60585  24.350  19.180  22.980
 3241DPPC   C2B60586  24.510  19.550  22.800
 3241DPPC   C3B60587  24.720  19.830  22.630
 3241DPPC   C4B60588  24.710  20.200  22.850
 3242DPPC   NC360589  11.430  14.890  22.800
 3242DPPC   PO460590  11.960  15.010  22.850
 3242DPPC   GL160591  12.410  15.180  22.940
 3242DPPC   GL260592  12.630  15.040  22.920
 3242DPPC   C1A60593  12.720  15.490  23.140
 3242DPPC   C2A60594  12.900  15.690  23.550
 3242DPPC   C3A60595  13.110  15.710  23.800
 3242DPPC   C4A60596  13.350  15.730  24.200
 3242DPPC   C1B60597  13.050  15.040  22.890
 3242DPPC   C2B60598  13.390  15.360  23.050
 3242DPPC   C3B60599  13.460  15.530  23.520
 3242DPPC   C4B60600  13.600  15.900  23.840
 3243DPPC   NC360601  18.180  16.670  22.170
 3243DPPC   PO460602  17.960  16.420  22.420
 3243DPPC   GL160603  17.840  16.270  21.940
 3243DPPC   GL260604  18.120  16.200  21.660
 3243DPPC   C1A60605  17.560  16.060  21.760
 3243DPPC   C2A60606  17.480  16.020  21.390
 3243DPPC   C3A60607  17.340  15.680  21.160
 3243DPPC   C4A60608  17.200  15.730  20.720
 3243DPPC   C1B60609  17.830  16.390  21.390
 3243DPPC   C2B60610  17.570  16.340  21.050
 3243DPPC   C3B60611  17.580  16.010  20.610
 3243DPPC   C4B60612  17.860  16.020  20.300
 3244DPPC   NC360613  14.190   1.150  30.180
 3244DPPC   PO460614  14.360   1.200  30.590
 3244DPPC   GL160615  14.440   0.810  30.550
 3244DPPC   GL260616  14.410   0.770  30.910
 3244DPPC   C1A60617  14.680   0.410  30.640
 3244DPPC   C2A60618  14.820   0.080  30.850
 3244DPPC   C3A60619  15.050  26.210  31.080
 3244DPPC   C4A60620  15.400  26.100  31.020
 3244DPPC   C1B60621  14.540   0.420  31.200
 3244DPPC   C2B60622  14.630  26.400  31.340
 3244DPPC   C3B60623  14.900  26.140  31.630
 3244DPPC   C4B60624  15.070  25.930  31.950
 3245DPPC   NC360625  17.860   6.360  36.660
 3245DPPC   PO460626  17.690   6.670  36.880
 3245DPPC   GL160627  17.970   6.850  36.550
 3245DPPC   GL260628  18.320   6.830  36.530
 3245DPPC   C1A60629  18.110   7.260  36.430
 3245DPPC   C2A60630  18.380   7.520  36.610
 3245DPPC   C3A60631  18.620   7.770  36.810
 3245DPPC   C4A60632  18.810   8.180  36.820
 3245DPPC   C1B60633  18.660   7.140  36.360
 3245DPPC   C2B60634  18.910   7.570  36.450
 3245DPPC   C3B60635  19.180   8.020  36.450
 3245DPPC   C4B60636  19.320   8.400  36.650
 3246DPPC   NC360637  16.580   8.870  24.020
 3246DPPC   PO460638  16.600   8.710  24.490
 3246DPPC   GL160639  16.640   8.860  24.940
 3246DPPC   GL260640  16.940   8.940  24.870
 3246DPPC   C1A60641  16.610   9.290  25.260
 3246DPPC   C2A60642  16.760   9.410  25.630
 3246DPPC   C3A60643  16.580   9.670  26.010
 3246DPPC   C4A60644  16.570   9.650  26.550
 3246DPPC   C1B60645  17.290   9.110  24.870
 3246DPPC   C2B60646  17.620   9.270  24.660
 3246DPPC   C3B60647  18.040   9.240  24.620
 3246DPPC   C4B60648  18.350   9.170  24.400
 3247DPPC   NC360649  32.515  16.830  30.670
 3247DPPC   PO460650  32.615  16.610  31.110
 3247DPPC   GL160651  32.225  16.580  31.180
 3247DPPC   GL260652  32.265  16.390  31.470
 3247DPPC   C1A60653  31.895  16.360  30.930
 3247DPPC   C2A60654  31.555  16.150  30.740
 3247DPPC   C3A60655  31.325  16.110  30.440
 3247DPPC   C4A60656  31.345  15.850  30.180
 3247DPPC   C1B60657  31.865  16.180  31.440
 3247DPPC   C2B60658  31.475  16.180  31.300
 3247DPPC   C3B60659  31.235  15.960  31.330
 3247DPPC   C4B60660  30.805  15.850  31.310
 3248DPPC   NC360661  16.330  21.790  23.820
 3248DPPC   PO460662  16.230  22.190  23.630
 3248DPPC   GL160663  16.120  22.470  23.350
 3248DPPC   GL260664  15.940  22.270  23.140
 3248DPPC   C1A60665  16.380  22.710  23.120
 3248DPPC   C2A60666  16.430  22.850  22.720
 3248DPPC   C3A60667  16.430  23.050  22.300
 3248DPPC   C4A60668  16.430  23.370  21.960
 3248DPPC   C1B60669  15.960  22.570  22.850
 3248DPPC   C2B60670  15.960  22.800  22.480
 3248DPPC   C3B60671  16.060  22.570  22.130
 3248DPPC   C4B60672  16.000  22.480  21.710
 3249DPPC   NC360673  21.790  19.040  32.140
 3249DPPC   PO460674  22.100  18.920  32.580
 3249DPPC   GL160675  22.470  19.110  32.390
 3249DPPC   GL260676  22.590  18.790  32.400
 3249DPPC   C1A60677  22.850  19.110  32.200
 3249DPPC   C2A60678  23.330  19.060  32.130
 3249DPPC   C3A60679  23.660  19.020  32.440
 3249DPPC   C4A60680  23.990  18.790  32.460
 3249DPPC   C1B60681  22.970  18.650  32.410
 3249DPPC   C2B60682  23.270  18.610  32.270
 3249DPPC   C3B60683  23.490  18.620  31.980
 3249DPPC   C4B60684  23.730  18.410  31.680
 3250DPPC   NC360685  27.595   9.010  20.990
 3250DPPC   PO460686  27.385   8.960  21.410
 3250DPPC   GL160687  27.205   9.360  21.580
 3250DPPC   GL260688  27.205   9.650  21.440
 3250DPPC   C1A60689  26.935   9.520  21.860
 3250DPPC   C2A60690  26.685   9.750  22.080
 3250DPPC   C3A60691  26.455  10.110  22.070
 3250DPPC   C4A60692  26.060  10.350  22.040
 3250DPPC   C1B60693  27.035   9.990  21.730
 3250DPPC   C2B60694  26.995  10.200  22.130
 3250DPPC   C3B60695  26.965  10.630  22.340
 3250DPPC   C4B60696  26.695  10.840  22.690
 3251DPPC   NC360697  25.560  24.260  24.680
 3251DPPC   PO460698  25.940  24.160  24.920
 3251DPPC   GL160699  25.590  24.010  25.090
 3251DPPC   GL260700  25.260  24.090  25.060
 3251DPPC   C1A60701  25.360  23.610  25.280
 3251DPPC   C2A60702  24.940  23.450  25.450
 3251DPPC   C3A60703  24.580  23.180  25.540
 3251DPPC   C4A60704  24.630  22.930  25.900
 3251DPPC   C1B60705  24.860  23.960  25.120
 3251DPPC   C2B60706  24.430  23.970  25.270
 3251DPPC   C3B60707  24.100  23.670  25.260
 3251DPPC   C4B60708  24.100  23.350  24.890
 3252DPPC   NC360709  32.145  13.670  26.460
 3252DPPC   PO460710  32.125  13.150  26.470
 3252DPPC   GL160711  31.705  13.180  26.410
 3252DPPC   GL260712  31.605  13.000  26.620
 3252DPPC   C1A60713  31.295  13.380  26.310
 3252DPPC   C2A60714  31.075  13.290  26.700
 3252DPPC   C3A60715  30.795  13.620  26.920
 3252DPPC   C4A60716  30.835  14.150  26.860
 3252DPPC   C1B60717  31.235  12.730  26.570
 3252DPPC   C2B60718  30.805  12.900  26.450
 3252DPPC   C3B60719  30.455  13.060  26.560
 3252DPPC   C4B60720  30.095  13.290  26.800
 3253DPPC   NC360721  16.540   6.330  29.700
 3253DPPC   PO460722  16.750   6.700  29.830
 3253DPPC   GL160723  16.990   7.010  29.690
 3253DPPC   GL260724  17.290   7.190  29.930
 3253DPPC   C1A60725  17.140   7.250  29.360
 3253DPPC   C2A60726  17.580   7.480  29.310
 3253DPPC   C3A60727  17.970   7.390  29.190
 3253DPPC   C4A60728  18.300   7.100  29.290
 3253DPPC   C1B60729  17.380   7.490  30.190
 3253DPPC   C2B60730  17.590   7.440  30.650
 3253DPPC   C3B60731  17.890   7.790  30.690
 3253DPPC   C4B60732  18.350   7.900  30.880
 3254DPPC   NC360733  20.550  19.760  22.290
 3254DPPC   PO460734  20.340  19.960  22.000
 3254DPPC   GL160735  20.280  20.210  21.620
 3254DPPC   GL260736  20.330  19.980  21.410
 3254DPPC   C1A60737  20.440  20.470  21.360
 3254DPPC   C2A60738  20.570  20.860  21.150
 3254DPPC   C3A60739  20.900  21.200  20.880
 3254DPPC   C4A60740  20.950  21.490  20.550
 3254DPPC   C1B60741  20.550  20.110  21.030
 3254DPPC   C2B60742  20.980  20.010  20.910
 3254DPPC   C3B60743  21.310  19.990  20.650
 3254DPPC   C4B60744  21.690  19.940  20.590
 3255DPPC   NC360745  14.060   9.490  32.540
 3255DPPC   PO460746  14.160   9.240  32.120
 3255DPPC   GL160747  14.270   9.610  31.940
 3255DPPC   GL260748  14.190   9.830  32.240
 3255DPPC   C1A60749  14.710   9.640  31.690
 3255DPPC   C2A60750  14.940   9.830  31.350
 3255DPPC   C3A60751  15.330   9.820  31.140
 3255DPPC   C4A60752  15.710  10.010  30.990
 3255DPPC   C1B60753  14.520  10.020  32.140
 3255DPPC   C2B60754  14.960   9.950  32.210
 3255DPPC   C3B60755  15.210  10.180  32.500
 3255DPPC   C4B60756  15.560  10.350  32.820
 3256DPPC   NC360757  18.400   5.320  33.730
 3256DPPC   PO460758  18.250   5.750  33.740
 3256DPPC   GL160759  18.690   5.820  33.670
 3256DPPC   GL260760  18.720   5.930  33.410
 3256DPPC   C1A60761  18.980   6.140  33.820
 3256DPPC   C2A60762  19.190   6.460  33.900
 3256DPPC   C3A60763  19.570   6.740  34.010
 3256DPPC   C4A60764  20.000   6.830  34.030
 3256DPPC   C1B60765  18.750   6.210  33.000
 3256DPPC   C2B60766  19.040   6.340  32.730
 3256DPPC   C3B60767  19.200   6.640  32.330
 3256DPPC   C4B60768  19.180   7.020  32.160
 3257DPPC   NC360769  29.875  12.110  33.440
 3257DPPC   PO460770  29.835  12.490  33.700
 3257DPPC   GL160771  30.245  12.450  33.640
 3257DPPC   GL260772  30.335  12.210  33.740
 3257DPPC   C1A60773  30.695  12.440  33.500
 3257DPPC   C2A60774  31.145  12.280  33.670
 3257DPPC   C3A60775  31.495  12.070  33.810
 3257DPPC   C4A60776  31.645  11.600  33.870
 3257DPPC   C1B60777  30.535  11.940  33.670
 3257DPPC   C2B60778  30.875  11.910  33.440
 3257DPPC   C3B60779  31.295  11.760  33.500
 3257DPPC   C4B60780  31.745  11.840  33.420
 3258DPPC   NC360781  13.200  10.760  26.460
 3258DPPC   PO460782  12.970  11.070  26.600
 3258DPPC   GL160783  13.370  11.240  26.550
 3258DPPC   GL260784  13.460  11.120  26.190
 3258DPPC   C1A60785  13.590  11.490  26.640
 3258DPPC   C2A60786  13.970  11.710  26.750
 3258DPPC   C3A60787  14.200  11.550  27.050
 3258DPPC   C4A60788  14.590  11.710  27.200
 3258DPPC   C1B60789  13.890  11.150  26.150
 3258DPPC   C2B60790  14.250  11.360  26.380
 3258DPPC   C3B60791  14.560  11.650  26.650
 3258DPPC   C4B60792  14.900  11.880  26.790
 3259DPPC   NC360793  19.010  24.440  30.530
 3259DPPC   PO460794  19.390  24.400  30.330
 3259DPPC   GL160795  19.500  24.810  30.190
 3259DPPC   GL260796  19.400  24.910  29.930
 3259DPPC   C1A60797  19.790  25.130  30.130
 3259DPPC   C2A60798  19.870  25.430  29.870
 3259DPPC   C3A60799  19.830  25.910  29.800
 3259DPPC   C4A60800  19.540  26.180  29.870
 3259DPPC   C1B60801  19.040  25.070  29.670
 3259DPPC   C2B60802  18.920  25.450  29.550
 3259DPPC   C3B60803  18.770  25.870  29.570
 3259DPPC   C4B60804  18.430  25.990  29.920
 3260DPPC   NC360805  27.105   3.630  29.310
 3260DPPC   PO460806  26.665   3.480  29.120
 3260DPPC   GL160807  26.675   3.930  29.120
 3260DPPC   GL260808  26.875   4.200  29.020
 3260DPPC   C1A60809  26.380   4.270  29.010
 3260DPPC   C2A60810  26.495   4.590  29.320
 3260DPPC   C3A60811  26.410   4.860  29.630
 3260DPPC   C4A60812  26.010   5.120  29.620
 3260DPPC   C1B60813  26.765   4.470  28.810
 3260DPPC   C2B60814  26.615   4.800  28.900
 3260DPPC   C3B60815  26.360   5.040  29.020
 3260DPPC   C4B60816  26.050   5.410  29.150
 3261DPPC   NC360817  30.035  13.780  43.820
 3261DPPC   PO460818  29.875  13.450  43.690
 3261DPPC   GL160819  29.555  13.550  43.400
 3261DPPC   GL260820  29.295  13.770  43.440
 3261DPPC   C1A60821  29.665  13.520  42.910
 3261DPPC   C2A60822  29.495  13.780  42.630
 3261DPPC   C3A60823  29.415  14.140  42.440
 3261DPPC   C4A60824  29.135  14.370  42.460
 3261DPPC   C1B60825  29.165  14.040  42.970
 3261DPPC   C2B60826  28.905  13.880  42.580
 3261DPPC   C3B60827  28.625  13.860  42.250
 3261DPPC   C4B60828  28.115  14.000  42.260
 3262DPPC   NC360829  22.920   1.180  29.120
 3262DPPC   PO460830  23.240   0.810  29.070
 3262DPPC   GL160831  23.110   0.520  29.310
 3262DPPC   GL260832  23.030   0.340  29.650
 3262DPPC   C1A60833  23.300   0.140  29.250
 3262DPPC   C2A60834  23.070  26.190  29.400
 3262DPPC   C3A60835  22.930  25.820  29.440
 3262DPPC   C4A60836  23.050  25.680  29.820
 3262DPPC   C1B60837  22.800   0.110  29.660
 3262DPPC   C2B60838  22.490  26.300  29.410
 3262DPPC   C3B60839  22.480  25.970  29.480
 3262DPPC   C4B60840  22.470  25.560  29.590
 3263DPPC   NC360841  29.875  17.360  44.300
 3263DPPC   PO460842  29.695  17.310  43.910
 3263DPPC   GL160843  29.615  17.380  43.530
 3263DPPC   GL260844  29.325  17.430  43.490
 3263DPPC   C1A60845  29.635  17.110  43.100
 3263DPPC   C2A60846  29.395  17.140  42.620
 3263DPPC   C3A60847  29.165  17.370  42.220
 3263DPPC   C4A60848  28.905  17.300  42.000
 3263DPPC   C1B60849  29.255  17.410  43.030
 3263DPPC   C2B60850  29.205  17.680  42.650
 3263DPPC   C3B60851  29.415  18.130  42.630
 3263DPPC   C4B60852  29.345  18.590  42.580
 3264DPPC   NC360853  18.460   0.600  23.070
 3264DPPC   PO460854  18.280   0.310  23.290
 3264DPPC   GL160855  18.350  26.440  23.420
 3264DPPC   GL260856  18.540  26.370  23.600
 3264DPPC   C1A60857  18.530  26.210  23.160
 3264DPPC   C2A60858  18.820  26.110  22.860
 3264DPPC   C3A60859  19.160  25.830  22.870
 3264DPPC   C4A60860  19.480  25.510  22.940
 3264DPPC   C1B60861  18.810  26.220  23.900
 3264DPPC   C2B60862  19.040  26.010  24.280
 3264DPPC   C3B60863  18.820  25.670  24.600
 3264DPPC   C4B60864  18.480  25.650  24.930
 3265DPPC   NC360865  14.090   9.950  26.610
 3265DPPC   PO460866  13.740  10.150  26.780
 3265DPPC   GL160867  14.040  10.580  26.970
 3265DPPC   GL260868  13.840  10.770  27.240
 3265DPPC   C1A60869  14.410  10.520  26.920
 3265DPPC   C2A60870  14.450  10.650  26.590
 3265DPPC   C3A60871  14.330  10.810  26.290
 3265DPPC   C4A60872  14.510  10.840  25.820
 3265DPPC   C1B60873  13.950  11.120  27.370
 3265DPPC   C2B60874  14.110  11.440  27.610
 3265DPPC   C3B60875  14.500  11.650  27.710
 3265DPPC   C4B60876  14.810  12.030  27.870
 3266DPPC   NC360877  30.125  15.490  43.890
 3266DPPC   PO460878  30.075  15.610  43.420
 3266DPPC   GL160879  29.645  15.470  43.230
 3266DPPC   GL260880  29.725  15.700  42.910
 3266DPPC   C1A60881  29.245  15.300  42.970
 3266DPPC   C2A60882  28.975  15.320  42.710
 3266DPPC   C3A60883  28.765  15.300  42.270
 3266DPPC   C4A60884  28.595  15.390  41.870
 3266DPPC   C1B60885  29.525  15.730  42.640
 3266DPPC   C2B60886  29.165  16.020  42.570
 3266DPPC   C3B60887  28.695  16.000  42.560
 3266DPPC   C4B60888  28.275  16.090  42.500
 3267DPPC   NC360889  19.300   4.710  35.940
 3267DPPC   PO460890  19.450   4.490  35.640
 3267DPPC   GL160891  19.780   4.790  35.720
 3267DPPC   GL260892  19.690   5.050  35.810
 3267DPPC   C1A60893  20.110   5.060  35.570
 3267DPPC   C2A60894  20.560   5.120  35.560
 3267DPPC   C3A60895  20.880   5.370  35.630
 3267DPPC   C4A60896  21.350   5.460  35.670
 3267DPPC   C1B60897  19.960   5.410  35.840
 3267DPPC   C2B60898  20.400   5.540  35.830
 3267DPPC   C3B60899  20.640   5.780  35.510
 3267DPPC   C4B60900  20.570   5.780  35.060
 3268DPPC   NC360901  25.820  13.160  22.340
 3268DPPC   PO460902  26.160  13.130  22.670
 3268DPPC   GL160903  26.390  12.900  22.440
 3268DPPC   GL260904  26.190  12.840  22.240
 3268DPPC   C1A60905  26.635  12.580  22.220
 3268DPPC   C2A60906  27.085  12.540  22.190
 3268DPPC   C3A60907  27.345  12.300  22.360
 3268DPPC   C4A60908  27.745  12.140  22.250
 3268DPPC   C1B60909  26.110  12.630  21.790
 3268DPPC   C2B60910  25.880  12.590  21.510
 3268DPPC   C3B60911  25.870  12.500  21.140
 3268DPPC   C4B60912  25.720  12.160  20.950
 3269DPPC   NC360913  13.590  11.380  24.790
 3269DPPC   PO460914  14.030  11.060  24.820
 3269DPPC   GL160915  14.100  11.470  24.730
 3269DPPC   GL260916  14.400  11.550  24.860
 3269DPPC   C1A60917  14.220  11.980  24.930
 3269DPPC   C2A60918  14.340  12.390  24.990
 3269DPPC   C3A60919  14.680  12.590  25.070
 3269DPPC   C4A60920  14.680  13.010  25.200
 3269DPPC   C1B60921  14.700  11.860  24.940
 3269DPPC   C2B60922  15.000  11.840  25.220
 3269DPPC   C3B60923  15.400  11.960  25.260
 3269DPPC   C4B60924  15.700  12.220  25.590
 3270DPPC   NC360925  13.010   0.920  33.060
 3270DPPC   PO460926  12.890   0.800  33.420
 3270DPPC   GL160927  13.090   0.430  33.280
 3270DPPC   GL260928  13.030   0.120  33.260
 3270DPPC   C1A60929  13.470   0.280  33.400
 3270DPPC   C2A60930  13.680   0.050  33.710
 3270DPPC   C3A60931  14.040  26.260  33.780
 3270DPPC   C4A60932  14.440  26.210  33.570
 3270DPPC   C1B60933  13.350  26.390  33.100
 3270DPPC   C2B60934  13.470  26.000  33.020
 3270DPPC   C3B60935  13.720  25.620  32.980
 3270DPPC   C4B60936  13.870  25.450  33.320
 3271DPPC   NC360937  25.050  17.070  22.550
 3271DPPC   PO460938  24.770  16.970  22.090
 3271DPPC   GL160939  24.800  17.130  21.750
 3271DPPC   GL260940  24.430  17.240  21.520
 3271DPPC   C1A60941  25.140  16.990  21.540
 3271DPPC   C2A60942  25.570  16.980  21.560
 3271DPPC   C3A60943  26.050  16.970  21.400
 3271DPPC   C4A60944  26.310  16.960  20.980
 3271DPPC   C1B60945  24.610  17.120  21.160
 3271DPPC   C2B60946  24.850  17.110  20.880
 3271DPPC   C3B60947  25.160  17.190  20.530
 3271DPPC   C4B60948  25.330  17.560  20.310
 3272DPPC   NC360949  31.775  14.330  22.670
 3272DPPC   PO460950  31.345  14.280  22.890
 3272DPPC   GL160951  30.845  14.320  22.900
 3272DPPC   GL260952  30.755  14.200  23.220
 3272DPPC   C1A60953  30.515  14.630  22.950
 3272DPPC   C2A60954  30.095  14.790  22.900
 3272DPPC   C3A60955  29.615  14.860  23.040
 3272DPPC   C4A60956  29.195  14.790  23.240
 3272DPPC   C1B60957  30.385  14.330  23.390
 3272DPPC   C2B60958  30.015  14.360  23.710
 3272DPPC   C3B60959  29.775  14.280  24.020
 3272DPPC   C4B60960  29.545  14.160  24.340
 3273DPPC   NC360961  19.390  18.080  17.380
 3273DPPC   PO460962  19.010  17.810  17.470
 3273DPPC   GL160963  19.240  17.860  17.870
 3273DPPC   GL260964  19.420  18.290  17.990
 3273DPPC   C1A60965  19.460  17.870  18.300
 3273DPPC   C2A60966  19.560  18.170  18.670
 3273DPPC   C3A60967  19.650  18.390  19.090
 3273DPPC   C4A60968  19.930  18.590  19.330
 3273DPPC   C1B60969  19.420  18.600  18.460
 3273DPPC   C2B60970  19.430  18.880  18.780
 3273DPPC   C3B60971  19.550  18.960  19.200
 3273DPPC   C4B60972  19.390  19.170  19.490
 3274DPPC   NC360973  32.525   7.420  35.500
 3274DPPC   PO460974  32.365   7.550  35.940
 3274DPPC   GL160975  32.045   7.820  35.820
 3274DPPC   GL260976  32.005   8.160  35.820
 3274DPPC   C1A60977  31.655   7.700  35.770
 3274DPPC   C2A60978  31.235   7.940  35.760
 3274DPPC   C3A60979  30.785   7.860  35.680
 3274DPPC   C4A60980  30.335   8.030  35.490
 3274DPPC   C1B60981  31.545   8.360  35.900
 3274DPPC   C2B60982  31.075   8.290  36.030
 3274DPPC   C3B60983  30.735   8.390  36.100
 3274DPPC   C4B60984  30.295   8.280  35.900
 3275DPPC   NC360985  12.720  10.950  31.630
 3275DPPC   PO460986  12.700  10.440  31.590
 3275DPPC   GL160987  13.140  10.680  31.510
 3275DPPC   GL260988  13.300  10.710  31.810
 3275DPPC   C1A60989  13.490  10.920  31.410
 3275DPPC   C2A60990  13.770  11.210  31.680
 3275DPPC   C3A60991  14.210  11.360  31.670
 3275DPPC   C4A60992  14.520  11.670  31.510
 3275DPPC   C1B60993  13.420  11.100  32.070
 3275DPPC   C2B60994  13.880  11.270  32.250
 3275DPPC   C3B60995  14.230  11.430  32.250
 3275DPPC   C4B60996  14.450  11.810  32.160
 3276DPPC   NC360997  17.550  12.180  27.300
 3276DPPC   PO460998  17.260  11.960  27.210
 3276DPPC   GL160999  16.890  11.720  27.180
 3276DPPC   GL261000  16.990  11.650  27.540
 3276DPPC   C1A61001  16.680  11.280  27.160
 3276DPPC   C2A61002  16.460  10.910  27.020
 3276DPPC   C3A61003  16.330  10.460  27.000
 3276DPPC   C4A61004  16.520  10.180  26.770
 3276DPPC   C1B61005  16.600  11.620  27.550
 3276DPPC   C2B61006  16.280  11.280  27.420
 3276DPPC   C3B61007  16.070  10.850  27.300
 3276DPPC   C4B61008  15.830  10.660  26.990
 3277DPPC   NC361009  21.270   4.530  27.360
 3277DPPC   PO461010  21.320   4.760  27.000
 3277DPPC   GL161011  21.300   5.160  27.030
 3277DPPC   GL261012  21.080   5.370  27.190
 3277DPPC   C1A61013  21.510   5.570  27.200
 3277DPPC   C2A61014  21.630   5.920  27.470
 3277DPPC   C3A61015  21.680   6.120  27.790
 3277DPPC   C4A61016  21.510   6.430  28.000
 3277DPPC   C1B61017  21.050   5.840  27.280
 3277DPPC   C2B61018  21.230   6.220  27.270
 3277DPPC   C3B61019  21.220   6.610  27.640
 3277DPPC   C4B61020  20.870   6.790  27.900
 3278DPPC   NC361021  14.210  25.730  22.680
 3278DPPC   PO461022  14.080  25.290  22.640
 3278DPPC   GL161023  13.980  25.130  22.930
 3278DPPC   GL261024  13.750  24.890  22.760
 3278DPPC   C1A61025  14.280  24.720  23.100
 3278DPPC   C2A61026  14.500  24.590  23.340
 3278DPPC   C3A61027  14.810  24.440  23.540
 3278DPPC   C4A61028  15.160  24.190  23.820
 3278DPPC   C1B61029  14.110  24.670  22.580
 3278DPPC   C2B61030  14.140  24.300  22.900
 3278DPPC   C3B61031  14.230  24.140  23.290
 3278DPPC   C4B61032  14.380  24.010  23.650
 3279DPPC   NC361033  25.930   7.300  42.720
 3279DPPC   PO461034  25.660   7.250  42.480
 3279DPPC   GL161035  25.520   7.550  42.120
 3279DPPC   GL261036  25.740   7.400  41.990
 3279DPPC   C1A61037  25.420   7.950  41.930
 3279DPPC   C2A61038  25.170   8.180  41.680
 3279DPPC   C3A61039  24.820   8.430  41.360
 3279DPPC   C4A61040  24.530   8.590  41.120
 3279DPPC   C1B61041  25.830   7.810  41.690
 3279DPPC   C2B61042  25.760   8.250  41.440
 3279DPPC   C3B61043  25.900   8.410  41.030
 3279DPPC   C4B61044  25.990   8.780  40.750
 3280DPPC   NC361045  28.805   5.220  26.980
 3280DPPC   PO461046  29.005   5.380  26.760
 3280DPPC   GL161047  28.885   5.810  26.770
 3280DPPC   GL261048  29.105   6.120  26.990
 3280DPPC   C1A61049  28.685   6.270  26.870
 3280DPPC   C2A61050  28.475   6.550  27.170
 3280DPPC   C3A61051  28.085   6.590  27.340
 3280DPPC   C4A61052  27.825   6.890  27.340
 3280DPPC   C1B61053  29.375   6.330  27.280
 3280DPPC   C2B61054  29.415   6.790  27.430
 3280DPPC   C3B61055  29.275   7.130  27.660
 3280DPPC   C4B61056  28.805   7.320  27.840
 3281DPPC   NC361057  14.460  22.910  29.390
 3281DPPC   PO461058  14.550  23.150  29.750
 3281DPPC   GL161059  14.470  23.560  29.620
 3281DPPC   GL261060  14.230  23.670  29.810
 3281DPPC   C1A61061  14.060  23.650  29.360
 3281DPPC   C2A61062  13.590  23.650  29.300
 3281DPPC   C3A61063  13.330  23.970  29.280
 3281DPPC   C4A61064  12.970  24.160  29.140
 3281DPPC   C1B61065  13.820  23.880  29.750
 3281DPPC   C2B61066  13.370  23.910  29.780
 3281DPPC   C3B61067  12.950  23.990  29.740
 3281DPPC   C4B61068  12.870  24.400  29.540
 3282DPPC   NC361069   9.440  23.710  33.300
 3282DPPC   PO461070   9.490  23.640  32.860
 3282DPPC   GL161071   9.910  23.610  32.860
 3282DPPC   GL261072   9.950  23.280  32.980
 3282DPPC   C1A61073  10.310  23.520  32.650
 3282DPPC   C2A61074  10.650  23.340  32.620
 3282DPPC   C3A61075  11.070  23.410  32.550
 3282DPPC   C4A61076  11.410  23.560  32.590
 3282DPPC   C1B61077  10.350  23.370  33.210
 3282DPPC   C2B61078  10.690  23.190  33.500
 3282DPPC   C3B61079  11.070  22.970  33.420
 3282DPPC   C4B61080  11.590  22.880  33.330
 3283DPPC   NC361081  33.795   9.880  31.230
 3283DPPC   PO461082  33.355   9.790  31.080
 3283DPPC   GL161083  32.925   9.640  31.080
 3283DPPC   GL261084  32.795   9.780  30.920
 3283DPPC   C1A61085  32.745   9.450  31.330
 3283DPPC   C2A61086  32.725   9.300  31.800
 3283DPPC   C3A61087  32.525   9.370  32.200
 3283DPPC   C4A61088  32.305   9.630  32.610
 3283DPPC   C1B61089  32.595   9.940  31.300
 3283DPPC   C2B61090  32.175   9.950  31.510
 3283DPPC   C3B61091  31.875   9.890  31.840
 3283DPPC   C4B61092  31.555   9.780  32.160
 3284DPPC   NC361093  27.135  24.830  34.640
 3284DPPC   PO461094  26.795  24.730  35.010
 3284DPPC   GL161095  26.390  24.480  35.020
 3284DPPC   GL261096  26.230  24.620  35.400
 3284DPPC   C1A61097  26.250  24.160  35.050
 3284DPPC   C2A61098  25.930  23.920  35.070
 3284DPPC   C3A61099  25.760  23.570  35.220
 3284DPPC   C4A61100  25.490  23.300  35.370
 3284DPPC   C1B61101  26.525  24.320  35.490
 3284DPPC   C2B61102  26.725  23.870  35.480
 3284DPPC   C3B61103  26.945  23.690  35.790
 3284DPPC   C4B61104  27.455  23.520  35.910
 3285DPPC   NC361105  26.555  17.750  34.580
 3285DPPC   PO461106  26.645  17.980  34.240
 3285DPPC   GL161107  27.055  18.070  33.890
 3285DPPC   GL261108  27.325  17.860  33.920
 3285DPPC   C1A61109  27.155  18.300  33.600
 3285DPPC   C2A61110  27.395  18.790  33.510
 3285DPPC   C3A61111  27.685  19.120  33.610
 3285DPPC   C4A61112  28.045  19.190  33.210
 3285DPPC   C1B61113  27.635  18.260  34.010
 3285DPPC   C2B61114  28.045  18.500  34.120
 3285DPPC   C3B61115  28.415  18.760  34.150
 3285DPPC   C4B61116  28.685  19.160  34.200
 3286DPPC   NC361117  15.670  22.590  24.200
 3286DPPC   PO461118  15.760  22.440  23.680
 3286DPPC   GL161119  15.360  22.640  23.650
 3286DPPC   GL261120  15.560  22.950  23.800
 3286DPPC   C1A61121  15.100  22.970  23.460
 3286DPPC   C2A61122  14.840  23.340  23.470
 3286DPPC   C3A61123  14.850  23.720  23.710
 3286DPPC   C4A61124  14.980  23.830  24.120
 3286DPPC   C1B61125  15.090  22.940  23.990
 3286DPPC   C2B61126  14.680  22.950  23.730
 3286DPPC   C3B61127  14.520  22.980  23.310
 3286DPPC   C4B61128  14.460  22.840  22.930
 3287DPPC   NC361129  13.430  23.410  20.950
 3287DPPC   PO461130  13.800  23.630  21.100
 3287DPPC   GL161131  13.760  23.160  21.360
 3287DPPC   GL261132  13.640  23.290  21.580
 3287DPPC   C1A61133  13.950  22.940  21.720
 3287DPPC   C2A61134  14.150  22.600  21.960
 3287DPPC   C3A61135  14.320  22.420  21.660
 3287DPPC   C4A61136  14.600  22.200  21.620
 3287DPPC   C1B61137  13.810  23.330  22.000
 3287DPPC   C2B61138  13.890  23.490  22.420
 3287DPPC   C3B61139  14.230  23.340  22.730
 3287DPPC   C4B61140  14.630  23.350  22.990
 3288DPPC   NC361141  21.210   4.130  36.200
 3288DPPC   PO461142  20.940   4.370  36.320
 3288DPPC   GL161143  21.100   4.690  36.430
 3288DPPC   GL261144  20.900   4.950  36.660
 3288DPPC   C1A61145  21.490   5.000  36.440
 3288DPPC   C2A61146  21.830   5.260  36.180
 3288DPPC   C3A61147  21.960   5.640  35.960
 3288DPPC   C4A61148  22.110   6.080  35.860
 3288DPPC   C1B61149  21.140   5.370  36.570
 3288DPPC   C2B61150  21.140   5.830  36.510
 3288DPPC   C3B61151  21.210   6.180  36.300
 3288DPPC   C4B61152  21.500   6.440  36.240
 3289DPPC   NC361153  18.290  24.800  35.140
 3289DPPC   PO461154  18.310  24.960  34.710
 3289DPPC   GL161155  18.150  25.300  35.010
 3289DPPC   GL261156  18.290  25.310  35.270
 3289DPPC   C1A61157  18.080  25.740  35.110
 3289DPPC   C2A61158  18.110  26.180  34.920
 3289DPPC   C3A61159  18.100   0.200  35.010
 3289DPPC   C4A61160  18.420   0.440  34.830
 3289DPPC   C1B61161  18.460  25.490  35.550
 3289DPPC   C2B61162  18.430  25.850  35.610
 3289DPPC   C3B61163  18.490  26.310  35.730
 3289DPPC   C4B61164  18.480   0.220  35.870
 3290DPPC   NC361165  25.880  19.050  19.080
 3290DPPC   PO461166  25.990  18.610  19.280
 3290DPPC   GL161167  25.590  18.600  19.440
 3290DPPC   GL261168  25.430  18.910  19.440
 3290DPPC   C1A61169  25.300  18.430  19.670
 3290DPPC   C2A61170  25.020  18.390  20.000
 3290DPPC   C3A61171  24.580  18.170  20.200
 3290DPPC   C4A61172  24.150  18.070  20.240
 3290DPPC   C1B61173  25.020  18.910  19.630
 3290DPPC   C2B61174  24.650  19.000  19.960
 3290DPPC   C3B61175  24.230  19.120  20.020
 3290DPPC   C4B61176  23.900  19.010  20.040
 3291DPPC   NC361177  30.075  21.780  35.640
 3291DPPC   PO461178  29.865  21.420  35.790
 3291DPPC   GL161179  29.365  21.570  35.860
 3291DPPC   GL261180  29.395  21.490  36.070
 3291DPPC   C1A61181  28.865  21.590  36.040
 3291DPPC   C2A61182  28.605  21.780  36.350
 3291DPPC   C3A61183  28.565  21.930  36.760
 3291DPPC   C4A61184  28.545  21.920  37.210
 3291DPPC   C1B61185  29.155  21.120  36.030
 3291DPPC   C2B61186  28.765  20.930  35.890
 3291DPPC   C3B61187  28.385  20.830  36.050
 3291DPPC   C4B61188  28.175  20.930  36.320
 3292DPPC   NC361189  22.840  21.900  26.210
 3292DPPC   PO461190  22.870  21.510  26.150
 3292DPPC   GL161191  23.160  21.740  25.790
 3292DPPC   GL261192  23.120  22.080  25.820
 3292DPPC   C1A61193  23.470  21.880  25.380
 3292DPPC   C2A61194  23.740  22.170  25.140
 3292DPPC   C3A61195  23.900  22.440  24.840
 3292DPPC   C4A61196  24.160  22.700  24.550
 3292DPPC   C1B61197  23.560  22.020  25.860
 3292DPPC   C2B61198  23.990  22.140  25.620
 3292DPPC   C3B61199  24.350  22.010  25.420
 3292DPPC   C4B61200  24.790  22.130  25.150
 3293DPPC   NC361201  28.145  14.700  26.660
 3293DPPC   PO461202  28.085  15.070  26.950
 3293DPPC   GL161203  28.505  15.200  26.980
 3293DPPC   GL261204  28.535  15.350  27.320
 3293DPPC   C1A61205  28.805  15.430  26.790
 3293DPPC   C2A61206  29.165  15.750  26.670
 3293DPPC   C3A61207  29.595  15.880  26.780
 3293DPPC   C4A61208  29.855  16.100  27.110
 3293DPPC   C1B61209  28.705  15.690  27.280
 3293DPPC   C2B61210  29.185  15.780  27.190
 3293DPPC   C3B61211  29.555  15.810  27.410
 3293DPPC   C4B61212  30.025  15.990  27.550
 3294DPPC   NC361213  17.560  24.650  34.860
 3294DPPC   PO461214  17.790  24.860  35.160
 3294DPPC   GL161215  17.540  25.210  35.250
 3294DPPC   GL261216  17.550  25.560  35.030
 3294DPPC   C1A61217  17.350  25.550  35.530
 3294DPPC   C2A61218  17.490  25.820  35.790
 3294DPPC   C3A61219  17.410  25.980  36.220
 3294DPPC   C4A61220  17.780  26.310  36.330
 3294DPPC   C1B61221  17.650  26.020  35.050
 3294DPPC   C2B61222  17.280  26.360  35.080
 3294DPPC   C3B61223  17.180   0.260  35.280
 3294DPPC   C4B61224  17.550   0.580  35.420
 3295DPPC   NC361225  25.090   3.950  36.740
 3295DPPC   PO461226  25.210   3.770  36.340
 3295DPPC   GL161227  24.970   4.150  36.190
 3295DPPC   GL261228  24.920   4.410  36.480
 3295DPPC   C1A61229  24.640   4.460  35.990
 3295DPPC   C2A61230  24.240   4.700  35.970
 3295DPPC   C3A61231  24.080   5.110  35.950
 3295DPPC   C4A61232  23.980   5.410  35.570
 3295DPPC   C1B61233  25.130   4.680  36.120
 3295DPPC   C2B61234  25.110   4.660  35.750
 3295DPPC   C3B61235  25.440   4.610  35.470
 3295DPPC   C4B61236  25.900   4.600  35.620
 3296DPPC   NC361237   9.470  18.940  29.380
 3296DPPC   PO461238   9.510  19.330  29.120
 3296DPPC   GL161239   9.670  19.760  29.230
 3296DPPC   GL261240   9.550  20.060  29.080
 3296DPPC   C1A61241  10.110  19.890  29.270
 3296DPPC   C2A61242  10.490  19.910  29.200
 3296DPPC   C3A61243  10.890  20.050  29.180
 3296DPPC   C4A61244  11.090  20.460  29.060
 3296DPPC   C1B61245  10.000  20.120  28.810
 3296DPPC   C2B61246  10.360  19.890  28.730
 3296DPPC   C3B61247  10.780  19.760  28.830
 3296DPPC   C4B61248  11.160  19.690  28.960
 3297DPPC   NC361249  23.330  24.120  43.550
 3297DPPC   PO461250  23.460  24.520  43.380
 3297DPPC   GL161251  23.590  24.220  42.980
 3297DPPC   GL261252  23.400  23.990  43.080
 3297DPPC   C1A61253  23.540  23.850  42.620
 3297DPPC   C2A61254  23.480  23.750  42.200
 3297DPPC   C3A61255  23.510  23.420  41.810
 3297DPPC   C4A61256  23.760  23.540  41.380
 3297DPPC   C1B61257  23.050  23.870  42.830
 3297DPPC   C2B61258  22.630  23.710  42.700
 3297DPPC   C3B61259  22.310  23.500  42.380
 3297DPPC   C4B61260  21.930  23.400  42.440
 3298DPPC   NC361261  22.640  22.450  33.170
 3298DPPC   PO461262  22.720  22.610  32.730
 3298DPPC   GL161263  22.750  23.050  32.600
 3298DPPC   GL261264  22.420  23.090  32.340
 3298DPPC   C1A61265  22.950  23.450  32.540
 3298DPPC   C2A61266  23.280  23.740  32.300
 3298DPPC   C3A61267  23.070  24.020  32.150
 3298DPPC   C4A61268  23.200  24.290  31.790
 3298DPPC   C1B61269  22.530  23.520  32.290
 3298DPPC   C2B61270  22.650  23.810  32.070
 3298DPPC   C3B61271  22.690  24.100  31.810
 3298DPPC   C4B61272  22.660  24.500  31.690
 3299DPPC   NC361273  15.130   1.040  38.700
 3299DPPC   PO461274  15.470   0.990  38.410
 3299DPPC   GL161275  15.610   0.720  38.230
 3299DPPC   GL261276  15.880   0.820  38.170
 3299DPPC   C1A61277  15.640   0.430  37.870
 3299DPPC   C2A61278  15.660  26.440  37.660
 3299DPPC   C3A61279  15.920  26.190  37.460
 3299DPPC   C4A61280  15.740  25.870  37.170
 3299DPPC   C1B61281  16.220   0.560  38.100
 3299DPPC   C2B61282  16.510   0.250  37.960
 3299DPPC   C3B61283  16.680  26.330  37.930
 3299DPPC   C4B61284  16.590  25.880  38.160
 3300DPPC   NC361285  16.340  24.030  27.530
 3300DPPC   PO461286  16.250  24.090  28.000
 3300DPPC   GL161287  16.010  24.360  28.130
 3300DPPC   GL261288  15.920  24.470  28.390
 3300DPPC   C1A61289  15.890  24.730  27.950
 3300DPPC   C2A61290  16.040  24.950  27.430
 3300DPPC   C3A61291  15.910  25.380  27.250
 3300DPPC   C4A61292  15.880  25.750  26.990
 3300DPPC   C1B61293  15.960  24.820  28.500
 3300DPPC   C2B61294  15.920  25.170  28.140
 3300DPPC   C3B61295  16.140  25.430  27.810
 3300DPPC   C4B61296  16.120  25.730  27.520
 3301DPPC   NC361297  14.750  19.590  44.540
 3301DPPC   PO461298  14.330  19.470  44.490
 3301DPPC   GL161299  14.530  19.330  44.030
 3301DPPC   GL261300  14.660  18.900  43.960
 3301DPPC   C1A61301  14.550  19.360  43.550
 3301DPPC   C2A61302  14.690  19.150  43.200
 3301DPPC   C3A61303  14.500  18.700  43.180
 3301DPPC   C4A61304  14.210  18.340  43.160
 3301DPPC   C1B61305  15.110  19.040  43.860
 3301DPPC   C2B61306  15.450  18.990  43.720
 3301DPPC   C3B61307  15.690  19.100  43.340
 3301DPPC   C4B61308  15.800  19.120  42.850
 3302DPPC   NC361309  23.560  21.200  19.130
 3302DPPC   PO461310  23.920  21.360  19.370
 3302DPPC   GL161311  23.910  21.240  19.810
 3302DPPC   GL261312  24.240  21.010  19.760
 3302DPPC   C1A61313  23.670  20.890  20.130
 3302DPPC   C2A61314  23.560  20.770  20.500
 3302DPPC   C3A61315  23.270  20.830  20.950
 3302DPPC   C4A61316  22.920  20.550  21.000
 3302DPPC   C1B61317  24.140  20.600  19.980
 3302DPPC   C2B61318  23.970  20.450  20.350
 3302DPPC   C3B61319  23.690  20.320  20.740
 3302DPPC   C4B61320  23.330  20.220  20.910
 3303DPPC   NC361321  27.165  22.070  31.720
 3303DPPC   PO461322  27.505  22.130  32.010
 3303DPPC   GL161323  27.345  21.800  32.100
 3303DPPC   GL261324  27.565  21.590  31.840
 3303DPPC   C1A61325  26.955  21.580  32.160
 3303DPPC   C2A61326  26.605  21.310  32.200
 3303DPPC   C3A61327  26.160  21.450  32.150
 3303DPPC   C4A61328  25.720  21.240  32.160
 3303DPPC   C1B61329  27.545  21.100  32.040
 3303DPPC   C2B61330  27.485  20.750  32.200
 3303DPPC   C3B61331  27.295  20.450  32.630
 3303DPPC   C4B61332  27.165  20.070  32.650
 3304DPPC   NC361333  13.240  24.330  40.410
 3304DPPC   PO461334  13.570  24.510  40.270
 3304DPPC   GL161335  14.090  24.340  40.200
 3304DPPC   GL261336  14.030  24.390  39.830
 3304DPPC   C1A61337  14.230  23.940  40.010
 3304DPPC   C2A61338  14.370  23.630  39.830
 3304DPPC   C3A61339  14.540  23.290  39.580
 3304DPPC   C4A61340  14.890  23.080  39.690
 3304DPPC   C1B61341  14.320  24.180  39.560
 3304DPPC   C2B61342  14.270  24.100  39.030
 3304DPPC   C3B61343  14.370  24.280  38.690
 3304DPPC   C4B61344  14.830  24.430  38.720
 3305DPPC   NC361345  14.280  15.060  19.600
 3305DPPC   PO461346  14.530  15.440  19.730
 3305DPPC   GL161347  14.870  15.610  20.090
 3305DPPC   GL261348  14.780  15.790  20.300
 3305DPPC   C1A61349  15.090  15.530  20.540
 3305DPPC   C2A61350  15.250  15.700  20.960
 3305DPPC   C3A61351  15.530  16.040  21.170
 3305DPPC   C4A61352  15.850  16.420  21.260
 3305DPPC   C1B61353  15.090  16.030  20.590
 3305DPPC   C2B61354  15.210  16.350  20.800
 3305DPPC   C3B61355  15.420  16.540  21.050
 3305DPPC   C4B61356  15.680  16.830  21.060
 3306DPPC   NC361357  29.335  18.660  22.600
 3306DPPC   PO461358  28.965  18.780  22.310
 3306DPPC   GL161359  28.805  18.470  22.540
 3306DPPC   GL261360  28.745  18.170  22.450
 3306DPPC   C1A61361  28.515  18.450  22.850
 3306DPPC   C2A61362  28.145  18.130  22.950
 3306DPPC   C3A61363  27.995  17.690  23.010
 3306DPPC   C4A61364  27.675  17.480  23.140
 3306DPPC   C1B61365  28.385  17.920  22.520
 3306DPPC   C2B61366  27.995  17.880  22.560
 3306DPPC   C3B61367  27.725  17.470  22.600
 3306DPPC   C4B61368  27.625  17.070  22.810
 3307DPPC   NC361369  17.470  24.250  31.880
 3307DPPC   PO461370  17.680  24.620  31.800
 3307DPPC   GL161371  17.440  24.960  31.880
 3307DPPC   GL261372  17.280  25.020  32.150
 3307DPPC   C1A61373  17.050  25.320  31.860
 3307DPPC   C2A61374  16.780  25.610  31.790
 3307DPPC   C3A61375  16.610  26.050  31.820
 3307DPPC   C4A61376  16.350  26.410  31.820
 3307DPPC   C1B61377  17.400  25.340  32.270
 3307DPPC   C2B61378  17.110  25.660  32.280
 3307DPPC   C3B61379  17.090  26.180  32.490
 3307DPPC   C4B61380  16.680  26.290  32.820
 3308DPPC   NC361381  14.980  10.190  40.170
 3308DPPC   PO461382  14.890  10.610  40.140
 3308DPPC   GL161383  14.910  10.850  39.810
 3308DPPC   GL261384  14.760  10.660  39.530
 3308DPPC   C1A61385  15.000  11.210  39.610
 3308DPPC   C2A61386  15.280  11.470  39.340
 3308DPPC   C3A61387  15.400  11.770  39.000
 3308DPPC   C4A61388  15.440  11.630  38.580
 3308DPPC   C1B61389  15.050  10.830  39.290
 3308DPPC   C2B61390  15.100  11.080  39.170
 3308DPPC   C3B61391  14.740  11.430  39.190
 3308DPPC   C4B61392  14.890  11.860  39.120
 3309DPPC   NC361393  29.945  12.330  21.270
 3309DPPC   PO461394  29.465  12.010  21.320
 3309DPPC   GL161395  29.175  12.140  21.570
 3309DPPC   GL261396  29.245  12.190  21.910
 3309DPPC   C1A61397  28.785  12.330  21.720
 3309DPPC   C2A61398  28.445  12.320  21.980
 3309DPPC   C3A61399  28.085  12.410  21.940
 3309DPPC   C4A61400  27.675  12.570  22.020
 3309DPPC   C1B61401  29.035  12.220  22.220
 3309DPPC   C2B61402  28.715  12.520  22.470
 3309DPPC   C3B61403  28.555  12.580  22.840
 3309DPPC   C4B61404  28.625  12.590  23.260
 3310DPPC   NC361405  11.770  23.610  23.080
 3310DPPC   PO461406  11.600  23.470  23.520
 3310DPPC   GL161407  11.920  23.240  23.730
 3310DPPC   GL261408  11.800  23.440  24.070
 3310DPPC   C1A61409  12.040  22.800  23.890
 3310DPPC   C2A61410  12.300  22.550  24.060
 3310DPPC   C3A61411  12.870  22.700  24.200
 3310DPPC   C4A61412  13.280  22.380  24.110
 3310DPPC   C1B61413  12.200  23.320  24.120
 3310DPPC   C2B61414  12.520  23.100  24.090
 3310DPPC   C3B61415  12.840  23.000  23.800
 3310DPPC   C4B61416  13.130  22.990  23.520
 3311DPPC   NC361417  27.085  23.530  27.840
 3311DPPC   PO461418  26.975  23.390  28.330
 3311DPPC   GL161419  26.505  23.150  28.320
 3311DPPC   GL261420  26.330  23.180  28.490
 3311DPPC   C1A61421  26.320  22.780  28.090
 3311DPPC   C2A61422  25.970  22.590  28.120
 3311DPPC   C3A61423  25.560  22.410  28.380
 3311DPPC   C4A61424  25.340  22.160  28.690
 3311DPPC   C1B61425  26.000  22.930  28.490
 3311DPPC   C2B61426  25.830  22.650  28.690
 3311DPPC   C3B61427  25.510  22.530  28.950
 3311DPPC   C4B61428  25.370  22.540  29.380
 3312DPPC   NC361429  13.370   0.990  27.520
 3312DPPC   PO461430  13.080   0.570  27.640
 3312DPPC   GL161431  13.380   0.350  27.890
 3312DPPC   GL261432  13.400   0.080  27.790
 3312DPPC   C1A61433  13.270   0.060  28.260
 3312DPPC   C2A61434  13.530  26.280  28.670
 3312DPPC   C3A61435  13.740  26.280  29.010
 3312DPPC   C4A61436  14.120  26.230  29.230
 3312DPPC   C1B61437  13.680  26.180  27.670
 3312DPPC   C2B61438  13.970  25.810  27.480
 3312DPPC   C3B61439  14.210  25.430  27.290
 3312DPPC   C4B61440  14.410  25.030  27.370
 3313DPPC   NC361441  19.240  14.200  22.700
 3313DPPC   PO461442  19.190  14.200  22.270
 3313DPPC   GL161443  19.130  13.880  22.140
 3313DPPC   GL261444  19.050  13.710  22.450
 3313DPPC   C1A61445  19.100  13.820  21.740
 3313DPPC   C2A61446  19.060  13.600  21.450
 3313DPPC   C3A61447  18.770  13.260  21.490
 3313DPPC   C4A61448  18.390  13.110  21.280
 3313DPPC   C1B61449  18.750  13.590  22.180
 3313DPPC   C2B61450  18.470  13.500  21.840
 3313DPPC   C3B61451  18.100  13.360  21.700
 3313DPPC   C4B61452  17.860  13.310  21.310
 3314DPPC   NC361453  21.920   6.560  41.310
 3314DPPC   PO461454  21.950   6.610  40.880
 3314DPPC   GL161455  21.740   6.740  40.500
 3314DPPC   GL261456  21.410   6.950  40.440
 3314DPPC   C1A61457  21.850   6.930  40.110
 3314DPPC   C2A61458  22.100   7.060  39.740
 3314DPPC   C3A61459  22.140   7.460  39.390
 3314DPPC   C4A61460  21.970   7.660  38.940
 3314DPPC   C1B61461  21.620   7.300  40.380
 3314DPPC   C2B61462  21.920   7.410  40.030
 3314DPPC   C3B61463  22.250   7.490  39.850
 3314DPPC   C4B61464  22.500   7.810  39.500
 3315DPPC   NC361465   9.850  16.870  28.490
 3315DPPC   PO461466   9.830  17.040  28.110
 3315DPPC   GL161467  10.150  17.270  28.160
 3315DPPC   GL261468  10.290  17.120  28.460
 3315DPPC   C1A61469  10.510  17.450  27.890
 3315DPPC   C2A61470  10.860  17.210  27.790
 3315DPPC   C3A61471  11.130  16.920  27.730
 3315DPPC   C4A61472  11.600  17.010  27.670
 3315DPPC   C1B61473  10.750  17.300  28.310
 3315DPPC   C2B61474  11.030  17.500  28.140
 3315DPPC   C3B61475  11.500  17.460  27.910
 3315DPPC   C4B61476  11.900  17.790  27.800
 3316DPPC   NC361477  30.925  17.170  24.590
 3316DPPC   PO461478  31.095  16.810  24.630
 3316DPPC   GL161479  30.615  16.790  24.830
 3316DPPC   GL261480  30.465  17.070  24.900
 3316DPPC   C1A61481  30.295  16.490  25.020
 3316DPPC   C2A61482  30.075  16.430  25.440
 3316DPPC   C3A61483  29.855  16.700  25.840
 3316DPPC   C4A61484  29.565  16.540  26.070
 3316DPPC   C1B61485  29.995  17.020  24.960
 3316DPPC   C2B61486  29.715  16.830  25.340
 3316DPPC   C3B61487  29.465  16.990  25.750
 3316DPPC   C4B61488  29.115  16.860  25.900
 3317DPPC   NC361489  23.630  17.300  21.610
 3317DPPC   PO461490  23.940  16.990  21.550
 3317DPPC   GL161491  24.020  16.980  21.120
 3317DPPC   GL261492  23.890  16.880  20.810
 3317DPPC   C1A61493  24.370  16.710  20.920
 3317DPPC   C2A61494  24.580  16.650  20.650
 3317DPPC   C3A61495  24.770  16.880  20.310
 3317DPPC   C4A61496  24.660  16.640  19.900
 3317DPPC   C1B61497  23.500  16.940  20.640
 3317DPPC   C2B61498  23.280  17.040  20.280
 3317DPPC   C3B61499  23.390  17.270  19.940
 3317DPPC   C4B61500  23.810  17.480  19.920
 3318DPPC   NC361501  11.350  26.000  27.440
 3318DPPC   PO461502  11.830  26.270  27.520
 3318DPPC   GL161503  11.900  25.750  27.540
 3318DPPC   GL261504  11.950  25.570  27.280
 3318DPPC   C1A61505  12.320  25.580  27.690
 3318DPPC   C2A61506  12.680  25.690  28.010
 3318DPPC   C3A61507  13.060  25.800  28.060
 3318DPPC   C4A61508  13.310  26.100  28.000
 3318DPPC   C1B61509  12.130  25.160  27.480
 3318DPPC   C2B61510  12.360  24.810  27.600
 3318DPPC   C3B61511  12.560  24.350  27.530
 3318DPPC   C4B61512  12.840  24.010  27.320
 3319DPPC   NC361513  24.500  18.580  24.760
 3319DPPC   PO461514  24.500  19.050  24.800
 3319DPPC   GL161515  24.910  19.230  24.820
 3319DPPC   GL261516  25.080  19.510  24.960
 3319DPPC   C1A61517  25.160  19.440  24.500
 3319DPPC   C2A61518  25.450  19.730  24.620
 3319DPPC   C3A61519  25.880  19.920  24.400
 3319DPPC   C4A61520  25.940  20.010  24.050
 3319DPPC   C1B61521  25.480  19.310  24.900
 3319DPPC   C2B61522  25.820  19.330  24.740
 3319DPPC   C3B61523  26.240  19.570  24.580
 3319DPPC   C4B61524  26.400  19.880  24.390
 3320DPPC   NC361525   9.740  19.220  26.440
 3320DPPC   PO461526   9.700  18.960  26.790
 3320DPPC   GL161527  10.230  18.900  26.870
 3320DPPC   GL261528  10.320  18.820  27.140
 3320DPPC   C1A61529  10.510  18.970  26.550
 3320DPPC   C2A61530  10.810  19.300  26.410
 3320DPPC   C3A61531  11.000  19.450  26.690
 3320DPPC   C4A61532  11.190  19.740  26.970
 3320DPPC   C1B61533  10.660  18.560  26.840
 3320DPPC   C2B61534  10.930  18.390  26.490
 3320DPPC   C3B61535  11.230  18.450  26.060
 3320DPPC   C4B61536  11.710  18.710  26.030
 3321DPPC   NC361537  13.570  25.350  22.850
 3321DPPC   PO461538  13.870  25.590  23.080
 3321DPPC   GL161539  13.910  25.290  23.410
 3321DPPC   GL261540  13.910  25.400  23.720
 3321DPPC   C1A61541  14.290  25.070  23.440
 3321DPPC   C2A61542  14.660  24.890  23.710
 3321DPPC   C3A61543  14.840  25.220  23.930
 3321DPPC   C4A61544  15.080  25.580  24.110
 3321DPPC   C1B61545  13.810  25.000  23.760
 3321DPPC   C2B61546  13.920  24.790  24.150
 3321DPPC   C3B61547  14.040  24.500  24.450
 3321DPPC   C4B61548  14.110  24.160  24.650
 3322DPPC   NC361549  22.620  21.610  18.990
 3322DPPC   PO461550  23.070  21.360  18.970
 3322DPPC   GL161551  23.090  21.140  19.320
 3322DPPC   GL261552  23.170  20.870  19.220
 3322DPPC   C1A61553  23.000  20.740  19.660
 3322DPPC   C2A61554  22.630  20.680  19.770
 3322DPPC   C3A61555  22.410  20.280  20.090
 3322DPPC   C4A61556  22.030  19.970  20.160
 3322DPPC   C1B61557  23.140  20.430  19.310
 3322DPPC   C2B61558  23.280  20.010  19.580
 3322DPPC   C3B61559  23.370  19.900  19.990
 3322DPPC   C4B61560  23.450  19.810  20.390
 3323DPPC   NC361561  14.570   1.750  32.900
 3323DPPC   PO461562  14.990   1.870  32.870
 3323DPPC   GL161563  15.080   1.460  32.890
 3323DPPC   GL261564  15.100   1.440  32.560
 3323DPPC   C1A61565  14.880   1.100  33.020
 3323DPPC   C2A61566  14.570   0.670  33.150
 3323DPPC   C3A61567  14.830   0.320  33.290
 3323DPPC   C4A61568  14.900  26.380  33.530
 3323DPPC   C1B61569  15.370   1.100  32.850
 3323DPPC   C2B61570  15.580   1.000  33.180
 3323DPPC   C3B61571  16.060   0.830  33.330
 3323DPPC   C4B61572  16.400   0.490  33.490
 3324DPPC   NC361573  26.370  19.720  37.120
 3324DPPC   PO461574  26.170  19.770  37.550
 3324DPPC   GL161575  26.575  20.050  37.580
 3324DPPC   GL261576  26.615  20.120  37.250
 3324DPPC   C1A61577  26.915  20.250  37.690
 3324DPPC   C2A61578  27.225  20.530  37.640
 3324DPPC   C3A61579  27.655  20.640  37.550
 3324DPPC   C4A61580  27.955  21.000  37.370
 3324DPPC   C1B61581  27.005  20.310  37.210
 3324DPPC   C2B61582  27.385  20.480  37.160
 3324DPPC   C3B61583  27.725  20.720  36.990
 3324DPPC   C4B61584  27.885  21.040  36.840
 3325DPPC   NC361585  33.975  13.230  34.810
 3325DPPC   PO461586  33.645  13.590  34.610
 3325DPPC   GL161587  33.145  13.640  34.780
 3325DPPC   GL261588  32.915  13.650  34.490
 3325DPPC   C1A61589  32.695  13.620  34.910
 3325DPPC   C2A61590  32.355  13.600  34.850
 3325DPPC   C3A61591  31.995  13.510  35.050
 3325DPPC   C4A61592  31.545  13.520  35.210
 3325DPPC   C1B61593  32.545  13.400  34.370
 3325DPPC   C2B61594  32.095  13.270  34.300
 3325DPPC   C3B61595  31.845  12.890  34.360
 3325DPPC   C4B61596  31.835  12.450  34.350
 3326DPPC   NC361597  20.950  10.540  24.190
 3326DPPC   PO461598  21.000  10.690  23.700
 3326DPPC   GL161599  21.050  10.310  23.730
 3326DPPC   GL261600  21.360  10.280  23.620
 3326DPPC   C1A61601  21.010   9.900  23.540
 3326DPPC   C2A61602  21.210   9.530  23.360
 3326DPPC   C3A61603  21.260   9.210  23.290
 3326DPPC   C4A61604  21.010   8.980  23.550
 3326DPPC   C1B61605  21.540   9.920  23.520
 3326DPPC   C2B61606  21.600   9.420  23.650
 3326DPPC   C3B61607  21.890   9.120  23.400
 3326DPPC   C4B61608  22.080   9.120  22.990
 3327DPPC   NC361609  19.410  17.640  47.790
 3327DPPC   PO461610  19.600  17.740  47.400
 3327DPPC   GL161611  19.930  17.560  47.120
 3327DPPC   GL261612  19.790  17.360  46.950
 3327DPPC   C1A61613  20.160  17.530  46.700
 3327DPPC   C2A61614  20.280  17.760  46.330
 3327DPPC   C3A61615  20.430  17.990  46.040
 3327DPPC   C4A61616  20.550  18.360  45.890
 3327DPPC   C1B61617  19.380  17.350  46.790
 3327DPPC   C2B61618  19.280  17.550  46.520
 3327DPPC   C3B61619  19.240  17.960  46.590
 3327DPPC   C4B61620  19.230  18.430  46.520
 3328DPPC   NC361621  22.580  19.100  22.910
 3328DPPC   PO461622  22.820  18.770  22.820
 3328DPPC   GL161623  22.790  19.030  22.410
 3328DPPC   GL261624  22.980  18.760  22.260
 3328DPPC   C1A61625  22.770  19.220  22.160
 3328DPPC   C2A61626  23.030  19.490  21.780
 3328DPPC   C3A61627  23.120  19.790  21.430
 3328DPPC   C4A61628  23.360  19.760  21.130
 3328DPPC   C1B61629  23.290  19.090  22.140
 3328DPPC   C2B61630  23.590  19.110  21.900
 3328DPPC   C3B61631  23.910  19.300  21.640
 3328DPPC   C4B61632  24.210  19.480  21.380
 3329DPPC   NC361633  15.590  14.440  29.310
 3329DPPC   PO461634  15.800  14.130  29.520
 3329DPPC   GL161635  15.410  14.000  29.470
 3329DPPC   GL261636  15.310  13.960  29.230
 3329DPPC   C1A61637  15.040  13.910  29.630
 3329DPPC   C2A61638  14.770  13.700  29.630
 3329DPPC   C3A61639  14.380  13.720  29.750
 3329DPPC   C4A61640  13.950  13.600  29.860
 3329DPPC   C1B61641  14.920  13.940  29.150
 3329DPPC   C2B61642  14.540  13.650  29.150
 3329DPPC   C3B61643  14.300  13.400  29.340
 3329DPPC   C4B61644  13.820  13.290  29.270
 3330DPPC   NC361645  24.810  23.370  44.210
 3330DPPC   PO461646  24.880  23.040  44.500
 3330DPPC   GL161647  24.680  22.850  44.100
 3330DPPC   GL261648  24.630  23.100  43.840
 3330DPPC   C1A61649  24.420  22.730  43.650
 3330DPPC   C2A61650  24.180  22.390  43.400
 3330DPPC   C3A61651  24.110  22.010  43.360
 3330DPPC   C4A61652  24.090  21.530  43.330
 3330DPPC   C1B61653  25.010  22.820  43.660
 3330DPPC   C2B61654  25.300  22.650  43.310
 3330DPPC   C3B61655  25.460  22.530  42.860
 3330DPPC   C4B61656  25.900  22.550  42.810
 3331DPPC   NC361657  24.620  26.050  39.540
 3331DPPC   PO461658  24.960  25.910  39.740
 3331DPPC   GL161659  24.670  25.600  39.850
 3331DPPC   GL261660  24.450  25.480  40.150
 3331DPPC   C1A61661  24.790  25.190  39.850
 3331DPPC   C2A61662  24.860  24.810  40.120
 3331DPPC   C3A61663  24.680  24.440  40.110
 3331DPPC   C4A61664  24.440  24.070  40.080
 3331DPPC   C1B61665  24.250  25.170  39.880
 3331DPPC   C2B61666  24.340  24.680  39.890
 3331DPPC   C3B61667  24.180  24.320  39.740
 3331DPPC   C4B61668  23.940  23.930  39.480
 3332DPPC   NC361669  32.495  17.780  36.760
 3332DPPC   PO461670  32.125  17.910  37.000
 3332DPPC   GL161671  31.595  17.850  37.200
 3332DPPC   GL261672  31.455  17.730  37.530
 3332DPPC   C1A61673  31.355  17.540  37.050
 3332DPPC   C2A61674  31.345  17.120  36.980
 3332DPPC   C3A61675  31.145  16.680  36.660
 3332DPPC   C4A61676  31.175  16.490  36.310
 3332DPPC   C1B61677  31.125  17.600  37.500
 3332DPPC   C2B61678  30.955  17.140  37.410
 3332DPPC   C3B61679  30.665  16.900  37.490
 3332DPPC   C4B61680  30.355  16.610  37.240
 3333DPPC   NC361681  23.150  22.270  37.900
 3333DPPC   PO461682  22.930  22.270  38.300
 3333DPPC   GL161683  23.210  22.600  38.270
 3333DPPC   GL261684  23.430  22.700  38.600
 3333DPPC   C1A61685  23.190  23.050  38.340
 3333DPPC   C2A61686  23.490  23.370  38.390
 3333DPPC   C3A61687  23.640  23.660  38.500
 3333DPPC   C4A61688  23.890  23.860  38.400
 3333DPPC   C1B61689  23.430  23.040  38.850
 3333DPPC   C2B61690  23.520  23.410  38.930
 3333DPPC   C3B61691  23.700  23.700  39.040
 3333DPPC   C4B61692  23.900  24.080  38.940
 3334DPPC   NC361693  30.995  18.670  29.040
 3334DPPC   PO461694  30.485  18.690  29.000
 3334DPPC   GL161695  30.135  18.360  29.190
 3334DPPC   GL261696  29.905  18.470  28.910
 3334DPPC   C1A61697  29.985  17.990  29.160
 3334DPPC   C2A61698  29.875  17.530  29.220
 3334DPPC   C3A61699  30.005  17.180  29.520
 3334DPPC   C4A61700  29.855  17.020  29.840
 3334DPPC   C1B61701  29.605  18.370  29.130
 3334DPPC   C2B61702  29.355  18.370  29.540
 3334DPPC   C3B61703  29.065  17.990  29.590
 3334DPPC   C4B61704  29.015  17.480  29.630
 3335DPPC   NC361705  21.180  12.640  46.740
 3335DPPC   PO461706  21.390  12.340  46.540
 3335DPPC   GL161707  21.780  12.340  46.300
 3335DPPC   GL261708  21.960  11.990  46.290
 3335DPPC   C1A61709  21.970  12.520  45.980
 3335DPPC   C2A61710  22.200  12.900  45.890
 3335DPPC   C3A61711  22.270  13.190  45.560
 3335DPPC   C4A61712  21.990  13.200  45.240
 3335DPPC   C1B61713  21.900  12.020  45.920
 3335DPPC   C2B61714  21.990  12.280  45.490
 3335DPPC   C3B61715  21.830  12.680  45.410
 3335DPPC   C4B61716  21.570  13.070  45.430
 3336DPPC   NC361717  13.370  21.070  28.060
 3336DPPC   PO461718  13.350  21.020  28.480
 3336DPPC   GL161719  13.020  21.140  28.400
 3336DPPC   GL261720  12.950  21.440  28.200
 3336DPPC   C1A61721  12.620  20.990  28.120
 3336DPPC   C2A61722  12.270  20.690  28.020
 3336DPPC   C3A61723  11.980  20.450  27.830
 3336DPPC   C4A61724  11.690  20.390  27.490
 3336DPPC   C1B61725  12.650  21.440  28.470
 3336DPPC   C2B61726  12.370  21.620  28.520
 3336DPPC   C3B61727  12.210  21.860  28.420
 3336DPPC   C4B61728  11.900  22.020  28.090
 3337DPPC   NC361729  19.680   6.410  23.940
 3337DPPC   PO461730  19.420   6.240  24.400
 3337DPPC   GL161731  19.580   6.700  24.330
 3337DPPC   GL261732  19.340   6.880  24.460
 3337DPPC   C1A61733  20.000   6.820  24.350
 3337DPPC   C2A61734  20.390   6.640  24.580
 3337DPPC   C3A61735  20.780   6.890  24.550
 3337DPPC   C4A61736  21.150   7.220  24.680
 3337DPPC   C1B61737  19.270   7.230  24.540
 3337DPPC   C2B61738  19.430   7.620  24.530
 3337DPPC   C3B61739  19.660   7.990  24.630
 3337DPPC   C4B61740  19.850   8.220  25.020
 3338DPPC   NC361741  13.040  13.930  42.470
 3338DPPC   PO461742  13.330  14.270  42.400
 3338DPPC   GL161743  13.740  14.340  42.080
 3338DPPC   GL261744  13.900  14.210  42.300
 3338DPPC   C1A61745  14.010  14.720  41.970
 3338DPPC   C2A61746  14.260  14.900  41.950
 3338DPPC   C3A61747  14.640  14.900  42.120
 3338DPPC   C4A61748  14.780  14.540  42.260
 3338DPPC   C1B61749  14.240  14.660  42.390
 3338DPPC   C2B61750  14.140  15.120  42.480
 3338DPPC   C3B61751  14.300  15.520  42.500
 3338DPPC   C4B61752  14.530  15.760  42.220
 3339DPPC   NC361753   9.160  20.800  27.180
 3339DPPC   PO461754   9.560  20.900  27.060
 3339DPPC   GL161755   9.870  20.880  27.020
 3339DPPC   GL261756  10.010  20.660  26.860
 3339DPPC   C1A61757  10.190  20.750  27.350
 3339DPPC   C2A61758  10.460  20.780  27.660
 3339DPPC   C3A61759  10.600  20.380  27.470
 3339DPPC   C4A61760  10.750  19.990  27.680
 3339DPPC   C1B61761  10.410  20.720  26.850
 3339DPPC   C2B61762  10.680  20.710  27.080
 3339DPPC   C3B61763  11.110  20.670  27.210
 3339DPPC   C4B61764  11.440  20.880  27.400
 3340DPPC   NC361765  23.060   3.500  35.930
 3340DPPC   PO461766  23.010   3.740  35.460
 3340DPPC   GL161767  22.960   4.060  35.240
 3340DPPC   GL261768  22.790   4.310  35.280
 3340DPPC   C1A61769  23.230   4.450  35.050
 3340DPPC   C2A61770  23.300   4.880  34.850
 3340DPPC   C3A61771  23.300   5.260  34.680
 3340DPPC   C4A61772  23.500   5.620  34.840
 3340DPPC   C1B61773  22.760   4.330  34.900
 3340DPPC   C2B61774  23.000   4.580  34.500
 3340DPPC   C3B61775  23.260   4.930  34.320
 3340DPPC   C4B61776  23.200   5.230  34.020
 3341DPPC   NC361777  31.175  16.060  23.950
 3341DPPC   PO461778  30.955  16.410  23.940
 3341DPPC   GL161779  30.555  16.420  24.110
 3341DPPC   GL261780  30.415  16.680  24.240
 3341DPPC   C1A61781  30.385  16.200  24.490
 3341DPPC   C2A61782  29.975  16.020  24.740
 3341DPPC   C3A61783  29.665  15.660  24.940
 3341DPPC   C4A61784  29.365  15.480  25.200
 3341DPPC   C1B61785  30.195  16.700  24.600
 3341DPPC   C2B61786  29.745  16.540  24.770
 3341DPPC   C3B61787  29.585  16.350  25.160
 3341DPPC   C4B61788  29.235  16.020  25.200
 3342DPPC   NC361789  14.590  23.050  33.950
 3342DPPC   PO461790  14.260  22.900  33.740
 3342DPPC   GL161791  13.970  23.130  33.990
 3342DPPC   GL261792  14.210  23.140  34.220
 3342DPPC   C1A61793  13.640  23.390  34.110
 3342DPPC   C2A61794  13.570  23.810  34.370
 3342DPPC   C3A61795  13.250  24.130  34.540
 3342DPPC   C4A61796  12.840  24.280  34.690
 3342DPPC   C1B61797  14.040  23.570  34.360
 3342DPPC   C2B61798  14.120  23.990  34.630
 3342DPPC   C3B61799  14.200  24.270  34.970
 3342DPPC   C4B61800  14.520  24.480  35.200
 3343DPPC   NC361801  27.585  22.550  32.320
 3343DPPC   PO461802  27.905  22.330  32.450
 3343DPPC   GL161803  27.575  22.070  32.510
 3343DPPC   GL261804  27.455  22.280  32.760
 3343DPPC   C1A61805  27.225  21.750  32.590
 3343DPPC   C2A61806  26.855  21.350  32.730
 3343DPPC   C3A61807  26.585  20.950  32.610
 3343DPPC   C4A61808  26.140  20.580  32.650
 3343DPPC   C1B61809  27.515  22.430  33.190
 3343DPPC   C2B61810  27.405  22.090  33.470
 3343DPPC   C3B61811  27.135  21.830  33.690
 3343DPPC   C4B61812  26.735  21.740  33.720
 3344DPPC   NC361813  17.490  20.100  22.670
 3344DPPC   PO461814  17.150  20.330  22.500
 3344DPPC   GL161815  16.780  20.580  22.340
 3344DPPC   GL261816  16.930  20.580  22.080
 3344DPPC   C1A61817  16.420  20.750  22.130
 3344DPPC   C2A61818  16.100  20.910  21.870
 3344DPPC   C3A61819  15.620  21.000  21.790
 3344DPPC   C4A61820  15.450  21.240  21.470
 3344DPPC   C1B61821  16.870  20.970  21.910
 3344DPPC   C2B61822  16.780  21.270  21.520
 3344DPPC   C3B61823  16.550  21.260  21.120
 3344DPPC   C4B61824  16.280  21.400  20.880
 3345DPPC   NC361825  18.530   5.720  27.650
 3345DPPC   PO461826  18.790   5.550  27.350
 3345DPPC   GL161827  19.070   5.910  27.500
 3345DPPC   GL261828  19.220   6.170  27.320
 3345DPPC   C1A61829  19.520   6.150  27.700
 3345DPPC   C2A61830  19.770   6.310  28.070
 3345DPPC   C3A61831  20.110   6.560  28.150
 3345DPPC   C4A61832  20.430   6.930  28.200
 3345DPPC   C1B61833  19.330   6.450  27.170
 3345DPPC   C2B61834  19.600   6.860  27.170
 3345DPPC   C3B61835  19.560   7.260  27.210
 3345DPPC   C4B61836  19.750   7.540  27.430
 3346DPPC   NC361837  23.590  12.120  41.800
 3346DPPC   PO461838  23.200  12.290  41.760
 3346DPPC   GL161839  23.190  11.940  42.050
 3346DPPC   GL261840  23.140  11.590  41.990
 3346DPPC   C1A61841  23.350  11.810  42.430
 3346DPPC   C2A61842  23.750  11.780  42.620
 3346DPPC   C3A61843  23.970  11.670  42.990
 3346DPPC   C4A61844  24.150  11.290  43.050
 3346DPPC   C1B61845  23.150  11.200  42.180
 3346DPPC   C2B61846  23.140  10.890  42.420
 3346DPPC   C3B61847  23.150  10.410  42.480
 3346DPPC   C4B61848  23.180  10.270  42.020
 3347DPPC   NC361849  26.250  22.780  30.740
 3347DPPC   PO461850  26.665  22.540  30.530
 3347DPPC   GL161851  26.310  22.320  30.430
 3347DPPC   GL261852  26.100  22.430  30.270
 3347DPPC   C1A61853  26.110  21.870  30.500
 3347DPPC   C2A61854  25.920  21.400  30.620
 3347DPPC   C3A61855  25.500  21.240  30.290
 3347DPPC   C4A61856  25.260  21.430  30.000
 3347DPPC   C1B61857  25.700  22.290  30.310
 3347DPPC   C2B61858  25.230  22.320  30.310
 3347DPPC   C3B61859  24.840  22.120  30.410
 3347DPPC   C4B61860  24.400  22.170  30.530
 3348DPPC   NC361861  25.360  16.920  29.010
 3348DPPC   PO461862  25.110  17.100  29.340
 3348DPPC   GL161863  24.830  17.310  29.500
 3348DPPC   GL261864  24.790  17.580  29.510
 3348DPPC   C1A61865  24.980  17.580  30.030
 3348DPPC   C2A61866  25.000  17.960  30.350
 3348DPPC   C3A61867  24.710  18.400  30.360
 3348DPPC   C4A61868  24.880  18.800  30.320
 3348DPPC   C1B61869  25.140  17.820  29.430
 3348DPPC   C2B61870  25.650  17.910  29.340
 3348DPPC   C3B61871  25.730  18.220  29.530
 3348DPPC   C4B61872  25.550  18.630  29.710
 3349DPPC   NC361873  22.400  22.480  33.580
 3349DPPC   PO461874  22.710  22.670  33.630
 3349DPPC   GL161875  22.830  22.980  33.700
 3349DPPC   GL261876  22.740  23.130  33.910
 3349DPPC   C1A61877  23.250  23.190  33.860
 3349DPPC   C2A61878  23.370  23.430  33.410
 3349DPPC   C3A61879  23.640  23.890  33.250
 3349DPPC   C4A61880  23.990  24.170  33.160
 3349DPPC   C1B61881  22.890  23.470  34.030
 3349DPPC   C2B61882  22.960  23.840  34.230
 3349DPPC   C3B61883  23.370  24.190  34.220
 3349DPPC   C4B61884  23.770  24.380  34.060
 3350DPPC   NC361885  23.980  23.340  21.690
 3350DPPC   PO461886  23.760  23.130  21.390
 3350DPPC   GL161887  23.380  23.100  21.700
 3350DPPC   GL261888  23.270  22.760  21.860
 3350DPPC   C1A61889  23.130  23.340  21.820
 3350DPPC   C2A61890  22.800  23.430  22.060
 3350DPPC   C3A61891  22.570  23.710  22.400
 3350DPPC   C4A61892  22.400  23.570  22.790
 3350DPPC   C1B61893  23.170  22.400  22.100
 3350DPPC   C2B61894  22.930  22.330  22.460
 3350DPPC   C3B61895  22.710  22.610  22.760
 3350DPPC   C4B61896  22.190  22.570  22.750
 3351DPPC   NC361897  29.185  17.840  21.720
 3351DPPC   PO461898  29.235  17.600  22.070
 3351DPPC   GL161899  29.005  17.410  22.290
 3351DPPC   GL261900  28.775  17.480  22.440
 3351DPPC   C1A61901  28.995  17.030  22.610
 3351DPPC   C2A61902  28.675  16.860  22.830
 3351DPPC   C3A61903  28.505  16.410  23.010
 3351DPPC   C4A61904  28.285  16.140  22.760
 3351DPPC   C1B61905  28.925  17.470  22.900
 3351DPPC   C2B61906  29.255  17.580  23.100
 3351DPPC   C3B61907  29.275  17.810  23.560
 3351DPPC   C4B61908  29.475  18.020  24.060
 3352DPPC   NC361909  21.620  15.320  47.190
 3352DPPC   PO461910  21.190  15.240  47.370
 3352DPPC   GL161911  21.130  15.520  47.050
 3352DPPC   GL261912  20.830  15.460  46.920
 3352DPPC   C1A61913  21.160  15.790  46.590
 3352DPPC   C2A61914  21.240  15.860  46.200
 3352DPPC   C3A61915  21.190  15.760  45.780
 3352DPPC   C4A61916  21.460  15.910  45.430
 3352DPPC   C1B61917  20.700  15.880  46.740
 3352DPPC   C2B61918  20.860  16.190  46.500
 3352DPPC   C3B61919  20.990  16.530  46.280
 3352DPPC   C4B61920  21.200  16.850  46.020
 3353DPPC   NC361921  24.120  21.960  45.330
 3353DPPC   PO461922  23.920  22.280  45.090
 3353DPPC   GL161923  23.810  22.100  44.830
 3353DPPC   GL261924  23.570  22.200  44.680
 3353DPPC   C1A61925  23.580  21.760  44.630
 3353DPPC   C2A61926  23.330  21.430  44.550
 3353DPPC   C3A61927  23.250  20.920  44.500
 3353DPPC   C4A61928  23.480  20.710  44.810
 3353DPPC   C1B61929  23.140  21.980  44.570
 3353DPPC   C2B61930  22.900  22.060  44.300
 3353DPPC   C3B61931  22.770  22.080  43.920
 3353DPPC   C4B61932  22.540  22.080  43.510
 3354DPPC   NC361933  15.680  20.940  23.440
 3354DPPC   PO461934  15.670  20.540  23.230
 3354DPPC   GL161935  15.320  20.730  23.080
 3354DPPC   GL261936  15.090  20.590  22.970
 3354DPPC   C1A61937  15.000  21.130  23.000
 3354DPPC   C2A61938  14.750  21.520  22.700
 3354DPPC   C3A61939  14.300  21.730  22.900
 3354DPPC   C4A61940  13.930  21.930  22.780
 3354DPPC   C1B61941  14.700  20.720  22.950
 3354DPPC   C2B61942  14.520  21.120  23.060
 3354DPPC   C3B61943  14.020  21.250  23.170
 3354DPPC   C4B61944  13.760  21.560  23.150
 3355DPPC   NC361945  27.265  13.970  25.420
 3355DPPC   PO461946  27.675  13.680  25.540
 3355DPPC   GL161947  28.175  13.740  25.430
 3355DPPC   GL261948  28.445  13.690  25.710
 3355DPPC   C1A61949  28.635  13.500  25.150
 3355DPPC   C2A61950  28.995  13.470  24.790
 3355DPPC   C3A61951  29.235  13.690  24.650
 3355DPPC   C4A61952  29.615  13.850  24.680
 3355DPPC   C1B61953  28.905  13.920  25.610
 3355DPPC   C2B61954  29.275  14.030  25.550
 3355DPPC   C3B61955  29.745  14.040  25.580
 3355DPPC   C4B61956  30.005  14.340  25.820
 3356DPPC   NC361957  11.580  12.560  30.590
 3356DPPC   PO461958  11.360  12.580  30.210
 3356DPPC   GL161959  11.610  12.890  30.080
 3356DPPC   GL261960  11.580  13.110  30.190
 3356DPPC   C1A61961  12.050  12.940  30.210
 3356DPPC   C2A61962  12.300  12.950  29.850
 3356DPPC   C3A61963  12.580  13.150  30.100
 3356DPPC   C4A61964  12.930  13.470  30.200
 3356DPPC   C1B61965  11.890  13.400  30.170
 3356DPPC   C2B61966  12.400  13.620  30.180
 3356DPPC   C3B61967  12.700  13.900  30.360
 3356DPPC   C4B61968  13.150  13.860  30.300
 3357DPPC   NC361969  13.150  16.350  42.770
 3357DPPC   PO461970  13.020  16.100  42.350
 3357DPPC   GL161971  13.260  16.340  42.160
 3357DPPC   GL261972  13.430  16.530  42.320
 3357DPPC   C1A61973  13.290  16.840  42.000
 3357DPPC   C2A61974  13.540  17.180  42.110
 3357DPPC   C3A61975  13.900  17.280  41.820
 3357DPPC   C4A61976  14.070  17.210  41.330
 3357DPPC   C1B61977  13.860  16.840  42.300
 3357DPPC   C2B61978  14.200  16.730  42.170
 3357DPPC   C3B61979  14.370  16.540  41.920
 3357DPPC   C4B61980  14.550  16.600  41.540
 3358DPPC   NC361981  21.700  22.100  46.130
 3358DPPC   PO461982  22.130  21.850  46.090
 3358DPPC   GL161983  21.880  21.590  46.070
 3358DPPC   GL261984  21.760  21.560  45.700
 3358DPPC   C1A61985  21.920  21.230  45.990
 3358DPPC   C2A61986  22.320  20.880  46.040
 3358DPPC   C3A61987  22.710  21.030  45.760
 3358DPPC   C4A61988  22.940  21.000  45.420
 3358DPPC   C1B61989  21.870  21.710  45.330
 3358DPPC   C2B61990  21.900  21.970  44.920
 3358DPPC   C3B61991  21.790  22.070  44.480
 3358DPPC   C4B61992  21.800  22.110  44.050
 3359DPPC   NC361993  15.620   2.030  29.940
 3359DPPC   PO461994  15.820   1.680  30.110
 3359DPPC   GL161995  15.950   1.350  30.040
 3359DPPC   GL261996  16.230   1.310  30.260
 3359DPPC   C1A61997  15.750   0.970  29.960
 3359DPPC   C2A61998  15.630   0.540  30.100
 3359DPPC   C3A61999  15.630   0.100  30.210
 3359DPPC   C4A62000  15.570  26.130  29.980
 3359DPPC   C1B62001  16.240   1.040  30.640
 3359DPPC   C2B62002  16.310   0.580  30.660
 3359DPPC   C3B62003  16.290   0.080  30.550
 3359DPPC   C4B62004  16.080  26.120  30.320
 3360DPPC   NC362005  20.600  16.160  17.100
 3360DPPC   PO462006  20.900  16.580  17.110
 3360DPPC   GL162007  20.870  16.740  17.490
 3360DPPC   GL262008  21.100  16.960  17.730
 3360DPPC   C1A62009  20.560  16.660  17.800
 3360DPPC   C2A62010  20.460  16.800  18.230
 3360DPPC   C3A62011  20.350  16.830  18.630
 3360DPPC   C4A62012  20.510  17.100  18.960
 3360DPPC   C1B62013  21.000  16.780  18.130
 3360DPPC   C2B62014  20.860  16.770  18.610
 3360DPPC   C3B62015  20.950  16.870  19.020
 3360DPPC   C4B62016  21.170  17.240  19.440
 3361DPPC   NC362017  22.210   4.750  25.910
 3361DPPC   PO462018  21.930   5.100  26.070
 3361DPPC   GL162019  22.080   5.490  26.160
 3361DPPC   GL262020  22.340   5.450  26.390
 3361DPPC   C1A62021  22.210   5.940  26.280
 3361DPPC   C2A62022  22.440   6.380  26.430
 3361DPPC   C3A62023  22.860   6.550  26.260
 3361DPPC   C4A62024  23.200   6.780  26.460
 3361DPPC   C1B62025  22.300   5.710  26.720
 3361DPPC   C2B62026  22.470   6.000  27.040
 3361DPPC   C3B62027  22.620   6.350  27.210
 3361DPPC   C4B62028  22.810   6.690  27.520
 3362DPPC   NC362029  15.810   7.120  29.110
 3362DPPC   PO462030  16.240   7.190  29.010
 3362DPPC   GL162031  16.670   7.270  29.010
 3362DPPC   GL262032  16.920   7.250  28.850
 3362DPPC   C1A62033  16.910   7.650  29.180
 3362DPPC   C2A62034  17.340   7.920  29.240
 3362DPPC   C3A62035  17.790   8.000  29.330
 3362DPPC   C4A62036  18.110   8.160  29.430
 3362DPPC   C1B62037  17.270   7.520  28.830
 3362DPPC   C2B62038  17.400   7.920  28.720
 3362DPPC   C3B62039  17.710   8.150  28.850
 3362DPPC   C4B62040  17.930   8.510  29.030
 3363DPPC   NC362041  15.580  12.630  43.370
 3363DPPC   PO462042  16.010  12.470  43.470
 3363DPPC   GL162043  16.410  12.650  43.450
 3363DPPC   GL262044  16.400  13.100  43.450
 3363DPPC   C1A62045  16.820  12.810  43.590
 3363DPPC   C2A62046  17.210  12.890  43.410
 3363DPPC   C3A62047  17.450  12.970  43.020
 3363DPPC   C4A62048  17.790  13.200  42.690
 3363DPPC   C1B62049  16.500  13.590  43.410
 3363DPPC   C2B62050  16.880  13.750  43.220
 3363DPPC   C3B62051  17.130  14.020  43.060
 3363DPPC   C4B62052  17.550  14.250  43.030
 3364DPPC   NC362053  16.790  22.450  19.090
 3364DPPC   PO462054  17.070  22.620  19.070
 3364DPPC   GL162055  17.150  22.350  19.390
 3364DPPC   GL262056  17.310  22.500  19.660
 3364DPPC   C1A62057  17.380  21.940  19.390
 3364DPPC   C2A62058  17.510  21.640  19.760
 3364DPPC   C3A62059  17.490  21.400  20.160
 3364DPPC   C4A62060  17.380  21.160  20.490
 3364DPPC   C1B62061  17.490  22.520  20.120
 3364DPPC   C2B62062  17.390  22.670  20.560
 3364DPPC   C3B62063  17.180  22.420  20.850
 3364DPPC   C4B62064  17.050  22.510  21.310
 3365DPPC   NC362065  20.460  24.120  35.560
 3365DPPC   PO462066  20.820  24.190  35.500
 3365DPPC   GL162067  20.980  24.590  35.660
 3365DPPC   GL262068  20.680  24.770  35.780
 3365DPPC   C1A62069  21.080  25.060  35.740
 3365DPPC   C2A62070  21.170  25.500  35.740
 3365DPPC   C3A62071  21.320  25.860  35.740
 3365DPPC   C4A62072  21.450  26.310  35.760
 3365DPPC   C1B62073  20.540  25.180  35.850
 3365DPPC   C2B62074  20.320  25.570  35.930
 3365DPPC   C3B62075  20.120  25.760  36.250
 3365DPPC   C4B62076  19.920  26.040  36.450
 3366DPPC   NC362077  18.080  24.180  26.530
 3366DPPC   PO462078  18.010  24.300  26.930
 3366DPPC   GL162079  18.040  24.660  27.150
 3366DPPC   GL262080  18.330  24.670  27.130
 3366DPPC   C1A62081  18.040  25.180  27.120
 3366DPPC   C2A62082  18.200  25.570  26.960
 3366DPPC   C3A62083  18.270  25.950  26.690
 3366DPPC   C4A62084  18.410  26.110  26.280
 3366DPPC   C1B62085  18.520  25.110  26.970
 3366DPPC   C2B62086  18.680  25.480  26.710
 3366DPPC   C3B62087  18.810  25.920  26.650
 3366DPPC   C4B62088  18.950  26.370  26.720
 3367DPPC   NC362089  13.540  21.030  33.200
 3367DPPC   PO462090  13.600  21.270  32.940
 3367DPPC   GL162091  13.170  21.280  32.740
 3367DPPC   GL262092  12.940  21.140  32.480
 3367DPPC   C1A62093  12.700  21.550  32.900
 3367DPPC   C2A62094  12.300  21.820  33.040
 3367DPPC   C3A62095  12.050  22.210  33.150
 3367DPPC   C4A62096  11.640  22.390  33.260
 3367DPPC   C1B62097  12.490  21.220  32.560
 3367DPPC   C2B62098  12.240  21.540  32.660
 3367DPPC   C3B62099  11.820  21.660  32.740
 3367DPPC   C4B62100  11.680  22.010  32.840
 3368DPPC   NC362101  26.330  24.250  25.240
 3368DPPC   PO462102  25.900  24.290  25.450
 3368DPPC   GL162103  25.670  23.880  25.610
 3368DPPC   GL262104  25.790  23.600  25.830
 3368DPPC   C1A62105  25.220  23.820  25.750
 3368DPPC   C2A62106  24.920  23.470  25.970
 3368DPPC   C3A62107  24.600  23.370  26.160
 3368DPPC   C4A62108  24.330  23.210  26.550
 3368DPPC   C1B62109  25.450  23.290  25.720
 3368DPPC   C2B62110  25.120  22.980  25.890
 3368DPPC   C3B62111  24.890  22.600  26.120
 3368DPPC   C4B62112  25.160  22.270  26.290
 3369DPPC   NC362113  23.300  13.030  17.480
 3369DPPC   PO462114  23.330  13.450  17.450
 3369DPPC   GL162115  23.410  13.370  17.880
 3369DPPC   GL262116  23.570  12.930  17.950
 3369DPPC   C1A62117  23.410  13.600  18.230
 3369DPPC   C2A62118  23.740  13.680  18.480
 3369DPPC   C3A62119  23.750  13.700  18.850
 3369DPPC   C4A62120  24.070  13.790  19.040
 3369DPPC   C1B62121  23.400  13.090  18.320
 3369DPPC   C2B62122  23.330  13.320  18.670
 3369DPPC   C3B62123  23.540  13.230  18.970
 3369DPPC   C4B62124  23.540  13.150  19.330
 3370DPPC   NC362125  10.690  17.080  24.840
 3370DPPC   PO462126  10.510  16.970  25.300
 3370DPPC   GL162127  10.960  16.980  25.380
 3370DPPC   GL262128  11.040  17.140  25.180
 3370DPPC   C1A62129  11.360  17.130  25.550
 3370DPPC   C2A62130  11.790  17.230  25.720
 3370DPPC   C3A62131  12.000  16.890  25.880
 3370DPPC   C4A62132  12.150  16.390  26.020
 3370DPPC   C1B62133  11.130  17.610  25.130
 3370DPPC   C2B62134  11.520  17.840  25.250
 3370DPPC   C3B62135  11.600  18.320  25.290
 3370DPPC   C4B62136  11.700  18.790  25.310
 3371DPPC   NC362137  17.340   9.330  42.230
 3371DPPC   PO462138  17.590   9.380  42.640
 3371DPPC   GL162139  17.810   9.530  42.140
 3371DPPC   GL262140  18.090   9.640  42.180
 3371DPPC   C1A62141  17.710   9.830  41.810
 3371DPPC   C2A62142  17.790  10.240  41.830
 3371DPPC   C3A62143  17.980  10.720  41.820
 3371DPPC   C4A62144  18.170  11.170  41.580
 3371DPPC   C1B62145  18.240   9.980  41.900
 3371DPPC   C2B62146  18.210  10.300  41.620
 3371DPPC   C3B62147  18.200  10.680  41.410
 3371DPPC   C4B62148  18.240  11.020  41.070
 3372DPPC   NC362149  13.690  26.030  24.290
 3372DPPC   PO462150  13.720  26.210  24.630
 3372DPPC   GL162151  13.750  25.790  24.760
 3372DPPC   GL262152  13.540  25.610  24.650
 3372DPPC   C1A62153  14.060  25.500  24.760
 3372DPPC   C2A62154  14.440  25.240  24.650
 3372DPPC   C3A62155  14.960  25.140  24.480
 3372DPPC   C4A62156  15.290  24.790  24.450
 3372DPPC   C1B62157  13.630  25.220  24.760
 3372DPPC   C2B62158  14.000  25.020  24.630
 3372DPPC   C3B62159  14.410  24.720  24.720
 3372DPPC   C4B62160  14.890  24.640  24.670
 3373DPPC   NC362161  28.995  21.460  25.290
 3373DPPC   PO462162  29.265  21.120  25.330
 3373DPPC   GL162163  29.155  20.740  25.470
 3373DPPC   GL262164  28.895  20.710  25.200
 3373DPPC   C1A62165  28.645  20.800  25.600
 3373DPPC   C2A62166  28.305  20.460  25.660
 3373DPPC   C3A62167  28.195  20.180  25.970
 3373DPPC   C4A62168  28.465  19.830  26.060
 3373DPPC   C1B62169  28.505  20.330  25.200
 3373DPPC   C2B62170  28.415  19.960  25.480
 3373DPPC   C3B62171  28.045  19.720  25.700
 3373DPPC   C4B62172  28.005  19.530  26.110
 3374DPPC   NC362173  23.400  22.310  35.480
 3374DPPC   PO462174  23.160  22.370  35.200
 3374DPPC   GL162175  23.610  22.590  35.150
 3374DPPC   GL262176  23.830  22.510  34.960
 3374DPPC   C1A62177  23.620  23.010  34.990
 3374DPPC   C2A62178  23.980  23.330  35.040
 3374DPPC   C3A62179  24.120  23.780  34.840
 3374DPPC   C4A62180  23.760  23.990  34.700
 3374DPPC   C1B62181  24.210  22.780  34.830
 3374DPPC   C2B62182  24.620  22.900  34.900
 3374DPPC   C3B62183  24.820  23.160  34.570
 3374DPPC   C4B62184  24.740  23.530  34.350
 3375DPPC   NC362185  18.880   8.010  21.520
 3375DPPC   PO462186  18.800   8.170  21.850
 3375DPPC   GL162187  19.050   8.440  22.100
 3375DPPC   GL262188  19.050   8.740  22.160
 3375DPPC   C1A62189  19.480   8.490  22.190
 3375DPPC   C2A62190  19.860   8.810  22.370
 3375DPPC   C3A62191  20.160   8.810  22.700
 3375DPPC   C4A62192  20.180   8.980  23.110
 3375DPPC   C1B62193  19.400   8.920  22.390
 3375DPPC   C2B62194  19.560   9.220  22.590
 3375DPPC   C3B62195  19.410   9.540  22.700
 3375DPPC   C4B62196  19.180   9.890  22.700
 3376DPPC   NC362197  26.875  15.640  46.670
 3376DPPC   PO462198  27.005  15.730  46.190
 3376DPPC   GL162199  26.675  15.540  45.940
 3376DPPC   GL262200  26.765  15.120  46.150
 3376DPPC   C1A62201  26.270  15.400  45.800
 3376DPPC   C2A62202  25.890  15.330  45.640
 3376DPPC   C3A62203  25.540  15.410  45.360
 3376DPPC   C4A62204  25.510  15.360  44.880
 3376DPPC   C1B62205  26.735  15.060  45.720
 3376DPPC   C2B62206  26.715  15.040  45.330
 3376DPPC   C3B62207  26.420  15.080  45.080
 3376DPPC   C4B62208  26.150  15.430  44.780
 3377DPPC   NC362209  24.330  19.250  24.360
 3377DPPC   PO462210  24.320  19.480  23.900
 3377DPPC   GL162211  24.330  19.750  24.280
 3377DPPC   GL262212  24.540  19.650  24.580
 3377DPPC   C1A62213  24.350  20.250  24.170
 3377DPPC   C2A62214  24.700  20.440  23.830
 3377DPPC   C3A62215  24.870  20.660  23.600
 3377DPPC   C4A62216  25.010  21.050  23.520
 3377DPPC   C1B62217  24.910  19.870  24.470
 3377DPPC   C2B62218  25.240  20.160  24.530
 3377DPPC   C3B62219  25.620  20.360  24.520
 3377DPPC   C4B62220  25.950  20.500  24.320
 3378DPPC   NC362221  29.615   5.830  27.820
 3378DPPC   PO462222  29.925   5.840  28.180
 3378DPPC   GL162223  29.555   6.100  28.210
 3378DPPC   GL262224  29.205   6.090  28.130
 3378DPPC   C1A62225  29.435   6.410  28.450
 3378DPPC   C2A62226  29.305   6.690  28.880
 3378DPPC   C3A62227  29.225   7.010  29.230
 3378DPPC   C4A62228  28.975   7.360  29.390
 3378DPPC   C1B62229  28.835   6.280  28.010
 3378DPPC   C2B62230  28.715   6.470  27.610
 3378DPPC   C3B62231  28.925   6.570  27.200
 3378DPPC   C4B62232  28.915   6.680  26.640
 3379DPPC   NC362233  30.445  13.350  43.000
 3379DPPC   PO462234  30.295  12.950  43.130
 3379DPPC   GL162235  29.985  12.890  42.860
 3379DPPC   GL262236  30.095  12.830  42.510
 3379DPPC   C1A62237  29.475  12.900  42.840
 3379DPPC   C2A62238  29.235  12.540  42.570
 3379DPPC   C3A62239  28.925  12.240  42.550
 3379DPPC   C4A62240  28.585  12.180  42.310
 3379DPPC   C1B62241  29.935  12.990  42.070
 3379DPPC   C2B62242  29.835  13.100  41.710
 3379DPPC   C3B62243  29.935  12.970  41.350
 3379DPPC   C4B62244  29.835  12.820  40.940
 3380DPPC   NC362245  28.365  16.110  30.880
 3380DPPC   PO462246  28.355  16.180  31.310
 3380DPPC   GL162247  28.545  16.580  31.050
 3380DPPC   GL262248  28.745  16.380  30.960
 3380DPPC   C1A62249  28.475  16.920  30.690
 3380DPPC   C2A62250  28.535  17.340  30.570
 3380DPPC   C3A62251  28.625  17.720  30.310
 3380DPPC   C4A62252  28.355  18.140  30.530
 3380DPPC   C1B62253  29.025  16.580  30.630
 3380DPPC   C2B62254  29.345  16.830  30.670
 3380DPPC   C3B62255  29.715  16.830  30.960
 3380DPPC   C4B62256  29.875  16.880  31.340
 3381DPPC   NC362257  15.290  23.260  29.600
 3381DPPC   PO462258  14.970  23.510  29.770
 3381DPPC   GL162259  14.820  23.930  29.800
 3381DPPC   GL262260  14.600  23.980  29.960
 3381DPPC   C1A62261  14.610  24.430  29.790
 3381DPPC   C2A62262  14.360  24.680  29.590
 3381DPPC   C3A62263  13.980  24.680  29.220
 3381DPPC   C4A62264  13.760  24.630  28.990
 3381DPPC   C1B62265  14.210  24.160  29.900
 3381DPPC   C2B62266  13.860  24.380  29.740
 3381DPPC   C3B62267  13.770  24.770  29.670
 3381DPPC   C4B62268  13.650  25.130  29.800
 3382DPPC   NC362269  26.120  17.500  33.750
 3382DPPC   PO462270  26.575  17.580  33.580
 3382DPPC   GL162271  26.875  17.840  33.340
 3382DPPC   GL262272  27.255  17.800  33.370
 3382DPPC   C1A62273  26.965  18.340  33.150
 3382DPPC   C2A62274  27.285  18.750  33.030
 3382DPPC   C3A62275  27.535  19.200  33.010
 3382DPPC   C4A62276  27.815  19.530  32.900
 3382DPPC   C1B62277  27.575  18.190  33.400
 3382DPPC   C2B62278  27.785  18.430  33.610
 3382DPPC   C3B62279  28.185  18.660  33.570
 3382DPPC   C4B62280  28.585  18.750  33.500
 3383DPPC   NC362281   9.490  21.300  34.830
 3383DPPC   PO462282   9.630  21.270  35.310
 3383DPPC   GL162283   9.900  20.860  35.430
 3383DPPC   GL262284  10.090  21.020  35.570
 3383DPPC   C1A62285  10.170  20.600  35.200
 3383DPPC   C2A62286  10.420  20.280  34.990
 3383DPPC   C3A62287  10.790  20.160  34.760
 3383DPPC   C4A62288  11.060  20.380  34.520
 3383DPPC   C1B62289  10.550  20.970  35.530
 3383DPPC   C2B62290  10.970  21.160  35.390
 3383DPPC   C3B62291  11.280  20.930  35.210
 3383DPPC   C4B62292  11.430  20.590  34.920
 3384DPPC   NC362293  19.890   7.690  42.460
 3384DPPC   PO462294  20.270   7.680  42.390
 3384DPPC   GL162295  20.440   8.080  42.320
 3384DPPC   GL262296  20.780   8.170  42.530
 3384DPPC   C1A62297  20.650   8.440  42.100
 3384DPPC   C2A62298  20.730   8.950  41.930
 3384DPPC   C3A62299  21.110   9.160  41.700
 3384DPPC   C4A62300  21.220   8.900  41.370
 3384DPPC   C1B62301  20.410   8.500  42.620
 3384DPPC   C2B62302  19.990   8.870  42.450
 3384DPPC   C3B62303  19.740   9.220  42.420
 3384DPPC   C4B62304  19.600   9.410  42.780
 3385DPPC   NC362305  24.170  19.260  28.500
 3385DPPC   PO462306  24.550  18.960  28.300
 3385DPPC   GL162307  24.670  19.220  28.650
 3385DPPC   GL262308  24.410  19.450  28.840
 3385DPPC   C1A62309  24.950  19.680  28.740
 3385DPPC   C2A62310  25.100  19.900  29.080
 3385DPPC   C3A62311  25.320  20.120  29.450
 3385DPPC   C4A62312  25.680  20.190  29.650
 3385DPPC   C1B62313  24.670  19.530  29.190
 3385DPPC   C2B62314  25.000  19.440  29.510
 3385DPPC   C3B62315  25.080  19.450  29.890
 3385DPPC   C4B62316  25.250  19.440  30.220
 3386DPPC   NC362317  33.495  13.430  33.540
 3386DPPC   PO462318  33.465  13.800  33.250
 3386DPPC   GL162319  33.195  14.020  33.370
 3386DPPC   GL262320  33.055  13.780  33.700
 3386DPPC   C1A62321  32.755  14.150  33.550
 3386DPPC   C2A62322  32.385  14.140  33.810
 3386DPPC   C3A62323  32.035  14.100  33.580
 3386DPPC   C4A62324  31.845  14.090  33.160
 3386DPPC   C1B62325  32.545  13.620  33.620
 3386DPPC   C2B62326  32.025  13.600  33.790
 3386DPPC   C3B62327  31.755  13.930  33.920
 3386DPPC   C4B62328  31.605  14.280  34.060
 3387DPPC   NC362329  10.670  26.090  30.810
 3387DPPC   PO462330  10.540  25.640  30.510
 3387DPPC   GL162331  10.930  25.330  30.400
 3387DPPC   GL262332  11.120  25.490  30.650
 3387DPPC   C1A62333  11.190  25.100  30.250
 3387DPPC   C2A62334  11.350  24.890  29.980
 3387DPPC   C3A62335  11.350  24.670  29.710
 3387DPPC   C4A62336  11.230  24.340  29.400
 3387DPPC   C1B62337  11.500  25.140  30.710
 3387DPPC   C2B62338  11.580  24.740  30.650
 3387DPPC   C3B62339  11.700  24.540  30.220
 3387DPPC   C4B62340  11.840  24.710  29.860
 3388DPPC   NC362341   9.340  17.970  31.860
 3388DPPC   PO462342   9.230  18.440  31.710
 3388DPPC   GL162343   9.560  18.640  31.730
 3388DPPC   GL262344   9.720  18.400  31.800
 3388DPPC   C1A62345   9.620  18.770  32.130
 3388DPPC   C2A62346   9.750  18.580  32.450
 3388DPPC   C3A62347   9.800  18.570  32.950
 3388DPPC   C4A62348   9.850  18.810  33.280
 3388DPPC   C1B62349  10.040  18.470  32.010
 3388DPPC   C2B62350  10.400  18.560  31.760
 3388DPPC   C3B62351  10.830  18.820  31.730
 3388DPPC   C4B62352  11.060  19.150  31.950
 3389DPPC   NC362353  12.380  19.470  41.820
 3389DPPC   PO462354  12.080  19.060  41.700
 3389DPPC   GL162355  12.350  18.690  41.550
 3389DPPC   GL262356  12.660  18.590  41.660
 3389DPPC   C1A62357  12.550  18.390  41.220
 3389DPPC   C2A62358  12.480  18.550  40.860
 3389DPPC   C3A62359  12.280  18.500  40.500
 3389DPPC   C4A62360  12.140  18.340  40.140
 3389DPPC   C1B62361  12.910  18.260  41.660
 3389DPPC   C2B62362  13.130  17.950  41.690
 3389DPPC   C3B62363  13.410  17.890  41.320
 3389DPPC   C4B62364  13.850  18.020  41.120
 3390DPPC   NC362365  18.820   2.590  36.530
 3390DPPC   PO462366  18.620   2.280  36.570
 3390DPPC   GL162367  18.790   1.870  36.510
 3390DPPC   GL262368  18.930   1.640  36.810
 3390DPPC   C1A62369  19.040   1.390  36.410
 3390DPPC   C2A62370  18.840   1.040  36.300
 3390DPPC   C3A62371  18.470   0.910  36.490
 3390DPPC   C4A62372  17.990   0.780  36.710
 3390DPPC   C1B62373  18.770   1.150  36.800
 3390DPPC   C2B62374  18.950   0.740  36.730
 3390DPPC   C3B62375  19.110   0.300  36.580
 3390DPPC   C4B62376  19.090   0.150  36.210
 3391DPPC   NC362377  10.010  16.810  29.280
 3391DPPC   PO462378   9.830  16.500  29.530
 3391DPPC   GL162379  10.240  16.590  29.670
 3391DPPC   GL262380  10.440  16.400  29.800
 3391DPPC   C1A62381  10.600  16.870  29.760
 3391DPPC   C2A62382  10.960  17.080  29.800
 3391DPPC   C3A62383  11.430  17.090  29.840
 3391DPPC   C4A62384  11.810  17.010  30.060
 3391DPPC   C1B62385  10.810  16.470  29.630
 3391DPPC   C2B62386  11.130  16.500  29.460
 3391DPPC   C3B62387  11.520  16.450  29.090
 3391DPPC   C4B62388  11.900  16.580  29.120
 3392DPPC   NC362389  28.655   9.830  29.100
 3392DPPC   PO462390  28.675   9.850  28.600
 3392DPPC   GL162391  28.735   9.410  28.480
 3392DPPC   GL262392  28.755   9.540  28.260
 3392DPPC   C1A62393  28.925   9.040  28.310
 3392DPPC   C2A62394  29.285   8.780  28.150
 3392DPPC   C3A62395  29.565   8.510  28.120
 3392DPPC   C4A62396  29.875   8.250  28.170
 3392DPPC   C1B62397  29.185   9.440  28.160
 3392DPPC   C2B62398  29.545   9.210  28.210
 3392DPPC   C3B62399  29.925   9.280  28.140
 3392DPPC   C4B62400  30.305   9.130  27.970
 3393DPPC   NC362401  22.200   8.290  33.040
 3393DPPC   PO462402  21.760   8.340  33.070
 3393DPPC   GL162403  21.800   7.820  33.160
 3393DPPC   GL262404  22.050   7.810  33.420
 3393DPPC   C1A62405  21.540   7.520  33.240
 3393DPPC   C2A62406  21.460   7.040  33.240
 3393DPPC   C3A62407  21.300   6.670  33.120
 3393DPPC   C4A62408  21.150   6.380  32.790
 3393DPPC   C1B62409  21.800   7.610  33.760
 3393DPPC   C2B62410  21.570   7.260  33.740
 3393DPPC   C3B62411  21.570   6.910  33.740
 3393DPPC   C4B62412  21.390   6.580  33.600
 3394DPPC   NC362413  10.930  22.630  23.530
 3394DPPC   PO462414  11.010  22.470  23.070
 3394DPPC   GL162415  11.260  22.250  23.360
 3394DPPC   GL262416  11.560  22.040  23.320
 3394DPPC   C1A62417  11.520  22.170  23.770
 3394DPPC   C2A62418  11.690  22.370  24.110
 3394DPPC   C3A62419  11.960  22.470  24.400
 3394DPPC   C4A62420  12.360  22.630  24.570
 3394DPPC   C1B62421  11.950  21.910  23.610
 3394DPPC   C2B62422  12.190  21.660  23.800
 3394DPPC   C3B62423  12.550  21.580  23.950
 3394DPPC   C4B62424  12.830  21.460  24.280
 3395DPPC   NC362425  17.430   1.640  26.210
 3395DPPC   PO462426  17.260   1.520  26.610
 3395DPPC   GL162427  17.030   1.190  26.470
 3395DPPC   GL262428  17.140   0.830  26.340
 3395DPPC   C1A62429  16.740   0.830  26.620
 3395DPPC   C2A62430  16.610   0.480  26.750
 3395DPPC   C3A62431  16.700   0.070  26.870
 3395DPPC   C4A62432  16.820  26.050  26.990
 3395DPPC   C1B62433  17.120   0.390  26.400
 3395DPPC   C2B62434  17.390   0.030  26.400
 3395DPPC   C3B62435  17.470  26.050  26.250
 3395DPPC   C4B62436  17.550  25.620  26.040
 3396DPPC   NC362437  27.435  21.150  44.770
 3396DPPC   PO462438  27.455  20.690  44.780
 3396DPPC   GL162439  27.155  20.710  44.430
 3396DPPC   GL262440  27.095  20.980  44.450
 3396DPPC   C1A62441  26.675  20.620  44.210
 3396DPPC   C2A62442  26.310  20.310  44.150
 3396DPPC   C3A62443  25.840  20.240  44.170
 3396DPPC   C4A62444  25.470  20.110  43.960
 3396DPPC   C1B62445  27.005  20.990  44.030
 3396DPPC   C2B62446  26.975  20.670  43.780
 3396DPPC   C3B62447  27.225  20.520  43.490
 3396DPPC   C4B62448  27.535  20.300  43.250
 3397DPPC   NC362449  24.220  15.850  17.490
 3397DPPC   PO462450  24.190  15.630  17.850
 3397DPPC   GL162451  23.970  15.700  18.320
 3397DPPC   GL262452  24.180  15.890  18.490
 3397DPPC   C1A62453  23.840  15.540  18.710
 3397DPPC   C2A62454  23.630  15.290  19.010
 3397DPPC   C3A62455  23.550  14.990  19.430
 3397DPPC   C4A62456  23.170  14.850  19.760
 3397DPPC   C1B62457  24.360  15.610  18.830
 3397DPPC   C2B62458  24.430  15.330  19.220
 3397DPPC   C3B62459  24.600  15.320  19.560
 3397DPPC   C4B62460  24.920  15.060  19.580
 3398DPPC   NC362461  13.600  25.850  39.770
 3398DPPC   PO462462  13.910  25.630  39.480
 3398DPPC   GL162463  14.070  25.610  39.130
 3398DPPC   GL262464  14.100  25.370  38.960
 3398DPPC   C1A62465  14.490  25.600  38.770
 3398DPPC   C2A62466  14.820  25.440  38.640
 3398DPPC   C3A62467  15.200  25.410  38.660
 3398DPPC   C4A62468  15.570  25.530  38.390
 3398DPPC   C1B62469  14.350  25.010  38.910
 3398DPPC   C2B62470  14.780  24.890  38.940
 3398DPPC   C3B62471  15.110  24.610  39.090
 3398DPPC   C4B62472  15.450  24.620  39.420
 3399DPPC   NC362473  15.900  14.790  26.290
 3399DPPC   PO462474  15.870  14.400  26.270
 3399DPPC   GL162475  15.780  14.250  25.900
 3399DPPC   GL262476  15.700  14.470  25.660
 3399DPPC   C1A62477  15.500  13.960  25.630
 3399DPPC   C2A62478  15.170  13.720  25.690
 3399DPPC   C3A62479  14.800  13.810  25.490
 3399DPPC   C4A62480  14.710  13.910  24.970
 3399DPPC   C1B62481  15.240  14.390  25.790
 3399DPPC   C2B62482  14.850  14.290  25.790
 3399DPPC   C3B62483  14.570  13.980  25.930
 3399DPPC   C4B62484  14.430  13.690  26.240
 3400DPPC   NC362485  19.070  18.900  47.160
 3400DPPC   PO462486  19.350  18.600  47.340
 3400DPPC   GL162487  19.500  18.290  47.170
 3400DPPC   GL262488  19.880  18.100  47.180
 3400DPPC   C1A62489  19.590  18.250  46.820
 3400DPPC   C2A62490  19.780  18.480  46.490
 3400DPPC   C3A62491  20.210  18.530  46.330
 3400DPPC   C4A62492  20.640  18.520  46.360
 3400DPPC   C1B62493  20.100  18.070  46.810
 3400DPPC   C2B62494  20.500  18.010  46.700
 3400DPPC   C3B62495  20.830  17.760  46.620
 3400DPPC   C4B62496  20.930  18.020  46.350
 3401DPPC   NC362497  26.925   3.570  35.980
 3401DPPC   PO462498  27.305   3.850  36.170
 3401DPPC   GL162499  27.385   4.190  36.220
 3401DPPC   GL262500  27.225   4.400  36.460
 3401DPPC   C1A62501  27.605   4.590  36.110
 3401DPPC   C2A62502  27.555   4.980  35.990
 3401DPPC   C3A62503  27.475   5.470  36.010
 3401DPPC   C4A62504  27.465   5.900  36.120
 3401DPPC   C1B62505  27.165   4.730  36.240
 3401DPPC   C2B62506  27.085   5.150  36.290
 3401DPPC   C3B62507  27.145   5.490  36.520
 3401DPPC   C4B62508  27.005   5.850  36.860
 3402DPPC   NC362509  13.650  21.860  30.310
 3402DPPC   PO462510  13.420  22.100  30.240
 3402DPPC   GL162511  12.970  22.190  30.240
 3402DPPC   GL262512  13.010  22.440  30.570
 3402DPPC   C1A62513  12.540  22.000  30.070
 3402DPPC   C2A62514  12.110  22.120  29.870
 3402DPPC   C3A62515  11.770  22.240  29.720
 3402DPPC   C4A62516  11.530  22.530  29.450
 3402DPPC   C1B62517  12.570  22.380  30.570
 3402DPPC   C2B62518  12.330  22.100  30.490
 3402DPPC   C3B62519  11.900  22.020  30.280
 3402DPPC   C4B62520  11.500  22.220  30.210
 3403DPPC   NC362521  20.450  10.740  45.330
 3403DPPC   PO462522  20.830  10.700  45.310
 3403DPPC   GL162523  21.040  11.000  44.970
 3403DPPC   GL262524  21.300  11.270  44.930
 3403DPPC   C1A62525  21.080  11.010  44.430
 3403DPPC   C2A62526  21.270  11.400  44.220
 3403DPPC   C3A62527  21.370  11.770  44.000
 3403DPPC   C4A62528  21.550  11.770  43.630
 3403DPPC   C1B62529  21.460  11.570  44.660
 3403DPPC   C2B62530  21.760  11.710  44.340
 3403DPPC   C3B62531  21.950  11.880  44.010
 3403DPPC   C4B62532  22.310  12.030  43.780
 3404DPPC   NC362533  18.710  24.550  27.910
 3404DPPC   PO462534  18.350  24.420  28.240
 3404DPPC   GL162535  18.220  24.790  28.210
 3404DPPC   GL262536  18.370  25.000  27.960
 3404DPPC   C1A62537  17.980  25.200  28.070
 3404DPPC   C2A62538  17.610  25.430  27.920
 3404DPPC   C3A62539  17.490  25.560  27.590
 3404DPPC   C4A62540  17.720  25.670  27.310
 3404DPPC   C1B62541  18.390  25.250  28.360
 3404DPPC   C2B62542  18.420  25.680  28.480
 3404DPPC   C3B62543  18.540  26.050  28.590
 3404DPPC   C4B62544  18.330  26.380  28.820
 3405DPPC   NC362545  21.640   4.130  32.470
 3405DPPC   PO462546  22.120   4.100  32.560
 3405DPPC   GL162547  22.240   4.460  32.430
 3405DPPC   GL262548  22.030   4.690  32.280
 3405DPPC   C1A62549  22.540   4.610  32.160
 3405DPPC   C2A62550  22.640   4.940  32.100
 3405DPPC   C3A62551  22.680   5.360  31.920
 3405DPPC   C4A62552  22.710   5.900  32.020
 3405DPPC   C1B62553  22.100   5.050  32.560
 3405DPPC   C2B62554  22.530   5.280  32.680
 3405DPPC   C3B62555  22.890   5.440  32.430
 3405DPPC   C4B62556  23.100   5.880  32.460
 3406DPPC   NC362557  24.400  19.300  27.190
 3406DPPC   PO462558  24.780  19.040  26.940
 3406DPPC   GL162559  25.060  19.400  26.820
 3406DPPC   GL262560  24.810  19.580  27.050
 3406DPPC   C1A62561  25.460  19.570  26.900
 3406DPPC   C2A62562  25.840  19.690  26.620
 3406DPPC   C3A62563  26.180  19.910  26.540
 3406DPPC   C4A62564  26.535  20.020  26.300
 3406DPPC   C1B62565  25.070  19.940  26.970
 3406DPPC   C2B62566  25.140  20.480  27.050
 3406DPPC   C3B62567  25.520  20.730  27.030
 3406DPPC   C4B62568  25.740  21.120  27.130
 3407DPPC   NC362569  17.070  23.420  26.040
 3407DPPC   PO462570  16.700  23.600  25.890
 3407DPPC   GL162571  16.940  24.010  25.860
 3407DPPC   GL262572  16.710  24.180  25.850
 3407DPPC   C1A62573  17.020  24.520  25.980
 3407DPPC   C2A62574  16.720  24.890  25.850
 3407DPPC   C3A62575  16.560  25.220  25.770
 3407DPPC   C4A62576  16.750  25.710  25.690
 3407DPPC   C1B62577  16.370  24.410  25.670
 3407DPPC   C2B62578  16.330  24.580  25.370
 3407DPPC   C3B62579  16.040  24.430  25.110
 3407DPPC   C4B62580  15.820  24.260  24.970
 3408DPPC   NC362581  24.900  18.330  25.110
 3408DPPC   PO462582  25.000  18.750  25.060
 3408DPPC   GL162583  25.290  18.860  24.780
 3408DPPC   GL262584  25.660  18.810  24.900
 3408DPPC   C1A62585  25.480  19.080  24.390
 3408DPPC   C2A62586  25.480  19.490  24.110
 3408DPPC   C3A62587  25.140  19.780  23.980
 3408DPPC   C4A62588  24.740  19.980  23.980
 3408DPPC   C1B62589  26.040  18.920  24.920
 3408DPPC   C2B62590  26.400  19.110  24.660
 3408DPPC   C3B62591  26.845  19.380  24.510
 3408DPPC   C4B62592  26.875  19.820  24.580
 3409DPPC   NC362593  14.380  19.420  37.160
 3409DPPC   PO462594  14.370  19.860  37.140
 3409DPPC   GL162595  14.080  20.060  37.290
 3409DPPC   GL262596  13.970  20.340  37.400
 3409DPPC   C1A62597  13.650  20.080  37.120
 3409DPPC   C2A62598  13.340  19.890  36.950
 3409DPPC   C3A62599  12.910  19.860  36.940
 3409DPPC   C4A62600  12.570  19.860  37.230
 3409DPPC   C1B62601  13.530  20.450  37.420
 3409DPPC   C2B62602  13.210  20.540  37.660
 3409DPPC   C3B62603  12.850  20.710  37.920
 3409DPPC   C4B62604  12.620  21.070  38.010
 3410DPPC   NC362605  27.245   4.930  25.590
 3410DPPC   PO462606  27.345   5.320  25.740
 3410DPPC   GL162607  27.445   5.650  25.670
 3410DPPC   GL262608  27.785   5.810  25.680
 3410DPPC   C1A62609  27.285   6.030  25.660
 3410DPPC   C2A62610  27.435   6.490  25.610
 3410DPPC   C3A62611  27.385   6.860  25.520
 3410DPPC   C4A62612  27.485   7.140  25.890
 3410DPPC   C1B62613  27.605   6.030  26.070
 3410DPPC   C2B62614  27.485   5.970  26.400
 3410DPPC   C3B62615  27.255   5.940  26.720
 3410DPPC   C4B62616  27.015   6.360  26.820
 3411DPPC   NC362617  24.550   3.910  37.220
 3411DPPC   PO462618  24.910   4.150  37.210
 3411DPPC   GL162619  25.060   4.440  37.060
 3411DPPC   GL262620  25.280   4.480  36.790
 3411DPPC   C1A62621  24.910   4.840  36.980
 3411DPPC   C2A62622  24.870   5.180  37.030
 3411DPPC   C3A62623  24.940   5.590  37.130
 3411DPPC   C4A62624  24.860   5.850  36.810
 3411DPPC   C1B62625  25.560   4.620  36.500
 3411DPPC   C2B62626  25.540   4.950  36.030
 3411DPPC   C3B62627  25.380   5.090  35.640
 3411DPPC   C4B62628  25.250   5.310  35.340
 3412DPPC   NC362629  23.840  18.620  42.670
 3412DPPC   PO462630  23.340  18.630  42.730
 3412DPPC   GL162631  23.550  18.880  43.040
 3412DPPC   GL262632  23.720  18.820  43.130
 3412DPPC   C1A62633  23.630  19.280  43.310
 3412DPPC   C2A62634  23.890  19.630  43.180
 3412DPPC   C3A62635  24.130  19.850  43.400
 3412DPPC   C4A62636  24.230  19.920  43.880
 3412DPPC   C1B62637  23.900  18.670  43.620
 3412DPPC   C2B62638  24.210  18.910  43.830
 3412DPPC   C3B62639  24.450  19.240  44.120
 3412DPPC   C4B62640  24.550  19.700  44.190
 3413DPPC   NC362641  24.040   1.500  34.550
 3413DPPC   PO462642  23.690   1.310  34.520
 3413DPPC   GL162643  23.390   0.950  34.430
 3413DPPC   GL262644  23.560   0.790  34.240
 3413DPPC   C1A62645  23.370   0.580  34.600
 3413DPPC   C2A62646  23.040   0.340  34.640
 3413DPPC   C3A62647  23.090  26.430  34.370
 3413DPPC   C4A62648  23.010  26.050  34.340
 3413DPPC   C1B62649  23.320   0.390  34.160
 3413DPPC   C2B62650  23.040   0.270  33.970
 3413DPPC   C3B62651  22.720  26.370  34.020
 3413DPPC   C4B62652  22.610  26.080  34.030
 3414DPPC   NC362653  20.410  23.240  25.720
 3414DPPC   PO462654  20.380  22.980  25.450
 3414DPPC   GL162655  20.460  23.320  25.170
 3414DPPC   GL262656  20.380  23.510  25.300
 3414DPPC   C1A62657  20.850  23.510  24.960
 3414DPPC   C2A62658  20.910  23.920  24.720
 3414DPPC   C3A62659  21.140  24.140  24.480
 3414DPPC   C4A62660  21.060  24.460  24.200
 3414DPPC   C1B62661  20.520  23.950  25.180
 3414DPPC   C2B62662  20.440  24.390  25.140
 3414DPPC   C3B62663  20.580  24.750  24.950
 3414DPPC   C4B62664  20.800  25.130  24.760
 3415DPPC   NC362665  14.330   0.290  23.630
 3415DPPC   PO462666  14.300   0.370  24.120
 3415DPPC   GL162667  14.570  26.390  24.260
 3415DPPC   GL262668  14.570  26.420  24.630
 3415DPPC   C1A62669  14.860  26.050  24.390
 3415DPPC   C2A62670  15.060  25.790  24.570
 3415DPPC   C3A62671  14.860  25.400  24.870
 3415DPPC   C4A62672  14.700  24.990  25.150
 3415DPPC   C1B62673  14.750  26.200  24.870
 3415DPPC   C2B62674  15.110  25.980  24.990
 3415DPPC   C3B62675  15.320  25.610  25.010
 3415DPPC   C4B62676  15.670  25.280  25.070
 3416DPPC   NC362677  21.600   9.710  27.410
 3416DPPC   PO462678  21.690   9.770  27.040
 3416DPPC   GL162679  21.610   9.230  27.120
 3416DPPC   GL262680  21.730   9.070  27.510
 3416DPPC   C1A62681  21.800   8.820  26.900
 3416DPPC   C2A62682  21.780   8.420  26.650
 3416DPPC   C3A62683  21.600   8.100  26.350
 3416DPPC   C4A62684  21.430   7.690  26.250
 3416DPPC   C1B62685  21.630   8.660  27.350
 3416DPPC   C2B62686  21.800   8.320  27.120
 3416DPPC   C3B62687  21.800   7.990  26.940
 3416DPPC   C4B62688  21.790   7.600  26.870
 3417DPPC   NC362689  24.850  19.310  27.470
 3417DPPC   PO462690  25.150  19.110  27.310
 3417DPPC   GL162691  25.480  19.440  27.340
 3417DPPC   GL262692  25.220  19.640  27.520
 3417DPPC   C1A62693  25.720  19.800  27.320
 3417DPPC   C2A62694  26.010  20.020  27.180
 3417DPPC   C3A62695  26.110  20.330  26.930
 3417DPPC   C4A62696  26.430  20.510  26.670
 3417DPPC   C1B62697  25.690  19.560  27.760
 3417DPPC   C2B62698  26.100  19.670  27.780
 3417DPPC   C3B62699  26.240  20.020  27.620
 3417DPPC   C4B62700  26.495  20.210  27.270
 3418DPPC   NC362701  28.145   5.520  38.800
 3418DPPC   PO462702  28.605   5.590  38.690
 3418DPPC   GL162703  28.615   6.020  38.470
 3418DPPC   GL262704  28.765   5.910  38.160
 3418DPPC   C1A62705  28.285   6.200  38.390
 3418DPPC   C2A62706  27.875   6.160  38.230
 3418DPPC   C3A62707  27.535   6.240  38.430
 3418DPPC   C4A62708  27.365   6.680  38.540
 3418DPPC   C1B62709  28.675   6.250  38.050
 3418DPPC   C2B62710  28.425   6.610  37.720
 3418DPPC   C3B62711  28.525   6.700  37.190
 3418DPPC   C4B62712  28.575   7.090  36.980
 3419DPPC   NC362713  17.610   0.470  40.090
 3419DPPC   PO462714  17.150   0.320  40.000
 3419DPPC   GL162715  17.350  26.350  39.890
 3419DPPC   GL262716  17.720  26.440  39.930
 3419DPPC   C1A62717  17.740  25.970  40.000
 3419DPPC   C2A62718  18.150  25.910  39.770
 3419DPPC   C3A62719  18.450  25.750  39.580
 3419DPPC   C4A62720  18.780  25.570  39.580
 3419DPPC   C1B62721  17.840  26.230  39.600
 3419DPPC   C2B62722  17.750  26.050  39.050
 3419DPPC   C3B62723  17.550  26.170  38.760
 3419DPPC   C4B62724  17.470  25.910  38.460
 3420DPPC   NC362725  24.190   8.500  44.030
 3420DPPC   PO462726  24.240   8.890  44.160
 3420DPPC   GL162727  24.110   9.300  44.020
 3420DPPC   GL262728  24.350   9.440  43.960
 3420DPPC   C1A62729  24.010   9.770  43.770
 3420DPPC   C2A62730  24.170  10.170  43.560
 3420DPPC   C3A62731  24.220  10.470  43.400
 3420DPPC   C4A62732  24.270  10.840  43.140
 3420DPPC   C1B62733  24.900   9.510  43.880
 3420DPPC   C2B62734  25.130   9.850  44.110
 3420DPPC   C3B62735  25.350  10.090  44.460
 3420DPPC   C4B62736  25.230  10.420  44.570
 3421DPPC   NC362737  19.530  23.880  44.540
 3421DPPC   PO462738  19.430  23.710  44.830
 3421DPPC   GL162739  19.610  23.390  44.550
 3421DPPC   GL262740  19.790  23.100  44.690
 3421DPPC   C1A62741  19.540  23.290  44.170
 3421DPPC   C2A62742  19.260  23.510  43.820
 3421DPPC   C3A62743  19.330  23.420  43.340
 3421DPPC   C4A62744  19.230  23.410  42.890
 3421DPPC   C1B62745  19.850  22.910  44.300
 3421DPPC   C2B62746  19.590  22.780  44.010
 3421DPPC   C3B62747  19.230  22.840  43.760
 3421DPPC   C4B62748  18.950  22.710  43.380
 3422DPPC   NC362749  19.490  13.610  46.190
 3422DPPC   PO462750  19.010  13.720  46.080
 3422DPPC   GL162751  19.210  13.680  45.710
 3422DPPC   GL262752  19.600  13.630  45.700
 3422DPPC   C1A62753  19.140  13.580  45.200
 3422DPPC   C2A62754  18.890  13.600  44.820
 3422DPPC   C3A62755  18.770  13.790  44.370
 3422DPPC   C4A62756  18.480  13.830  44.010
 3422DPPC   C1B62757  19.430  13.930  45.340
 3422DPPC   C2B62758  19.560  14.100  45.010
 3422DPPC   C3B62759  19.600  14.230  44.650
 3422DPPC   C4B62760  19.910  14.490  44.420
 3423DPPC   NC362761  17.450  15.710  40.350
 3423DPPC   PO462762  17.210  15.900  40.740
 3423DPPC   GL162763  16.830  15.640  40.900
 3423DPPC   GL262764  17.090  15.470  41.170
 3423DPPC   C1A62765  16.510  15.410  41.120
 3423DPPC   C2A62766  16.570  15.070  41.410
 3423DPPC   C3A62767  16.370  15.030  41.860
 3423DPPC   C4A62768  16.210  15.020  42.340
 3423DPPC   C1B62769  17.060  15.060  41.100
 3423DPPC   C2B62770  16.900  14.690  41.370
 3423DPPC   C3B62771  16.460  14.580  41.590
 3423DPPC   C4B62772  16.120  14.460  41.370
 3424DPPC   NC362773  25.140  16.950  18.420
 3424DPPC   PO462774  25.300  17.140  18.710
 3424DPPC   GL162775  25.380  16.860  19.090
 3424DPPC   GL262776  25.490  17.050  19.300
 3424DPPC   C1A62777  25.460  16.650  19.510
 3424DPPC   C2A62778  25.520  16.280  19.910
 3424DPPC   C3A62779  25.340  16.140  20.290
 3424DPPC   C4A62780  25.380  15.860  20.600
 3424DPPC   C1B62781  25.190  17.370  19.290
 3424DPPC   C2B62782  24.880  17.630  19.120
 3424DPPC   C3B62783  24.470  17.790  18.920
 3424DPPC   C4B62784  24.370  18.180  18.720
 3425DPPC   NC362785  30.655  19.320  40.540
 3425DPPC   PO462786  30.965  19.070  40.490
 3425DPPC   GL162787  30.685  19.050  40.110
 3425DPPC   GL262788  30.675  18.930  39.730
 3425DPPC   C1A62789  30.385  18.700  40.060
 3425DPPC   C2A62790  29.885  18.660  40.140
 3425DPPC   C3A62791  29.425  18.630  40.050
 3425DPPC   C4A62792  28.995  18.610  40.020
 3425DPPC   C1B62793  30.405  18.840  39.420
 3425DPPC   C2B62794  29.875  18.660  39.270
 3425DPPC   C3B62795  29.635  18.830  38.980
 3425DPPC   C4B62796  29.195  18.770  38.770
 3426DPPC   NC362797  21.960   1.230  28.870
 3426DPPC   PO462798  22.420   1.270  28.970
 3426DPPC   GL162799  22.440   0.870  28.790
 3426DPPC   GL262800  22.700   0.620  28.790
 3426DPPC   C1A62801  22.220   0.600  29.030
 3426DPPC   C2A62802  21.950   0.220  28.970
 3426DPPC   C3A62803  21.840  26.320  28.970
 3426DPPC   C4A62804  21.720  26.020  28.900
 3426DPPC   C1B62805  22.560   0.240  28.530
 3426DPPC   C2B62806  22.160   0.020  28.390
 3426DPPC   C3B62807  21.860  26.210  28.420
 3426DPPC   C4B62808  21.710  25.810  28.430
 3427DPPC   NC362809  29.425  12.690  30.260
 3427DPPC   PO462810  29.695  12.350  30.210
 3427DPPC   GL162811  30.065  12.230  30.200
 3427DPPC   GL262812  30.215  12.500  30.200
 3427DPPC   C1A62813  30.465  11.950  30.010
 3427DPPC   C2A62814  30.765  11.590  29.980
 3427DPPC   C3A62815  30.975  11.390  29.660
 3427DPPC   C4A62816  30.945  11.030  29.360
 3427DPPC   C1B62817  30.535  12.540  30.030
 3427DPPC   C2B62818  30.845  12.150  29.840
 3427DPPC   C3B62819  31.225  11.900  29.840
 3427DPPC   C4B62820  31.495  11.550  29.890
 3428DPPC   NC362821  17.590  11.510  34.110
 3428DPPC   PO462822  17.570  11.630  34.560
 3428DPPC   GL162823  17.470  11.210  34.520
 3428DPPC   GL262824  17.530  10.850  34.500
 3428DPPC   C1A62825  17.040  10.990  34.400
 3428DPPC   C2A62826  16.740  10.860  34.270
 3428DPPC   C3A62827  16.360  10.850  34.100
 3428DPPC   C4A62828  16.110  10.600  34.220
 3428DPPC   C1B62829  17.310  10.510  34.610
 3428DPPC   C2B62830  16.960  10.200  34.860
 3428DPPC   C3B62831  16.520  10.130  34.750
 3428DPPC   C4B62832  16.160   9.710  34.820
 3429DPPC   NC362833  27.395  21.160  22.390
 3429DPPC   PO462834  27.295  20.880  22.010
 3429DPPC   GL162835  27.045  20.660  22.110
 3429DPPC   GL262836  27.015  20.430  21.860
 3429DPPC   C1A62837  26.605  20.640  22.280
 3429DPPC   C2A62838  26.210  20.680  22.360
 3429DPPC   C3A62839  26.050  21.010  22.660
 3429DPPC   C4A62840  25.720  20.850  22.970
 3429DPPC   C1B62841  26.965  20.180  22.210
 3429DPPC   C2B62842  26.925  19.890  22.550
 3429DPPC   C3B62843  26.605  19.580  22.710
 3429DPPC   C4B62844  26.440  19.370  23.060
 3430DPPC   NC362845  26.805   7.550  21.970
 3430DPPC   PO462846  27.185   7.790  22.180
 3430DPPC   GL162847  26.985   7.920  22.490
 3430DPPC   GL262848  26.735   8.020  22.200
 3430DPPC   C1A62849  27.035   8.070  22.910
 3430DPPC   C2A62850  26.785   8.310  23.170
 3430DPPC   C3A62851  26.645   8.440  23.520
 3430DPPC   C4A62852  26.795   8.480  23.980
 3430DPPC   C1B62853  26.575   8.220  22.530
 3430DPPC   C2B62854  26.475   8.550  22.820
 3430DPPC   C3B62855  26.575   8.760  23.100
 3430DPPC   C4B62856  26.565   9.140  23.430
 3431DPPC   NC362857  26.625  16.080  24.680
 3431DPPC   PO462858  26.725  15.630  24.900
 3431DPPC   GL162859  27.225  15.560  24.750
 3431DPPC   GL262860  27.415  15.610  24.930
 3431DPPC   C1A62861  27.395  15.500  24.330
 3431DPPC   C2A62862  27.595  15.710  24.030
 3431DPPC   C3A62863  28.025  15.720  24.030
 3431DPPC   C4A62864  28.455  15.880  24.100
 3431DPPC   C1B62865  27.915  15.690  24.940
 3431DPPC   C2B62866  28.085  15.860  24.530
 3431DPPC   C3B62867  28.225  16.320  24.380
 3431DPPC   C4B62868  28.105  16.630  24.050
 3432DPPC   NC362869  24.870  22.630  20.920
 3432DPPC   PO462870  24.840  22.680  21.480
 3432DPPC   GL162871  24.900  22.310  21.610
 3432DPPC   GL262872  24.670  22.180  21.300
 3432DPPC   C1A62873  24.600  22.130  21.970
 3432DPPC   C2A62874  24.160  21.980  22.040
 3432DPPC   C3A62875  23.780  21.690  21.970
 3432DPPC   C4A62876  23.520  21.450  22.330
 3432DPPC   C1B62877  24.260  21.960  21.560
 3432DPPC   C2B62878  24.130  21.620  21.580
 3432DPPC   C3B62879  24.020  21.290  21.270
 3432DPPC   C4B62880  23.860  21.050  20.910
 3433DPPC   NC362881   9.050  19.800  33.650
 3433DPPC   PO462882   9.150  19.560  33.310
 3433DPPC   GL162883   9.520  19.590  33.090
 3433DPPC   GL262884   9.790  19.750  33.240
 3433DPPC   C1A62885   9.860  19.290  33.040
 3433DPPC   C2A62886  10.000  19.030  32.810
 3433DPPC   C3A62887  10.380  18.750  32.900
 3433DPPC   C4A62888  10.700  18.370  32.810
 3433DPPC   C1B62889  10.220  19.570  33.210
 3433DPPC   C2B62890  10.600  19.570  33.240
 3433DPPC   C3B62891  11.060  19.450  33.360
 3433DPPC   C4B62892  11.130  19.300  33.800
 3434DPPC   NC362893  14.010   1.180  35.050
 3434DPPC   PO462894  14.180   1.380  34.700
 3434DPPC   GL162895  14.610   1.190  34.580
 3434DPPC   GL262896  14.770   1.410  34.730
 3434DPPC   C1A62897  14.870   0.910  34.760
 3434DPPC   C2A62898  15.080   0.640  34.900
 3434DPPC   C3A62899  15.270   0.280  34.800
 3434DPPC   C4A62900  15.340   0.180  34.340
 3434DPPC   C1B62901  15.170   1.360  34.890
 3434DPPC   C2B62902  15.300   1.030  35.070
 3434DPPC   C3B62903  15.600   0.680  34.990
 3434DPPC   C4B62904  15.660   0.250  35.050
 3435DPPC   NC362905  17.500  22.330  23.340
 3435DPPC   PO462906  18.010  22.380  23.520
 3435DPPC   GL162907  17.930  22.800  23.370
 3435DPPC   GL262908  17.580  22.820  23.410
 3435DPPC   C1A62909  17.980  22.960  23.060
 3435DPPC   C2A62910  18.010  22.990  22.630
 3435DPPC   C3A62911  17.960  23.020  22.220
 3435DPPC   C4A62912  18.100  23.200  21.940
 3435DPPC   C1B62913  17.490  23.110  23.140
 3435DPPC   C2B62914  17.450  23.460  22.870
 3435DPPC   C3B62915  17.530  23.870  23.020
 3435DPPC   C4B62916  17.870  24.160  23.170
 3436DPPC   NC362917  18.550  23.370  18.400
 3436DPPC   PO462918  18.260  23.510  18.730
 3436DPPC   GL162919  18.400  23.090  18.890
 3436DPPC   GL262920  18.160  23.040  19.160
 3436DPPC   C1A62921  18.560  22.710  19.090
 3436DPPC   C2A62922  18.780  22.740  19.490
 3436DPPC   C3A62923  18.780  22.460  19.910
 3436DPPC   C4A62924  18.950  22.380  20.320
 3436DPPC   C1B62925  18.220  22.730  19.460
 3436DPPC   C2B62926  18.320  22.710  19.930
 3436DPPC   C3B62927  18.340  23.080  20.200
 3436DPPC   C4B62928  18.410  23.480  20.220
 3437DPPC   NC362929  22.880  24.180  44.340
 3437DPPC   PO462930  22.990  23.910  44.530
 3437DPPC   GL162931  22.980  23.580  44.150
 3437DPPC   GL262932  22.690  23.320  44.280
 3437DPPC   C1A62933  23.000  23.240  43.850
 3437DPPC   C2A62934  22.920  23.200  43.410
 3437DPPC   C3A62935  22.830  23.370  43.010
 3437DPPC   C4A62936  22.810  23.200  42.530
 3437DPPC   C1B62937  22.370  23.020  44.310
 3437DPPC   C2B62938  22.340  22.700  44.670
 3437DPPC   C3B62939  22.300  22.350  44.980
 3437DPPC   C4B62940  22.020  22.240  45.370
 3438DPPC   NC362941  23.020   7.860  42.970
 3438DPPC   PO462942  23.290   7.750  43.280
 3438DPPC   GL162943  23.660   7.790  43.030
 3438DPPC   GL262944  23.540   7.850  42.760
 3438DPPC   C1A62945  23.850   8.230  42.890
 3438DPPC   C2A62946  24.130   8.570  42.900
 3438DPPC   C3A62947  24.280   8.910  42.640
 3438DPPC   C4A62948  24.110   9.230  42.540
 3438DPPC   C1B62949  23.420   8.180  42.520
 3438DPPC   C2B62950  23.080   8.310  42.190
 3438DPPC   C3B62951  23.000   8.500  41.800
 3438DPPC   C4B62952  23.240   8.940  41.700
 3439DPPC   NC362953  23.630  24.980  41.970
 3439DPPC   PO462954  24.060  24.890  42.100
 3439DPPC   GL162955  23.830  24.500  41.890
 3439DPPC   GL262956  23.500  24.570  41.740
 3439DPPC   C1A62957  23.670  24.070  41.640
 3439DPPC   C2A62958  23.350  23.760  41.460
 3439DPPC   C3A62959  23.160  23.320  41.440
 3439DPPC   C4A62960  23.140  22.920  41.460
 3439DPPC   C1B62961  23.190  24.380  41.820
 3439DPPC   C2B62962  23.050  24.010  41.770
 3439DPPC   C3B62963  22.890  23.710  41.680
 3439DPPC   C4B62964  22.660  23.450  41.500
 3440DPPC   NC362965  27.565  23.380  41.850
 3440DPPC   PO462966  27.635  22.870  41.810
 3440DPPC   GL162967  27.485  22.810  41.400
 3440DPPC   GL262968  27.655  22.840  41.230
 3440DPPC   C1A62969  27.055  22.880  41.060
 3440DPPC   C2A62970  26.615  22.760  41.020
 3440DPPC   C3A62971  26.200  22.730  40.890
 3440DPPC   C4A62972  26.210  23.050  40.970
 3440DPPC   C1B62973  27.435  22.560  40.940
 3440DPPC   C2B62974  27.365  22.190  40.650
 3440DPPC   C3B62975  27.155  21.930  40.500
 3440DPPC   C4B62976  26.935  21.620  40.710
 3441DPPC   NC362977  17.760  25.560  20.540
 3441DPPC   PO462978  18.060  25.360  20.480
 3441DPPC   GL162979  17.940  25.020  20.740
 3441DPPC   GL262980  18.210  24.850  20.790
 3441DPPC   C1A62981  18.010  25.090  21.220
 3441DPPC   C2A62982  18.210  25.180  21.610
 3441DPPC   C3A62983  18.060  25.320  22.040
 3441DPPC   C4A62984  17.900  25.330  22.480
 3441DPPC   C1B62985  18.120  24.600  21.160
 3441DPPC   C2B62986  18.200  24.510  21.570
 3441DPPC   C3B62987  18.120  24.690  21.980
 3441DPPC   C4B62988  18.240  24.960  22.390
 3442DPPC   NC362989  23.150   1.080  36.250
 3442DPPC   PO462990  23.300   0.930  35.940
 3442DPPC   GL162991  23.020   0.620  36.000
 3442DPPC   GL262992  23.020   0.570  36.320
 3442DPPC   C1A62993  23.040   0.160  36.070
 3442DPPC   C2A62994  23.080  26.200  35.920
 3442DPPC   C3A62995  22.870  25.830  35.920
 3442DPPC   C4A62996  22.790  25.420  36.020
 3442DPPC   C1B62997  22.680   0.360  36.420
 3442DPPC   C2B62998  22.600  26.300  36.580
 3442DPPC   C3B62999  22.350  25.960  36.690
 3442DPPC   C4B63000  21.910  26.120  36.780
  26.44469  26.44469  54.25537
